Title
81276
    1CHL1    C3    1   2.627   1.015  10.019 -0.7806 -0.7414  0.2408
    1CHL1    H3    2   2.526   0.974  10.000  0.3458 -3.2219 -0.7834
    1CHL1    O3    3   2.662   1.011  10.156 -0.1783  0.6518  0.0481
    1CHL1   H3'    4   2.758   1.012  10.157  0.0303 -2.9659 -0.5906
    1CHL1    C4    5   2.733   0.935   9.939  0.7700  0.0692 -0.3399
    1CHL1   H4A    6   2.833   0.968   9.972  0.5915 -0.9600  1.3495
    1CHL1   H4B    7   2.706   0.835   9.979 -1.3069  0.6712 -0.1159
    1CHL1    C5    8   2.709   0.943   9.790 -0.2513 -0.0333 -0.0518
    1CHL1    C6    9   2.710   0.834   9.708  0.5365  0.0787  0.1277
    1CHL1    H6   10   2.727   0.733   9.749 -0.9436 -0.1176  0.2990
    1CHL1    C7   11   2.695   0.827   9.551  0.0645 -0.8554 -0.3126
    1CHL1   H7A   12   2.782   0.772   9.511  2.8643  2.4088  0.8014
    1CHL1   H7B   13   2.600   0.778   9.521  1.1909 -3.6142  0.2758
    1CHL1    C8   14   2.707   0.973   9.497  0.0120  0.5541  0.2768
    1CHL1    H8   15   2.816   0.992   9.496  0.4842 -1.8232 -0.5391
    1CHL1   C14   16   2.667   0.980   9.347 -0.0677 -0.7336 -0.0894
    1CHL1   H14   17   2.560   0.953   9.342 -0.6146  1.0363  1.0005
    1CHL1   C15   18   2.743   0.877   9.253  0.5052 -0.6078  0.2874
    1CHL1  H15A   19   2.852   0.886   9.274  0.4486 -0.3912  0.4939
    1CHL1  H15B   20   2.713   0.773   9.276 -0.9872 -0.1689  0.3947
    1CHL1   C16   21   2.695   0.938   9.118  0.7987  0.2814 -0.6428
    1CHL1  H16A   22   2.776   0.939   9.043  1.4177 -0.5646 -0.0124
    1CHL1  H16B   23   2.621   0.866   9.076 -0.0062 -0.8872  2.4299
    1CHL1   C17   24   2.634   1.084   9.142  0.2361  0.6879  0.5871
    1CHL1   H17   25   2.526   1.062   9.133  0.2792  0.7275 -0.1462
    1CHL1   C13   26   2.674   1.119   9.282  0.2105  0.0559 -0.3378
    1CHL1   C18   27   2.826   1.156   9.282  0.3913 -0.1014 -0.3011
    1CHL1  H18A   28   2.882   1.157   9.378  2.3258 -0.4644 -1.3670
    1CHL1  H18B   29   2.877   1.077   9.221  0.0563 -1.2945  0.9221
    1CHL1  H18C   30   2.840   1.258   9.241  3.6738  0.2469  1.3410
    1CHL1   C12   31   2.594   1.222   9.367 -0.1686  0.2110  0.5155
    1CHL1  H12A   32   2.609   1.325   9.328  3.2341  0.0462  1.0531
    1CHL1  H12B   33   2.487   1.195   9.377 -1.2843  3.5559 -1.1077
    1CHL1   C11   34   2.649   1.221   9.515 -0.1876 -0.4612 -0.1348
    1CHL1  H11A   35   2.752   1.264   9.509 -0.4145 -0.0509 -1.1981
    1CHL1  H11B   36   2.599   1.300   9.575 -0.0633  0.4780 -1.2429
    1CHL1    C9   37   2.644   1.083   9.585 -1.1035  0.5324 -0.3220
    1CHL1    H9   38   2.538   1.054   9.596 -1.2775  1.8976  2.2408
    1CHL1   C10   39   2.698   1.083   9.734 -0.4117 -1.1206 -0.5645
    1CHL1   C19   40   2.844   1.142   9.738  0.1380 -0.0403  0.6984
    1CHL1  H19A   41   2.881   1.148   9.842  0.6012  0.1356  0.5281
    1CHL1  H19B   42   2.910   1.089   9.666 -0.1324  1.5379 -0.7794
    1CHL1  H19C   43   2.845   1.248   9.704  0.1185 -0.3446 -0.3040
    1CHL1    C1   44   2.606   1.172   9.827  0.1835  0.6798  0.5100
    1CHL1   H1A   45   2.615   1.276   9.791  2.2135  0.1011 -0.7991
    1CHL1   H1B   46   2.506   1.130   9.801  1.7744 -2.2783 -1.4531
    1CHL1    C2   47   2.631   1.159   9.976  0.6064 -0.0976  0.3020
    1CHL1   H2A   48   2.553   1.218  10.026  1.2379 -1.3307  2.8913
    1CHL1   H2B   49   2.729   1.210   9.984  0.4859  1.4987 -4.6345
    1CHL1   C20   50   2.670   1.179   9.026  0.2324  0.3968 -0.2735
    1CHL1   H20   51   2.781   1.187   9.031  0.1830  0.2564  3.8786
    1CHL1   C21   52   2.601   1.315   9.049  0.8093  0.0034  0.8652
    1CHL1  H21A   53   2.648   1.382   9.124  0.1770  2.8793 -1.1565
    1CHL1  H21B   54   2.493   1.302   9.070  0.7564 -1.1382 -0.0205
    1CHL1  H21C   55   2.617   1.372   8.956  0.5610  2.3454  2.1856
    1CHL1   C22   56   2.633   1.115   8.884 -0.2672  0.3866  0.5776
    1CHL1  H22A   57   2.650   1.005   8.876 -0.4897  0.3809  0.1122
    1CHL1  H22B   58   2.528   1.149   8.870 -0.1454  1.1344  1.4419
    1CHL1   C23   59   2.705   1.169   8.758  0.5692 -0.0179 -0.4512
    1CHL1  H23A   60   2.686   1.278   8.762  0.5081 -0.0527  2.1746
    1CHL1  H23B   61   2.815   1.166   8.774  0.6101 -0.4872 -0.7767
    1CHL1   C24   62   2.661   1.103   8.624 -1.1865 -0.4001  0.4645
    1CHL1  H24A   63   2.638   0.998   8.654 -0.4294 -0.4382  0.9358
    1CHL1  H24B   64   2.562   1.147   8.599  0.0824  1.6485 -1.2253
    1CHL1   C25   65   2.751   1.120   8.502  0.3131  0.4661  0.2339
    1CHL1   H25   66   2.696   1.067   8.422  2.4621  0.1600 -1.1330
    1CHL1   C26   67   2.776   1.268   8.465  0.3957 -0.0877 -0.6613
    1CHL1  H26A   68   2.800   1.328   8.555 -0.6948 -0.9360  0.2170
    1CHL1  H26B   69   2.860   1.280   8.393  0.2487  0.3078 -0.7700
    1CHL1  H26C   70   2.687   1.316   8.419 -0.1024  1.0641  1.3788
    1CHL1   C27   71   2.883   1.053   8.518 -0.4393 -0.0003  0.4000
    1CHL1  H27A   72   2.943   1.060   8.424  1.0857 -0.2614  1.3217
    1CHL1  H27B   73   2.946   1.103   8.595  0.6045  0.7248 -0.8705
    1CHL1  H27C   74   2.873   0.945   8.543 -1.8571 -0.0193 -0.1437
    2CHL1    C3   75   4.350   5.333   9.852 -0.0904  0.9531  0.1158
    2CHL1    H3   76   4.457   5.302   9.848 -0.2974  0.3330 -1.0190
    2CHL1    O3   77   4.295   5.325   9.985 -0.4571  0.4813  0.4275
    2CHL1   H3'   78   4.304   5.233  10.012 -0.3907  0.0399 -1.0467
    2CHL1    C4   79   4.330   5.478   9.791 -0.3951 -0.0099 -0.5181
    2CHL1   H4A   80   4.223   5.507   9.803 -0.7349 -0.8950 -1.3151
    2CHL1   H4B   81   4.389   5.554   9.848 -0.9341  0.1181 -0.1188
    2CHL1    C5   82   4.376   5.480   9.645 -0.1095  0.7747  0.2103
    2CHL1    C6   83   4.468   5.564   9.608 -0.4890 -0.2597  0.4862
    2CHL1    H6   84   4.508   5.637   9.680  1.0687 -1.2805  0.7053
    2CHL1    C7   85   4.511   5.603   9.471 -0.6671 -0.4807  0.3415
    2CHL1   H7A   86   4.497   5.713   9.463 -0.4707 -0.4572  0.3229
    2CHL1   H7B   87   4.616   5.573   9.454 -0.3363  0.7770  0.0060
    2CHL1    C8   88   4.419   5.538   9.368 -0.5078 -0.1375  0.2249
    2CHL1    H8   89   4.321   5.591   9.367  0.0089  0.9529 -2.4327
    2CHL1   C14   90   4.498   5.530   9.235 -0.2396 -0.3546  0.3068
    2CHL1   H14   91   4.584   5.462   9.251  0.1592  0.0961  0.1039
    2CHL1   C15   92   4.554   5.654   9.173  0.1890  0.7190 -0.4283
    2CHL1  H15A   93   4.480   5.735   9.192 -2.0656 -1.7866  2.5834
    2CHL1  H15B   94   4.655   5.674   9.214 -0.1485 -0.4955  1.0848
    2CHL1   C16   95   4.554   5.632   9.020 -0.2010  0.5265  0.1582
    2CHL1  H16A   96   4.474   5.698   8.980 -1.2008 -0.4461  0.5132
    2CHL1  H16B   97   4.658   5.630   8.981 -0.3492 -1.0598 -0.2163
    2CHL1   C17   98   4.503   5.483   9.003 -0.3726  0.6747  0.3138
    2CHL1   H17   99   4.595   5.425   9.024  0.5645  0.6162 -3.4214
    2CHL1   C13  100   4.407   5.457   9.128  0.5187 -0.6888  0.4411
    2CHL1   C18  101   4.271   5.527   9.104 -0.8620  0.0177 -0.9005
    2CHL1  H18A  102   4.207   5.523   9.195  0.7662 -0.1641  0.2782
    2CHL1  H18B  103   4.290   5.635   9.087 -0.4982  0.0358 -0.3955
    2CHL1  H18C  104   4.222   5.486   9.013 -0.4517 -2.6601 -0.0014
    2CHL1   C12  105   4.383   5.312   9.168  0.0891  0.0246 -0.7636
    2CHL1  H12A  106   4.319   5.255   9.097 -0.9005  0.8487 -0.5498
    2CHL1  H12B  107   4.485   5.268   9.176  0.2391  0.7316  2.9574
    2CHL1   C11  108   4.312   5.297   9.307  0.7226  0.5628 -0.6317
    2CHL1  H11A  109   4.209   5.340   9.301  2.1578  4.2938 -1.3170
    2CHL1  H11B  110   4.302   5.189   9.328 -0.7016  0.5078 -1.4679
    2CHL1    C9  111   4.383   5.387   9.410  0.3280  0.0420  0.5030
    2CHL1    H9  112   4.482   5.340   9.423  0.4991  0.2304 -0.0832
    2CHL1   C10  113   4.307   5.383   9.549  0.4668 -0.4583  0.3155
    2CHL1   C19  114   4.158   5.432   9.530 -0.1944  0.2333 -0.3484
    2CHL1  H19A  115   4.102   5.345   9.492  1.3872 -0.2657 -1.6185
    2CHL1  H19B  116   4.106   5.453   9.626  1.9780  0.6685  0.8015
    2CHL1  H19C  117   4.143   5.513   9.456  0.4951 -2.1412 -3.2681
    2CHL1    C1  118   4.309   5.246   9.611  0.6114  0.0334 -0.5029
    2CHL1   H1A  119   4.262   5.163   9.554  0.4722 -0.6275  0.5355
    2CHL1   H1B  120   4.414   5.210   9.614  0.1859 -1.2326 -0.2250
    2CHL1    C2  121   4.262   5.236   9.761 -0.2622 -0.8242 -0.1191
    2CHL1   H2A  122   4.276   5.132   9.798 -0.7806 -0.1232  2.2599
    2CHL1   H2B  123   4.156   5.267   9.767  0.2032  0.6201  1.7755
    2CHL1   C20  124   4.447   5.443   8.860  0.0475 -0.5786  0.6293
    2CHL1   H20  125   4.340   5.415   8.866  0.4726 -2.3944  0.4034
    2CHL1   C21  126   4.518   5.314   8.824  0.6715 -0.2898 -0.0896
    2CHL1  H21A  127   4.477   5.263   8.735 -1.1862  0.8567  0.0583
    2CHL1  H21B  128   4.504   5.239   8.905 -0.7913  1.2113  1.1225
    2CHL1  H21C  129   4.622   5.340   8.797  0.1433 -0.2381 -2.1982
    2CHL1   C22  130   4.459   5.546   8.746  0.6515  0.1475  0.1832
    2CHL1  H22A  131   4.425   5.644   8.786  2.2713  1.6289 -1.8441
    2CHL1  H22B  132   4.569   5.543   8.730  0.9376 -1.4937  2.0167
    2CHL1   C23  133   4.371   5.517   8.623  0.1682  0.3463 -0.0508
    2CHL1  H23A  134   4.410   5.420   8.585  0.5491  0.5732 -0.2513
    2CHL1  H23B  135   4.265   5.498   8.649  0.2797  0.8367  0.7738
    2CHL1   C24  136   4.378   5.623   8.506  0.3124  0.0824 -0.4630
    2CHL1  H24A  137   4.308   5.604   8.422 -0.7507 -0.2295  0.4783
    2CHL1  H24B  138   4.343   5.720   8.548  0.0624 -0.1858 -0.0524
    2CHL1   C25  139   4.520   5.656   8.457 -0.3615 -0.2309 -0.0340
    2CHL1   H25  140   4.582   5.690   8.543  0.3693 -4.3431  1.2858
    2CHL1   C26  141   4.590   5.535   8.392  0.2450 -0.3222  0.0381
    2CHL1  H26A  142   4.535   5.506   8.299 -0.6923  2.3957 -0.3728
    2CHL1  H26B  143   4.691   5.575   8.369  1.3592 -2.4645  1.0368
    2CHL1  H26C  144   4.602   5.449   8.460  2.3362 -1.1800 -1.3427
    2CHL1   C27  145   4.528   5.777   8.362  0.1217  0.1213  0.3470
    2CHL1  H27A  146   4.464   5.861   8.397  0.0469 -0.3316  1.3466
    2CHL1  H27B  147   4.631   5.810   8.337  0.3416 -2.5229 -2.9172
    2CHL1  H27C  148   4.494   5.737   8.264 -2.3812  1.5948  0.5238
    3CHL1    C3  149   4.866   5.223  10.149 -0.2629 -0.1775 -0.2451
    3CHL1    H3  150   4.786   5.151  10.121 -2.6256  1.7755  1.0889
    3CHL1    O3  151   4.867   5.237  10.291 -0.3267 -0.2986  0.3708
    3CHL1   H3'  152   4.925   5.310  10.312 -1.3411  1.0818 -1.3739
    3CHL1    C4  153   5.007   5.195  10.091 -0.1725  0.3622  0.8114
    3CHL1   H4A  154   5.081   5.277  10.108  0.0014  0.9496 -2.1988
    3CHL1   H4B  155   5.042   5.105  10.146  1.1316 -1.0922 -2.1670
    3CHL1    C5  156   5.022   5.182   9.943 -0.1334  0.3265  0.0655
    3CHL1    C6  157   5.066   5.067   9.891  0.1311 -0.2182 -0.4118
    3CHL1    H6  158   5.094   4.985   9.959 -1.2604 -2.0870 -1.9880
    3CHL1    C7  159   5.082   5.049   9.740 -0.2097 -0.3622 -0.1256
    3CHL1   H7A  160   5.186   5.020   9.715  0.2817  0.8709  0.3817
    3CHL1   H7B  161   5.017   4.971   9.696  1.1361 -0.2618 -2.4245
    3CHL1    C8  162   5.057   5.176   9.661 -0.8159 -0.7729  0.1488
    3CHL1    H8  163   5.144   5.246   9.668 -1.8952  0.6097  0.0763
    3CHL1   C14  164   5.029   5.148   9.512 -0.7168 -1.0575 -0.0955
    3CHL1   H14  165   4.936   5.088   9.510 -0.2894 -1.7458  0.1987
    3CHL1   C15  166   5.137   5.066   9.437 -0.4277 -0.6945  0.7282
    3CHL1  H15A  167   5.240   5.097   9.466 -1.3936  2.7029  0.9435
    3CHL1  H15B  168   5.125   4.958   9.461  0.4912 -0.5502  1.9098
    3CHL1   C16  169   5.112   5.093   9.285 -0.6907 -0.1399  0.7033
    3CHL1  H16A  170   5.203   5.132   9.235 -1.1147 -0.9394 -0.7546
    3CHL1  H16B  171   5.080   5.003   9.229  1.9935  1.1663 -3.3469
    3CHL1   C17  172   4.999   5.203   9.279  0.3125 -0.2721  0.0494
    3CHL1   H17  173   4.905   5.144   9.274  0.5118 -0.5198 -1.2485
    3CHL1   C13  174   5.005   5.271   9.419  0.2774 -0.0147  0.4617
    3CHL1   C18  175   5.132   5.367   9.416  0.0299  0.4871 -0.6436
    3CHL1  H18A  176   5.109   5.450   9.345  0.5099 -0.9890 -2.5996
    3CHL1  H18B  177   5.153   5.399   9.521  0.9558  0.8583 -0.9366
    3CHL1  H18C  178   5.227   5.320   9.385  0.1761 -2.2298  3.1699
    3CHL1   C12  179   4.875   5.337   9.471 -1.2278  0.8215 -0.5696
    3CHL1  H12A  180   4.850   5.432   9.421  0.2563  2.4793  1.6065
    3CHL1  H12B  181   4.783   5.277   9.453 -1.8099  1.6832 -0.5419
    3CHL1   C11  182   4.893   5.375   9.629 -0.4996  0.2554  0.2053
    3CHL1  H11A  183   4.976   5.448   9.623  0.8314 -0.9037  2.7568
    3CHL1  H11B  184   4.801   5.430   9.658 -0.0658  0.1868  1.7868
    3CHL1    C9  185   4.942   5.258   9.719 -0.1676  0.3362  0.2464
    3CHL1    H9  186   4.853   5.192   9.713 -0.2335  0.2286  1.9353
    3CHL1   C10  187   4.964   5.303   9.862  0.4506 -0.1091 -0.3750
    3CHL1   C19  188   5.066   5.413   9.861  0.5874 -0.9823  0.4429
    3CHL1  H19A  189   5.090   5.443   9.966  1.3579  0.9629 -0.2471
    3CHL1  H19B  190   5.168   5.376   9.837  0.6978 -1.2011  1.2080
    3CHL1  H19C  191   5.033   5.506   9.811  1.0969 -1.7373 -1.3686
    3CHL1    C1  192   4.820   5.342   9.926 -0.8138 -0.0227 -0.4865
    3CHL1   H1A  193   4.780   5.440   9.894 -1.4089  0.6300  2.0479
    3CHL1   H1B  194   4.746   5.264   9.898 -0.4942 -0.6535  0.3908
    3CHL1    C2  195   4.830   5.353  10.081 -0.4069  0.1473  0.1903
    3CHL1   H2A  196   4.729   5.382  10.118 -0.3961 -1.6102  1.7977
    3CHL1   H2B  197   4.907   5.429  10.103  0.3674 -1.1329  2.1265
    3CHL1   C20  198   5.013   5.306   9.163  0.9658  0.1574  0.2331
    3CHL1   H20  199   5.109   5.361   9.176 -0.0441  1.9915  0.2879
    3CHL1   C21  200   4.909   5.419   9.163  0.7877  0.3084  0.2303
    3CHL1  H21A  201   4.805   5.380   9.166  1.2350 -1.1355 -1.4251
    3CHL1  H21B  202   4.910   5.479   9.069 -0.0410  0.6312  0.4181
    3CHL1  H21C  203   4.932   5.485   9.249 -0.7503  0.3953  0.6149
    3CHL1   C22  204   5.031   5.240   9.021  0.2366  0.2374 -0.9163
    3CHL1  H22A  205   5.042   5.308   8.934 -0.4050 -0.1742 -1.3305
    3CHL1  H22B  206   5.122   5.178   9.024  0.6456  0.8752  0.6107
    3CHL1   C23  207   4.918   5.147   8.979  0.3228  0.6964 -0.6672
    3CHL1  H23A  208   4.930   5.060   9.046  2.4209  1.7088  0.3622
    3CHL1  H23B  209   4.813   5.182   8.993 -0.2999 -1.7117  1.4160
    3CHL1   C24  210   4.938   5.101   8.828  0.3932 -0.0705 -0.6810
    3CHL1  H24A  211   4.893   5.176   8.759 -1.5249  0.3218  0.8850
    3CHL1  H24B  212   5.048   5.096   8.819  0.4089 -2.4149  0.1833
    3CHL1   C25  213   4.878   4.962   8.788  0.4710 -0.3264  0.1346
    3CHL1   H25  214   4.933   4.876   8.831  1.2130  0.4256  0.7181
    3CHL1   C26  215   4.731   4.960   8.830 -0.3163 -0.3127 -0.6088
    3CHL1  H26A  216   4.680   5.038   8.769  0.7573  1.5094  0.7025
    3CHL1  H26B  217   4.686   4.864   8.797  0.5861 -1.0901  0.3441
    3CHL1  H26C  218   4.705   4.979   8.937 -1.3700  2.0026 -1.2116
    3CHL1   C27  219   4.896   4.943   8.640  0.2683  0.2331 -0.1362
    3CHL1  H27A  220   4.839   5.027   8.594  0.6811  1.1922  1.0482
    3CHL1  H27B  221   5.006   4.948   8.624  0.5631  0.4742  1.7937
    3CHL1  H27C  222   4.859   4.840   8.622  0.1790  0.0487  1.0174
    4CHL1    C3  223   5.296   0.408  10.282 -0.1488 -0.6746 -0.7753
    4CHL1    H3  224   5.405   0.413  10.261  0.0609 -1.3327  0.1198
    4CHL1    O3  225   5.269   0.414  10.423 -0.4355 -0.5076 -0.3186
    4CHL1   H3'  226   5.276   0.505  10.452  0.3338  0.0103 -1.9610
    4CHL1    C4  227   5.213   0.517  10.215  0.1649 -0.2948 -0.2374
    4CHL1   H4A  228   5.108   0.494  10.242  0.8668 -1.0889  2.0521
    4CHL1   H4B  229   5.231   0.616  10.262 -0.0637 -0.6435  0.6128
    4CHL1    C5  230   5.238   0.511  10.068 -0.4286 -0.5075 -0.1396
    4CHL1    C6  231   5.286   0.616  10.001 -0.5429 -0.5552  0.2439
    4CHL1    H6  232   5.296   0.712  10.053 -0.4627 -0.2665 -0.2888
    4CHL1    C7  233   5.310   0.613   9.854 -0.1757  0.0901 -0.1947
    4CHL1   H7A  234   5.269   0.706   9.810  0.1511  1.2516  1.8521
    4CHL1   H7B  235   5.419   0.615   9.836  1.0990 -3.1759  5.0097
    4CHL1    C8  236   5.246   0.493   9.778 -0.3456  0.8112  0.8142
    4CHL1    H8  237   5.140   0.518   9.752 -0.7024  1.4511  2.7469
    4CHL1   C14  238   5.311   0.473   9.640  0.1634 -0.5385 -0.1577
    4CHL1   H14  239   5.419   0.456   9.659  0.0211 -0.7780  0.4523
    4CHL1   C15  240   5.300   0.602   9.553  0.6934 -0.2760 -0.0154
    4CHL1  H15A  241   5.201   0.650   9.550  1.1150  0.6775  0.8392
    4CHL1  H15B  242   5.381   0.669   9.588  2.0315 -0.1028 -3.1184
    4CHL1   C16  243   5.341   0.541   9.417  0.3829 -0.1253 -0.0782
    4CHL1  H16A  244   5.285   0.596   9.338  2.4101  2.4534  0.1515
    4CHL1  H16B  245   5.447   0.572   9.409  0.4357 -0.1735  0.4190
    4CHL1   C17  246   5.327   0.382   9.425 -0.4625 -0.4959 -0.4000
    4CHL1   H17  247   5.431   0.355   9.453  0.7054  1.6690 -2.2256
    4CHL1   C13  248   5.253   0.353   9.557  0.1282 -0.3811  0.1107
    4CHL1   C18  249   5.098   0.368   9.534 -0.4856  0.6122 -0.0546
    4CHL1  H18A  250   5.059   0.379   9.638  0.1787  1.0204  0.1566
    4CHL1  H18B  251   5.077   0.466   9.485 -2.0830 -0.4670 -1.6610
    4CHL1  H18C  252   5.044   0.286   9.482  1.7829 -1.6954  1.0630
    4CHL1   C12  253   5.289   0.232   9.636 -0.3113 -0.3408  0.0810
    4CHL1  H12A  254   5.268   0.137   9.584  0.0489 -1.7960  2.4348
    4CHL1  H12B  255   5.400   0.230   9.647 -0.1150  3.0645 -0.2851
    4CHL1   C11  256   5.222   0.235   9.776  0.6956 -0.3746  0.5741
    4CHL1  H11A  257   5.112   0.234   9.761  0.8949  0.3727 -1.3346
    4CHL1  H11B  258   5.238   0.139   9.829  2.6146 -0.0882  0.5734
    4CHL1    C9  259   5.270   0.363   9.853 -0.3046 -0.2251 -0.9064
    4CHL1    H9  260   5.380   0.345   9.856 -0.0308  1.4565  0.8669
    4CHL1   C10  261   5.216   0.377  10.001  0.0388  0.7884  0.2997
    4CHL1   C19  262   5.065   0.344  10.009 -0.2183 -0.3146 -0.4265
    4CHL1  H19A  263   5.006   0.426   9.964 -1.0375 -0.1575  0.9089
    4CHL1  H19B  264   5.043   0.245   9.962  1.4759 -0.4437 -1.0275
    4CHL1  H19C  265   5.024   0.337  10.111  0.1627 -0.5536 -0.2871
    4CHL1    C1  266   5.287   0.266  10.087  0.6929 -0.6091  0.5310
    4CHL1   H1A  267   5.261   0.172  10.035 -1.0482  0.8586 -1.4224
    4CHL1   H1B  268   5.396   0.277  10.072  0.8600 -2.0576  0.5648
    4CHL1    C2  269   5.254   0.272  10.233 -0.0552 -0.5793 -0.3787
    4CHL1   H2A  270   5.313   0.191  10.281  1.3116  1.1362  0.9510
    4CHL1   H2B  271   5.149   0.250  10.264  0.2159 -0.0040  1.0472
    4CHL1   C20  272   5.276   0.330   9.284  0.8447 -0.3745 -0.0054
    4CHL1   H20  273   5.174   0.374   9.280  0.2909 -1.5121  0.7946
    4CHL1   C21  274   5.282   0.170   9.281 -0.0408 -0.0517 -0.4838
    4CHL1  H21A  275   5.228   0.130   9.369  1.3560  0.5097  0.6640
    4CHL1  H21B  276   5.387   0.133   9.285  0.9940  2.4938 -2.0383
    4CHL1  H21C  277   5.220   0.136   9.195 -0.3087 -2.2975  0.5149
    4CHL1   C22  278   5.348   0.384   9.160  0.0300 -0.2240 -0.5048
    4CHL1  H22A  279   5.358   0.495   9.154  0.5982 -0.2719 -0.4385
    4CHL1  H22B  280   5.448   0.337   9.174  0.4989  0.8258 -0.2321
    4CHL1   C23  281   5.298   0.335   9.022  0.1356 -0.8616  0.3552
    4CHL1  H23A  282   5.327   0.229   9.005 -1.1360 -0.9641 -1.3867
    4CHL1  H23B  283   5.187   0.339   9.018  0.1109 -1.7778 -0.2418
    4CHL1   C24  284   5.373   0.411   8.906  0.0946 -0.6020  0.1142
    4CHL1  H24A  285   5.324   0.509   8.888 -0.9430 -1.1176  0.0587
    4CHL1  H24B  286   5.480   0.432   8.927 -0.0134 -1.4550  1.6188
    4CHL1   C25  287   5.368   0.329   8.771  0.4266  0.3144 -0.1962
    4CHL1   H25  288   5.390   0.221   8.783 -1.0126  0.1094  0.7553
    4CHL1   C26  289   5.233   0.342   8.702  0.4918  0.6335 -0.2061
    4CHL1  H26A  290   5.202   0.445   8.673 -1.1159  0.2084 -0.0854
    4CHL1  H26B  291   5.233   0.289   8.605  2.4408  0.2656 -0.0366
    4CHL1  H26C  292   5.154   0.295   8.766 -0.6506 -0.3443 -2.2433
    4CHL1   C27  293   5.480   0.386   8.680  0.6380 -0.2758 -0.3798
    4CHL1  H27A  294   5.476   0.334   8.582  0.4313 -1.2601  0.1379
    4CHL1  H27B  295   5.445   0.491   8.669 -1.0094 -0.8658 -1.1007
    4CHL1  H27C  296   5.579   0.377   8.729  0.3157  0.9274  0.5409
    5CHL1    C3  297   5.509   4.872   9.982  0.1226 -1.0120  0.2352
    5CHL1    H3  298   5.607   4.924   9.985  0.9910 -2.5977  0.6963
    5CHL1    O3  299   5.459   4.871  10.113  0.1508  1.1402  0.4159
    5CHL1   H3'  300   5.533   4.837  10.164  1.2302  2.2741 -0.3360
    5CHL1    C4  301   5.414   4.949   9.883  0.0006 -0.8206 -0.0602
    5CHL1   H4A  302   5.315   4.900   9.891 -0.5360  0.4269  1.3896
    5CHL1   H4B  303   5.401   5.049   9.929  0.9812 -0.8812  0.3763
    5CHL1    C5  304   5.466   4.951   9.744  0.1144 -0.3507  0.1546
    5CHL1    C6  305   5.474   5.058   9.663  0.4025 -0.3062 -0.6867
    5CHL1    H6  306   5.440   5.160   9.690  0.0177 -0.4480 -0.6369
    5CHL1    C7  307   5.512   5.060   9.522  0.4520 -0.2705 -0.1945
    5CHL1   H7A  308   5.456   5.129   9.456 -1.5397 -1.7604 -0.1693
    5CHL1   H7B  309   5.616   5.098   9.515  0.8489 -1.3619 -0.4371
    5CHL1    C8  310   5.510   4.915   9.454 -0.2546 -0.6158  1.1212
    5CHL1    H8  311   5.406   4.882   9.431  0.2065 -2.0091  0.9408
    5CHL1   C14  312   5.602   4.914   9.328 -0.3300 -0.3055 -0.0510
    5CHL1   H14  313   5.707   4.928   9.361  0.0114 -0.5221 -1.0165
    5CHL1   C15  314   5.574   5.019   9.226  0.2411  0.1059  0.6799
    5CHL1  H15A  315   5.471   5.035   9.186 -0.4919 -0.2041  2.3620
    5CHL1  H15B  316   5.616   5.118   9.252 -1.9761  1.6392 -1.1515
    5CHL1   C16  317   5.665   4.972   9.110  0.0996 -0.5249  0.1039
    5CHL1  H16A  318   5.609   4.983   9.015 -0.0789 -1.1966  0.1252
    5CHL1  H16B  319   5.755   5.036   9.097 -0.3123  0.6124  2.2947
    5CHL1   C17  320   5.701   4.822   9.137 -0.3168  0.6041  0.7629
    5CHL1   H17  321   5.805   4.813   9.174 -0.9610  0.7926  2.7008
    5CHL1   C13  322   5.601   4.780   9.252 -0.0522 -0.1620  0.0871
    5CHL1   C18  323   5.456   4.746   9.207  0.0082 -0.1552  1.1786
    5CHL1  H18A  324   5.419   4.815   9.127 -0.5307 -2.0937 -0.3192
    5CHL1  H18B  325   5.448   4.645   9.162  0.4271  0.4416 -0.3220
    5CHL1  H18C  326   5.385   4.739   9.292 -0.3995 -0.2687  0.8303
    5CHL1   C12  327   5.653   4.667   9.353  0.1424 -0.6326 -0.2474
    5CHL1  H12A  328   5.649   4.568   9.303 -1.3886 -0.5618 -0.3117
    5CHL1  H12B  329   5.759   4.683   9.382 -0.1801  0.0766  0.5604
    5CHL1   C11  330   5.567   4.668   9.482  0.0077 -0.2189  0.9193
    5CHL1  H11A  331   5.465   4.626   9.464 -0.2607  1.1848 -1.1345
    5CHL1  H11B  332   5.625   4.595   9.542  2.1051 -0.8525 -1.7134
    5CHL1    C9  333   5.564   4.804   9.551  0.0950 -0.4716 -0.1355
    5CHL1    H9  334   5.672   4.820   9.570 -0.0966 -1.2578  1.8538
    5CHL1   C10  335   5.492   4.807   9.692  0.3279 -0.4382 -0.2264
    5CHL1   C19  336   5.356   4.740   9.670 -0.6802  0.0404 -0.1289
    5CHL1  H19A  337   5.370   4.632   9.650 -1.4433  0.0766 -0.9513
    5CHL1  H19B  338   5.296   4.739   9.763  0.6346 -1.2213  0.7403
    5CHL1  H19C  339   5.296   4.799   9.597 -0.0243  2.1783  0.9781
    5CHL1    C1  340   5.593   4.741   9.789 -1.0442 -0.8893  0.8387
    5CHL1   H1A  341   5.613   4.639   9.750 -2.1131  0.1384 -2.8616
    5CHL1   H1B  342   5.687   4.800   9.788 -1.4781 -0.1883  0.2960
    5CHL1    C2  343   5.553   4.735   9.941 -0.3296  1.3499 -0.4572
    5CHL1   H2A  344   5.639   4.685   9.990 -0.7437 -0.5986 -1.5884
    5CHL1   H2B  345   5.469   4.664   9.954  0.5925  0.4183  0.5873
    5CHL1   C20  346   5.696   4.734   9.005  0.6156  0.2268 -0.3883
    5CHL1   H20  347   5.587   4.739   8.980 -0.3494 -0.1900  3.1266
    5CHL1   C21  348   5.719   4.590   9.035 -0.3313  0.2419 -0.1749
    5CHL1  H21A  349   5.804   4.579   9.105 -0.2364  1.6273 -0.0424
    5CHL1  H21B  350   5.735   4.531   8.942  2.3527 -0.6470  0.7626
    5CHL1  H21C  351   5.631   4.558   9.095  0.4223 -0.6107  0.4906
    5CHL1   C22  352   5.782   4.795   8.884 -0.7956  0.4004  0.4522
    5CHL1  H22A  353   5.762   4.904   8.887  1.9259  1.1121 -2.4089
    5CHL1  H22B  354   5.892   4.791   8.901 -0.7771  0.7014  0.4073
    5CHL1   C23  355   5.745   4.735   8.746  0.5229  0.2364 -0.1087
    5CHL1  H23A  356   5.743   4.624   8.752 -1.3408  0.2268 -0.3302
    5CHL1  H23B  357   5.643   4.760   8.710 -0.7277 -0.0594  2.9888
    5CHL1   C24  358   5.839   4.788   8.641 -0.3740 -0.0094 -0.3893
    5CHL1  H24A  359   5.822   4.894   8.614 -0.8866 -0.8095 -3.6211
    5CHL1  H24B  360   5.942   4.768   8.677 -0.8952 -0.7443  0.7443
    5CHL1   C25  361   5.821   4.726   8.500 -0.5890 -0.0082 -0.1579
    5CHL1   H25  362   5.846   4.619   8.517  1.4228  0.6546  1.4080
    5CHL1   C26  363   5.679   4.740   8.450 -0.8724  0.3844 -0.2098
    5CHL1  H26A  364   5.600   4.686   8.507  0.3961  0.6753  1.9430
    5CHL1  H26B  365   5.656   4.848   8.459  1.4560  0.8837  0.4109
    5CHL1  H26C  366   5.679   4.715   8.342 -1.2534  0.4424 -0.2260
    5CHL1   C27  367   5.918   4.782   8.401 -0.3138  0.0263  0.1062
    5CHL1  H27A  368   6.023   4.770   8.434  0.5648 -0.5852 -2.6410
    5CHL1  H27B  369   5.920   4.732   8.302  1.0002 -0.8657  0.5604
    5CHL1  H27C  370   5.886   4.887   8.387  0.6351  0.1552 -1.3478
    6CHL1    C3  371   3.754   3.316  10.197  1.4188 -0.1057 -0.2749
    6CHL1    H3  372   3.682   3.237  10.167  1.6603  0.1290 -1.5440
    6CHL1    O3  373   3.742   3.342  10.337  0.5001 -0.1135 -0.2500
    6CHL1   H3'  374   3.706   3.428  10.357 -0.5007 -0.3172 -1.0818
    6CHL1    C4  375   3.892   3.271  10.161  0.2077  0.5967  0.1860
    6CHL1   H4A  376   3.974   3.328  10.211 -1.4717  2.4748  0.9351
    6CHL1   H4B  377   3.894   3.174  10.214 -1.5438  0.8547  0.7727
    6CHL1    C5  378   3.919   3.245  10.015 -0.4083  0.2359  0.6341
    6CHL1    C6  379   3.948   3.121   9.960  0.9735  0.2834 -0.5895
    6CHL1    H6  380   3.959   3.030  10.022 -1.2025  1.2083  1.3121
    6CHL1    C7  381   3.989   3.100   9.818 -0.0636 -0.2639  0.0902
    6CHL1   H7A  382   4.087   3.048   9.825  0.4254  0.7333  0.8587
    6CHL1   H7B  383   3.910   3.035   9.775  0.5147  0.3026 -1.9514
    6CHL1    C8  384   4.004   3.236   9.741  0.0558  0.3641  0.1764
    6CHL1    H8  385   4.098   3.285   9.774 -0.1800  2.0350 -1.4242
    6CHL1   C14  386   4.008   3.206   9.593  0.3312 -0.0661 -0.4516
    6CHL1   H14  387   3.909   3.165   9.565  0.3684 -1.5137  1.3545
    6CHL1   C15  388   4.117   3.114   9.540  0.4049  0.0579 -0.5098
    6CHL1  H15A  389   4.212   3.126   9.596 -0.3798 -1.0069  1.1399
    6CHL1  H15B  390   4.099   3.005   9.546 -0.6827  0.0789 -2.4132
    6CHL1   C16  391   4.132   3.151   9.387  0.3179 -0.1854  0.3758
    6CHL1  H16A  392   4.240   3.170   9.370  0.4615 -0.6451  0.7505
    6CHL1  H16B  393   4.106   3.066   9.320 -0.4306 -0.1281  0.5910
    6CHL1   C17  394   4.044   3.270   9.365  0.4793 -0.0081 -0.4031
    6CHL1   H17  395   3.951   3.228   9.320  1.1776 -0.3140 -1.5877
    6CHL1   C13  396   4.017   3.328   9.509  0.5901  0.2303 -0.8019
    6CHL1   C18  397   4.136   3.419   9.544  0.0478 -0.0901 -0.7868
    6CHL1  H18A  398   4.229   3.375   9.500  0.1093  0.8165 -1.5894
    6CHL1  H18B  399   4.131   3.517   9.493  3.0115  0.2285 -0.6352
    6CHL1  H18C  400   4.154   3.436   9.652 -0.2615  0.4896 -0.8246
    6CHL1   C12  401   3.882   3.402   9.542 -0.2889  0.4770 -0.3575
    6CHL1  H12A  402   3.878   3.491   9.476 -1.5633  0.6185 -0.1168
    6CHL1  H12B  403   3.793   3.337   9.529  0.6377 -0.5564 -1.8456
    6CHL1   C11  404   3.872   3.449   9.683  0.0637 -0.0084  0.4635
    6CHL1  H11A  405   3.949   3.528   9.698 -0.2842 -0.0305  2.6562
    6CHL1  H11B  406   3.776   3.503   9.695  0.8939  0.9921  3.5126
    6CHL1    C9  407   3.893   3.330   9.782  0.7279  0.1840  0.2011
    6CHL1    H9  408   3.802   3.270   9.760 -0.0505  2.1291 -2.4705
    6CHL1   C10  409   3.895   3.365   9.935  0.0025  0.8255 -0.1255
    6CHL1   C19  410   3.994   3.474   9.958 -0.0791  0.0530 -0.6482
    6CHL1  H19A  411   3.962   3.563   9.899 -0.2103 -0.1237 -0.8455
    6CHL1  H19B  412   3.994   3.494  10.067 -2.3027  2.1463 -0.9479
    6CHL1  H19C  413   4.097   3.444   9.926 -0.1166 -0.1929 -0.5442
    6CHL1    C1  414   3.747   3.415   9.973 -0.6977  0.0372 -0.1978
    6CHL1   H1A  415   3.714   3.499   9.908  0.1552  0.5071 -0.0310
    6CHL1   H1B  416   3.676   3.331   9.955  1.8849 -2.2467 -0.3197
    6CHL1    C2  417   3.723   3.444  10.117  0.6714 -0.1042 -0.2708
    6CHL1   H2A  418   3.617   3.468  10.139  1.2267 -0.2796  3.2467
    6CHL1   H2B  419   3.786   3.525  10.160  1.2455 -0.7424  0.1156
    6CHL1   C20  420   4.091   3.371   9.254 -0.1241  0.1397  0.5082
    6CHL1   H20  421   4.185   3.419   9.287  0.8988  0.8423 -3.0146
    6CHL1   C21  422   3.989   3.487   9.225  0.2189 -0.2677  0.1477
    6CHL1  H21A  423   3.978   3.560   9.309 -1.1936 -0.9405  0.5823
    6CHL1  H21B  424   3.885   3.451   9.210  0.1481  0.7389 -2.1112
    6CHL1  H21C  425   4.024   3.550   9.140  0.4202  0.1705  0.5454
    6CHL1   C22  426   4.144   3.313   9.119  0.0108  0.1481  0.4264
    6CHL1  H22A  427   4.174   3.399   9.055  1.0107 -0.4995  0.0006
    6CHL1  H22B  428   4.240   3.259   9.134  0.3974 -0.6352 -3.7160
    6CHL1   C23  429   4.043   3.216   9.050  0.1195 -0.0968  0.2111
    6CHL1  H23A  430   4.022   3.135   9.123 -1.3713  0.8117  0.8254
    6CHL1  H23B  431   3.952   3.273   9.022  3.0152  4.9994 -0.0874
    6CHL1   C24  432   4.099   3.147   8.924 -0.1595  0.2810  0.0492
    6CHL1  H24A  433   4.055   3.200   8.837  0.5949  0.7744 -0.0404
    6CHL1  H24B  434   4.207   3.172   8.916  0.5281 -2.6700 -1.5745
    6CHL1   C25  435   4.062   2.992   8.916  0.0240 -0.8198  0.0462
    6CHL1   H25  436   3.954   2.992   8.942 -0.0128  1.6306  0.1489
    6CHL1   C26  437   4.075   2.926   8.773  0.3074  0.0794 -0.2675
    6CHL1  H26A  438   4.179   2.896   8.749  0.0185  0.5310 -2.1902
    6CHL1  H26B  439   4.021   2.829   8.770 -1.0534  0.7825  0.5069
    6CHL1  H26C  440   4.041   3.000   8.698  0.9481  1.3857  0.6805
    6CHL1   C27  441   4.140   2.907   9.019  0.7240  0.3608  0.4201
    6CHL1  H27A  442   4.107   2.802   9.005  0.6054  0.3941  0.4511
    6CHL1  H27B  443   4.249   2.900   8.998  1.5139  1.8554  3.5123
    6CHL1  H27C  444   4.131   2.928   9.127 -2.0656 -1.5866  0.6682
    7CHL1    C3  445   5.168   6.320  10.248 -0.0196 -0.8960 -0.0812
    7CHL1    H3  446   5.073   6.363  10.212  0.0616 -0.6973 -0.0593
    7CHL1    O3  447   5.159   6.312  10.388 -0.4959  0.6552 -0.3050
    7CHL1   H3'  448   5.246   6.281  10.415 -1.1749 -0.2673  0.9334
    7CHL1    C4  449   5.193   6.187  10.185 -0.0645  0.0949  0.0797
    7CHL1   H4A  450   5.293   6.154  10.220  0.2543  0.9990  0.0642
    7CHL1   H4B  451   5.125   6.111  10.229 -0.7263  0.9911  0.6378
    7CHL1    C5  452   5.203   6.185  10.039  0.4320  0.6011 -0.0376
    7CHL1    C6  453   5.120   6.107   9.972 -0.1696 -0.0444 -0.0663
    7CHL1    H6  454   5.055   6.041  10.031  0.1823  0.6039  1.0889
    7CHL1    C7  455   5.109   6.096   9.820  0.6418  0.0364  0.0018
    7CHL1   H7A  456   5.133   5.996   9.777  0.8087 -0.2791  0.8041
    7CHL1   H7B  457   5.015   6.146   9.790 -0.6851 -0.9648  2.2673
    7CHL1    C8  458   5.224   6.183   9.756 -0.1808  0.8509  0.4152
    7CHL1    H8  459   5.313   6.116   9.758 -1.2058 -0.6510 -1.0936
    7CHL1   C14  460   5.198   6.219   9.611  0.1910  0.1044 -0.1936
    7CHL1   H14  461   5.101   6.273   9.604  0.3421  0.4489  0.3321
    7CHL1   C15  462   5.173   6.101   9.513  0.6225  0.9025 -0.1746
    7CHL1  H15A  463   5.248   6.026   9.545 -0.7401  0.6420  2.6795
    7CHL1  H15B  464   5.076   6.053   9.538  2.2959 -2.0993  1.1341
    7CHL1   C16  465   5.194   6.151   9.372 -0.0543 -0.5583  0.5816
    7CHL1  H16A  466   5.244   6.093   9.291  0.6256  1.7430 -0.7575
    7CHL1  H16B  467   5.090   6.175   9.341  0.1919  0.3421  0.4215
    7CHL1   C17  468   5.257   6.298   9.387 -0.3646 -0.1576  0.3635
    7CHL1   H17  469   5.188   6.383   9.365 -0.4852 -0.5160 -0.7092
    7CHL1   C13  470   5.298   6.301   9.537 -0.0049 -0.2740 -0.3808
    7CHL1   C18  471   5.438   6.228   9.539 -0.0180 -0.1097 -0.4419
    7CHL1  H18A  472   5.523   6.287   9.500 -1.0769  0.1954 -2.4233
    7CHL1  H18B  473   5.475   6.203   9.641  2.1420 -0.9522 -1.3610
    7CHL1  H18C  474   5.424   6.129   9.490  3.5223 -0.9461 -0.0695
    7CHL1   C12  475   5.295   6.439   9.613 -0.2924  0.5313  0.2846
    7CHL1  H12A  476   5.362   6.515   9.566  1.7468 -0.9680  0.6372
    7CHL1  H12B  477   5.192   6.479   9.614 -1.0359 -1.2984  1.1105
    7CHL1   C11  478   5.335   6.421   9.755  0.2999 -0.1410  0.1534
    7CHL1  H11A  479   5.442   6.390   9.764 -0.4565 -2.5274  2.0323
    7CHL1  H11B  480   5.322   6.520   9.803 -0.1718 -0.8242  1.4892
    7CHL1    C9  481   5.255   6.314   9.830  0.0791 -0.6099  0.4339
    7CHL1    H9  482   5.161   6.371   9.840  0.0106 -0.3519 -1.3149
    7CHL1   C10  483   5.302   6.286   9.970  0.3149  0.1662 -0.1767
    7CHL1   C19  484   5.445   6.231   9.972  0.1721 -0.3796  0.1884
    7CHL1  H19A  485   5.523   6.310   9.968 -0.8566  0.6020 -1.1491
    7CHL1  H19B  486   5.457   6.182  10.071  1.8141 -1.1434 -0.3538
    7CHL1  H19C  487   5.466   6.157   9.892 -2.1155  0.5712 -1.3920
    7CHL1    C1  488   5.299   6.424  10.051 -0.2761 -0.0395 -0.3936
    7CHL1   H1A  489   5.392   6.475  10.017 -1.4102  0.3510 -3.1857
    7CHL1   H1B  490   5.215   6.483  10.009 -0.3587 -0.5022 -0.8970
    7CHL1    C2  491   5.286   6.420  10.205  0.9723 -0.7424  0.0382
    7CHL1   H2A  492   5.262   6.523  10.239  1.2458  0.4413 -2.9845
    7CHL1   H2B  493   5.376   6.393  10.263  0.9696  1.9200  1.4346
    7CHL1   C20  494   5.368   6.321   9.276  0.3405  0.3243 -0.2162
    7CHL1   H20  495   5.449   6.249   9.299 -0.2214 -0.0314  0.6960
    7CHL1   C21  496   5.412   6.462   9.293 -0.5754 -0.2951  0.0479
    7CHL1  H21A  497   5.461   6.488   9.390  1.9453  1.8318 -1.6450
    7CHL1  H21B  498   5.323   6.528   9.282 -0.4847 -0.1247  0.3324
    7CHL1  H21C  499   5.484   6.487   9.212 -0.5557  0.3722  0.2640
    7CHL1   C22  500   5.324   6.298   9.128  0.4988 -0.7271 -1.0201
    7CHL1  H22A  501   5.404   6.321   9.054 -0.8321 -0.5096 -2.4297
    7CHL1  H22B  502   5.292   6.192   9.132 -0.9263 -0.2738  0.4270
    7CHL1   C23  503   5.188   6.363   9.092 -0.2672 -0.4234 -0.3991
    7CHL1  H23A  504   5.111   6.334   9.166  0.6164 -1.2588  0.2207
    7CHL1  H23B  505   5.201   6.473   9.098 -0.7198 -0.4316  1.2286
    7CHL1   C24  506   5.136   6.328   8.953 -0.2095  0.2835 -0.7348
    7CHL1  H24A  507   5.196   6.378   8.874  1.5125  2.6725  1.9015
    7CHL1  H24B  508   5.150   6.218   8.951  0.8819  0.3997 -0.3037
    7CHL1   C25  509   4.988   6.354   8.924  0.0277  0.1006  0.4588
    7CHL1   H25  510   4.925   6.295   8.994  0.9573 -1.7793 -0.2509
    7CHL1   C26  511   4.951   6.497   8.925  0.5802  0.5520 -0.2115
    7CHL1  H26A  512   4.979   6.544   8.829  1.0556  2.2436  0.7061
    7CHL1  H26B  513   4.845   6.517   8.950  0.4687  0.7928 -0.8587
    7CHL1  H26C  514   5.014   6.546   9.002  0.4196  0.4029  0.0162
    7CHL1   C27  515   4.960   6.291   8.789  0.2549  0.2352 -0.2560
    7CHL1  H27A  516   4.986   6.184   8.775 -1.1070 -0.4322  1.7963
    7CHL1  H27B  517   4.852   6.309   8.771 -0.1041 -1.1365  0.3734
    7CHL1  H27C  518   5.016   6.349   8.712 -1.0874 -0.1123 -1.5653
    8CHL1    C3  519   6.416   0.737  10.199 -0.1569  0.1722 -0.8282
    8CHL1    H3  520   6.494   0.667  10.162  1.3164  0.8211  0.9015
    8CHL1    O3  521   6.415   0.742  10.340  0.1500  0.5169  0.4057
    8CHL1   H3'  522   6.501   0.706  10.361 -0.2329 -3.8299 -3.7199
    8CHL1    C4  523   6.443   0.873  10.120  0.9903  1.0257 -0.0080
    8CHL1   H4A  524   6.363   0.947  10.142 -0.8087 -0.5787 -0.8274
    8CHL1   H4B  525   6.544   0.909  10.151  1.8964 -0.4085 -1.1829
    8CHL1    C5  526   6.433   0.851   9.970 -0.5533  0.8048 -0.5832
    8CHL1    C6  527   6.545   0.866   9.895  0.4100 -0.5559 -0.1120
    8CHL1    H6  528   6.635   0.903   9.946  0.6429 -0.8679 -0.2963
    8CHL1    C7  529   6.552   0.867   9.745  0.0845  0.3445 -0.2041
    8CHL1   H7A  530   6.601   0.954   9.697 -1.2276  1.0361 -0.3556
    8CHL1   H7B  531   6.609   0.775   9.721  0.0146  0.3012 -0.2070
    8CHL1    C8  532   6.416   0.850   9.687  0.3344  0.4409 -0.4360
    8CHL1    H8  533   6.387   0.958   9.684  2.4078  1.0196 -1.6869
    8CHL1   C14  534   6.417   0.810   9.539  0.0344  0.8944 -0.3558
    8CHL1   H14  535   6.455   0.706   9.544  1.2555  1.3577  0.4090
    8CHL1   C15  536   6.510   0.886   9.450 -0.1791 -0.2214 -0.2807
    8CHL1  H15A  537   6.507   0.997   9.458  1.1804 -0.2250  0.7953
    8CHL1  H15B  538   6.615   0.852   9.466 -0.3897 -0.8417 -0.1710
    8CHL1   C16  539   6.462   0.856   9.306 -0.0684 -0.3591 -0.3165
    8CHL1  H16A  540   6.440   0.949   9.250 -1.5246 -1.5712 -1.8452
    8CHL1  H16B  541   6.541   0.796   9.256  0.4438 -0.3579  0.4623
    8CHL1   C17  542   6.336   0.763   9.315 -0.2438  0.0078  0.4803
    8CHL1   H17  543   6.376   0.661   9.327  1.3234  0.5454  0.0567
    8CHL1   C13  544   6.282   0.799   9.459 -1.0930  0.2578  0.3508
    8CHL1   C18  545   6.211   0.937   9.455  0.1515 -0.7082 -0.7007
    8CHL1  H18A  546   6.110   0.915   9.415  0.4982 -0.8665 -1.5091
    8CHL1  H18B  547   6.204   0.984   9.555  2.0524  0.6364 -1.1460
    8CHL1  H18C  548   6.264   1.003   9.383  1.9159 -1.6074 -0.2731
    8CHL1   C12  549   6.197   0.698   9.536  0.2648  0.4016  0.9066
    8CHL1  H12A  550   6.100   0.688   9.484  0.8472 -1.8760  0.1496
    8CHL1  H12B  551   6.249   0.601   9.523 -2.1842 -0.6377 -2.3308
    8CHL1   C11  552   6.188   0.725   9.683  0.1599  0.1451 -0.1651
    8CHL1  H11A  553   6.110   0.804   9.688  1.3307  1.4147 -0.9752
    8CHL1  H11B  554   6.147   0.643   9.746  2.7602 -1.5034 -0.4830
    8CHL1    C9  555   6.315   0.760   9.763  0.3023  0.0377 -0.3782
    8CHL1    H9  556   6.374   0.666   9.762  0.6612  0.2537  0.1105
    8CHL1   C10  557   6.302   0.792   9.915  1.1649  0.2133 -0.0801
    8CHL1   C19  558   6.196   0.904   9.914  1.0709 -0.0232 -0.0583
    8CHL1  H19A  559   6.229   0.984   9.844  1.8918  1.5518  2.0019
    8CHL1  H19B  560   6.093   0.865   9.897  0.4724  1.6178 -0.3690
    8CHL1  H19C  561   6.198   0.958  10.012  1.4642 -0.4498  0.1753
    8CHL1    C1  562   6.268   0.658  10.000  0.3260  0.1504  0.2828
    8CHL1   H1A  563   6.158   0.643   9.991  0.0985  1.5518  0.4948
    8CHL1   H1B  564   6.324   0.565   9.977 -0.5846 -0.5429  0.8036
    8CHL1    C2  565   6.273   0.684  10.149  0.0325 -0.2439  0.1994
    8CHL1   H2A  566   6.271   0.583  10.195  1.1095 -1.1193 -1.5910
    8CHL1   H2B  567   6.192   0.758  10.171  0.0146 -0.1133 -0.3002
    8CHL1   C20  568   6.239   0.770   9.193  0.2451 -0.6583  0.5843
    8CHL1   H20  569   6.178   0.863   9.192  1.5852  0.2648 -1.4320
    8CHL1   C21  570   6.146   0.648   9.197 -0.1663  0.5053 -0.0842
    8CHL1  H21A  571   6.076   0.656   9.111  0.1049 -0.0178 -0.3627
    8CHL1  H21B  572   6.078   0.663   9.283 -2.2695  0.3276 -1.6301
    8CHL1  H21C  573   6.204   0.554   9.210  0.0017  0.0966 -3.0903
    8CHL1   C22  574   6.324   0.783   9.065 -0.1109  0.1814 -0.1186
    8CHL1  H22A  575   6.390   0.871   9.059  1.1728 -0.8435 -2.3222
    8CHL1  H22B  576   6.386   0.691   9.064 -0.0176  0.2341  0.4354
    8CHL1   C23  577   6.249   0.786   8.930  0.1754  0.3464 -0.0331
    8CHL1  H23A  578   6.208   0.689   8.894 -1.1526  0.9203 -0.1390
    8CHL1  H23B  579   6.167   0.861   8.930  1.9996  2.4274  0.6804
    8CHL1   C24  580   6.344   0.822   8.814 -0.6302 -0.3994  0.6431
    8CHL1  H24A  581   6.415   0.900   8.850  0.2649 -0.2262 -1.3579
    8CHL1  H24B  582   6.397   0.727   8.790  0.1903  0.2757 -0.3065
    8CHL1   C25  583   6.278   0.865   8.683 -0.1081  0.1091 -0.0738
    8CHL1   H25  584   6.216   0.957   8.688 -0.3025  0.0267 -0.8653
    8CHL1   C26  585   6.390   0.905   8.578  0.4142 -0.4175  0.2406
    8CHL1  H26A  586   6.432   0.815   8.528  1.6909 -0.2389  0.9442
    8CHL1  H26B  587   6.349   0.978   8.506 -0.9011 -1.3080  0.0504
    8CHL1  H26C  588   6.469   0.944   8.646 -0.0609  0.2644  0.4099
    8CHL1   C27  589   6.194   0.753   8.631  0.2053 -0.2099  0.0548
    8CHL1  H27A  590   6.193   0.769   8.521  2.2627  0.8004  0.1292
    8CHL1  H27B  591   6.221   0.648   8.658 -0.9261 -0.5536 -0.1261
    8CHL1  H27C  592   6.089   0.767   8.664  0.0730 -1.0348  0.0160
    9CHL1    C3  593   3.932   3.780  10.260  0.2831 -0.0016  0.6395
    9CHL1    H3  594   3.920   3.675  10.225  0.4877  1.1115 -3.2912
    9CHL1    O3  595   3.948   3.781  10.403  0.2493 -0.0014 -0.0953
    9CHL1   H3'  596   3.913   3.869  10.419  0.0177  0.6078 -3.3547
    9CHL1    C4  597   4.061   3.844  10.199  0.2158 -0.1958 -0.9651
    9CHL1   H4A  598   4.062   3.943  10.249  0.3074 -1.0552  0.8052
    9CHL1   H4B  599   4.150   3.797  10.245 -0.8058 -0.7236  0.5633
    9CHL1    C5  600   4.058   3.839  10.049  0.4762 -0.5352  0.5732
    9CHL1    C6  601   4.157   3.776   9.980  0.0265  0.0128 -0.6589
    9CHL1    H6  602   4.239   3.745  10.046 -0.6904  1.3166  0.9450
    9CHL1    C7  603   4.171   3.774   9.829 -0.2101  0.2781  0.1919
    9CHL1   H7A  604   4.274   3.803   9.801  1.0754 -2.8546  1.2296
    9CHL1   H7B  605   4.160   3.670   9.790  1.3531  0.4119 -0.6488
    9CHL1    C8  606   4.068   3.874   9.758 -0.0112 -0.0510 -0.2089
    9CHL1    H8  607   4.122   3.970   9.744  0.2782 -0.2624 -0.5533
    9CHL1   C14  608   4.050   3.821   9.612  0.8773 -0.6125  0.1478
    9CHL1   H14  609   4.017   3.715   9.619  1.8093 -1.0017 -1.0272
    9CHL1   C15  610   4.175   3.811   9.516  0.0674 -0.2311  0.5932
    9CHL1  H15A  611   4.225   3.910   9.524 -2.3356  1.2267 -1.1915
    9CHL1  H15B  612   4.238   3.725   9.547 -0.5997 -0.1642  2.2245
    9CHL1   C16  613   4.107   3.806   9.380 -0.3699  0.0648  0.1268
    9CHL1  H16A  614   4.139   3.892   9.317 -1.7872 -0.0480 -0.7899
    9CHL1  H16B  615   4.125   3.715   9.320  3.2144  0.6925 -0.0047
    9CHL1   C17  616   3.955   3.829   9.395  1.0060 -0.2556 -0.4761
    9CHL1   H17  617   3.905   3.732   9.416  2.9692 -0.6574  3.0508
    9CHL1   C13  618   3.941   3.893   9.536  0.8764  1.0936 -0.6469
    9CHL1   C18  619   3.982   4.044   9.525  0.1595  0.2692 -0.6112
    9CHL1  H18A  620   4.077   4.059   9.471  0.3382  0.2447 -0.3047
    9CHL1  H18B  621   3.905   4.100   9.468  0.5094  0.1597 -1.1904
    9CHL1  H18C  622   4.001   4.092   9.624  1.4621 -0.4920 -0.4659
    9CHL1   C12  623   3.799   3.873   9.606  0.4095  0.2202  0.2184
    9CHL1  H12A  624   3.726   3.933   9.549 -0.6509 -2.0132 -0.9008
    9CHL1  H12B  625   3.758   3.770   9.597  0.4915  0.1200  0.9041
    9CHL1   C11  626   3.806   3.923   9.758 -0.6017  0.0494  0.2375
    9CHL1  H11A  627   3.802   4.034   9.754 -3.3464  0.0591  1.4298
    9CHL1  H11B  628   3.708   3.895   9.802 -0.1681 -0.0287  1.2019
    9CHL1    C9  629   3.929   3.863   9.832 -0.2023  0.2911 -0.0049
    9CHL1    H9  630   3.908   3.754   9.828 -0.1763  0.1840  1.8275
    9CHL1   C10  631   3.934   3.899   9.979  0.8890 -0.0356 -0.3398
    9CHL1   C19  632   3.918   4.053   9.977 -0.4315 -0.5857  0.0368
    9CHL1  H19A  633   3.984   4.095   9.897 -0.4648  0.1564  0.3924
    9CHL1  H19B  634   3.815   4.094   9.973  0.3259  1.3958 -1.2234
    9CHL1  H19C  635   3.962   4.085  10.073  0.5859  1.4228 -1.0317
    9CHL1    C1  636   3.803   3.842  10.053  0.1299  0.2946 -0.3233
    9CHL1   H1A  637   3.710   3.894  10.020  1.3481  1.4710 -2.0638
    9CHL1   H1B  638   3.786   3.738  10.020  0.6206  0.0335  0.2451
    9CHL1    C2  639   3.815   3.853  10.207  0.4314 -0.1667 -0.4241
    9CHL1   H2A  640   3.722   3.822  10.259  1.8123 -1.3247  1.4783
    9CHL1   H2B  641   3.835   3.960  10.231  1.2425 -0.2951 -0.4902
    9CHL1   C20  642   3.886   3.891   9.274  0.5488 -0.1410  0.3533
    9CHL1   H20  643   3.929   3.994   9.271  0.0673  0.0397 -1.1435
    9CHL1   C21  644   3.729   3.911   9.293 -0.5732 -0.1112  0.0078
    9CHL1  H21A  645   3.714   4.007   9.346 -0.6495 -0.2846  0.2981
    9CHL1  H21B  646   3.690   3.828   9.355 -1.8557  0.0001 -0.6362
    9CHL1  H21C  647   3.681   3.910   9.193  0.9442 -0.5914 -0.7473
    9CHL1   C22  648   3.906   3.832   9.131  0.4241 -0.1848 -0.0148
    9CHL1  H22A  649   4.013   3.810   9.113  0.9167  1.0732  1.1820
    9CHL1  H22B  650   3.841   3.742   9.125 -0.0141  0.1019  0.2848
    9CHL1   C23  651   3.864   3.928   9.012  0.2195  0.3087  0.2127
    9CHL1  H23A  652   3.757   3.938   8.985  0.6663  0.4288 -1.6887
    9CHL1  H23B  653   3.896   4.029   9.046 -1.4532  1.5364 -1.6382
    9CHL1   C24  654   3.946   3.888   8.889  0.0172  0.2926  0.1933
    9CHL1  H24A  655   4.041   3.945   8.882 -0.9700  1.8420 -2.2689
    9CHL1  H24B  656   3.969   3.780   8.893 -0.6166  0.1787  0.9421
    9CHL1   C25  657   3.867   3.920   8.758  0.5456  0.5789  0.1580
    9CHL1   H25  658   3.762   3.895   8.785  1.1131 -2.4229 -0.1579
    9CHL1   C26  659   3.866   4.062   8.708  0.2061 -0.2225 -0.5980
    9CHL1  H26A  660   3.813   4.124   8.784  0.5447  1.0388 -1.3696
    9CHL1  H26B  661   3.971   4.097   8.719  0.5019 -1.7304  3.1071
    9CHL1  H26C  662   3.820   4.088   8.611 -0.4956  0.0231 -0.2097
    9CHL1   C27  663   3.918   3.828   8.642  0.6523 -0.3147  0.0977
    9CHL1  H27A  664   3.909   3.723   8.678 -3.6259  0.6055  2.3819
    9CHL1  H27B  665   3.843   3.836   8.560 -0.0128 -1.5612  0.5608
    9CHL1  H27C  666   4.024   3.844   8.614  0.9348  0.2791  1.4154
   10CHL1    C3  667   1.828   0.938  10.121 -0.0583  0.6988  0.3836
   10CHL1    H3  668   1.922   0.993  10.096  0.7880 -0.8651  0.0134
   10CHL1    O3  669   1.825   0.923  10.265  0.6144  0.1937  0.5633
   10CHL1   H3'  670   1.862   1.009  10.284  0.0416  0.8521 -1.0810
   10CHL1    C4  671   1.709   1.012  10.061 -0.2228  0.8218 -0.1603
   10CHL1   H4A  672   1.610   0.969  10.089 -0.8062  2.3603  0.2442
   10CHL1   H4B  673   1.724   1.114  10.100 -0.1201  0.9756 -0.5939
   10CHL1    C5  674   1.724   1.015   9.910  0.2607 -0.4718 -0.8007
   10CHL1    C6  675   1.718   1.134   9.855  0.0207 -0.2782  0.1666
   10CHL1    H6  676   1.711   1.225   9.916 -0.8828 -1.7141  2.3466
   10CHL1    C7  677   1.713   1.155   9.705  0.4367  0.2547  0.4689
   10CHL1   H7A  678   1.632   1.229   9.690 -0.7771 -0.8823  1.1916
   10CHL1   H7B  679   1.809   1.192   9.663  0.3169 -1.2617 -1.3178
   10CHL1    C8  680   1.683   1.026   9.637 -0.4076 -0.0816 -1.0785
   10CHL1    H8  681   1.582   0.992   9.665  0.7224 -0.2271  3.7823
   10CHL1   C14  682   1.707   1.037   9.483 -0.9789  0.2215 -0.4509
   10CHL1   H14  683   1.813   1.069   9.479 -0.4529 -1.3863 -4.5439
   10CHL1   C15  684   1.644   1.151   9.408  0.2227  0.3328  0.0482
   10CHL1  H15A  685   1.539   1.176   9.434 -0.4370 -1.6986 -0.4590
   10CHL1  H15B  686   1.705   1.242   9.430  1.4490 -0.3781 -0.3057
   10CHL1   C16  687   1.656   1.117   9.260  0.1448  0.2345 -0.0411
   10CHL1  H16A  688   1.547   1.114   9.237 -0.6135 -2.1969  3.1106
   10CHL1  H16B  689   1.703   1.193   9.195 -1.4813  0.0903 -1.4753
   10CHL1   C17  690   1.719   0.976   9.257 -0.6141  0.6205  0.4989
   10CHL1   H17  691   1.828   1.000   9.253 -0.2349 -1.1771 -1.6423
   10CHL1   C13  692   1.692   0.910   9.390  0.1054  0.1245 -0.3774
   10CHL1   C18  693   1.553   0.861   9.413 -0.4929 -0.3838  0.1849
   10CHL1  H18A  694   1.467   0.930   9.395 -0.0569 -0.4699 -2.6446
   10CHL1  H18B  695   1.533   0.768   9.356  2.0058 -1.2993  0.6904
   10CHL1  H18C  696   1.544   0.812   9.512 -1.8791 -0.0159  0.2660
   10CHL1   C12  697   1.803   0.815   9.452  0.1193 -0.5780  0.1372
   10CHL1  H12A  698   1.804   0.714   9.407  2.4983 -0.9673  0.9093
   10CHL1  H12B  699   1.904   0.859   9.439 -1.2106  2.0412 -2.3748
   10CHL1   C11  700   1.784   0.788   9.601 -0.4185 -0.1883  0.2015
   10CHL1  H11A  701   1.693   0.725   9.610 -0.9635  0.5892  0.1701
   10CHL1  H11B  702   1.868   0.728   9.643 -1.2736 -0.4680  1.6009
   10CHL1    C9  703   1.777   0.914   9.693 -0.0376  1.0330 -0.0144
   10CHL1    H9  704   1.880   0.954   9.699  1.6374 -2.6627 -1.1171
   10CHL1   C10  705   1.737   0.878   9.839  0.0362 -0.5355 -0.0883
   10CHL1   C19  706   1.607   0.796   9.855 -0.1444 -0.1791 -0.5602
   10CHL1  H19A  707   1.574   0.781   9.960 -0.1266  1.7746 -0.2317
   10CHL1  H19B  708   1.519   0.828   9.795  0.4440  0.7945 -0.9316
   10CHL1  H19C  709   1.630   0.694   9.818 -2.2869 -0.8261 -0.2045
   10CHL1    C1  710   1.852   0.806   9.906  0.7691  0.0612 -0.9256
   10CHL1   H1A  711   1.870   0.706   9.862 -0.4792  0.1117 -1.6006
   10CHL1   H1B  712   1.951   0.848   9.879  1.6573 -0.7419  0.8740
   10CHL1    C2  713   1.835   0.798  10.057 -0.1221 -0.0121 -0.1238
   10CHL1   H2A  714   1.919   0.737  10.098  0.6113  0.6350 -0.6149
   10CHL1   H2B  715   1.738   0.752  10.083 -0.3816  0.5581 -0.0697
   10CHL1   C20  716   1.692   0.889   9.128  0.3453 -0.6272 -0.0102
   10CHL1   H20  717   1.585   0.859   9.133 -0.0474  0.4744 -1.1204
   10CHL1   C21  718   1.778   0.760   9.129 -0.9641  0.7127  0.2313
   10CHL1  H21A  719   1.744   0.696   9.213  0.8024  0.5698  0.8732
   10CHL1  H21B  720   1.888   0.773   9.125 -0.6801 -1.4216 -1.0144
   10CHL1  H21C  721   1.770   0.700   9.035  1.3407  1.7601 -0.7063
   10CHL1   C22  722   1.721   0.967   8.991  0.1647 -0.3381  0.3971
   10CHL1  H22A  723   1.821   1.015   8.987 -0.9539  2.1935  0.8493
   10CHL1  H22B  724   1.711   0.876   8.928 -0.7569  1.4876 -2.2588
   10CHL1   C23  725   1.617   1.070   8.938  0.0048  0.2451 -0.4400
   10CHL1  H23A  726   1.519   1.022   8.961 -0.6826  0.5593 -2.5292
   10CHL1  H23B  727   1.633   1.162   8.999 -1.6258  2.3157 -2.9122
   10CHL1   C24  728   1.627   1.094   8.783 -0.6643 -0.3373  0.2929
   10CHL1  H24A  729   1.735   1.100   8.757 -0.9524  0.4724 -0.8111
   10CHL1  H24B  730   1.581   1.006   8.734 -0.7677  0.3137 -0.8296
   10CHL1   C25  731   1.554   1.215   8.747  1.2520  0.1120 -0.7881
   10CHL1   H25  732   1.603   1.293   8.808  1.6758 -0.6836 -0.1097
   10CHL1   C26  733   1.559   1.233   8.598  0.0060 -0.4075 -0.2176
   10CHL1  H26A  734   1.520   1.153   8.531 -0.8175 -1.5149  1.5111
   10CHL1  H26B  735   1.494   1.318   8.570 -0.3191 -0.1018  1.3981
   10CHL1  H26C  736   1.664   1.261   8.571 -0.6597  1.5366 -0.9463
   10CHL1   C27  737   1.401   1.204   8.791 -0.2181 -0.3745  0.4382
   10CHL1  H27A  738   1.340   1.283   8.741 -0.4966 -0.0394  1.2903
   10CHL1  H27B  739   1.365   1.108   8.750  1.3432 -0.3989 -1.0122
   10CHL1  H27C  740   1.385   1.209   8.901  1.4467 -0.2877  0.7154
   11CHL1    C3  741   4.219   4.425  10.094 -0.2160 -0.3076  0.4088
   11CHL1    H3  742   4.128   4.446  10.034 -0.6809  0.4036  1.3293
   11CHL1    O3  743   4.174   4.427  10.227  0.6338  0.1211 -0.3751
   11CHL1   H3'  744   4.245   4.375  10.264  0.4445  0.0471 -0.1096
   11CHL1    C4  745   4.288   4.296  10.059  0.0992 -0.1186  0.8090
   11CHL1   H4A  746   4.376   4.276  10.123  1.1244 -0.5608 -0.6803
   11CHL1   H4B  747   4.218   4.217  10.096  0.6177 -1.2210 -0.4595
   11CHL1    C5  748   4.334   4.298   9.912  0.5405  0.0254 -0.6278
   11CHL1    C6  749   4.302   4.195   9.832 -0.3874  0.6345 -0.4199
   11CHL1    H6  750   4.252   4.107   9.876 -1.1225  0.6753 -1.1494
   11CHL1    C7  751   4.349   4.176   9.690  0.8928  0.0230  0.0530
   11CHL1   H7A  752   4.382   4.071   9.675  1.8993  0.5517 -1.8356
   11CHL1   H7B  753   4.262   4.194   9.623  0.2911  1.1490  1.0929
   11CHL1    C8  754   4.457   4.280   9.652  0.1307  0.2133 -0.4686
   11CHL1    H8  755   4.556   4.244   9.689 -0.5272  0.0779  1.2530
   11CHL1   C14  756   4.459   4.289   9.498 -0.5057 -1.0888 -0.1557
   11CHL1   H14  757   4.365   4.342   9.471 -0.2892 -1.5410 -1.9278
   11CHL1   C15  758   4.467   4.166   9.413  0.2218  0.4791  0.1152
   11CHL1  H15A  759   4.552   4.101   9.443  0.4023  0.6645  0.0094
   11CHL1  H15B  760   4.367   4.118   9.409 -1.0628  2.9263  0.9311
   11CHL1   C16  761   4.507   4.220   9.272 -0.1687  0.0329 -0.2289
   11CHL1  H16A  762   4.597   4.166   9.236 -0.7922  0.5916 -2.7553
   11CHL1  H16B  763   4.435   4.203   9.189 -3.1595  1.8618  1.7836
   11CHL1   C17  764   4.541   4.373   9.279  0.4588 -0.0912  0.4134
   11CHL1   H17  765   4.449   4.431   9.258  1.3369  1.1442 -0.1162
   11CHL1   C13  766   4.558   4.392   9.434 -0.7658 -0.4972 -0.2192
   11CHL1   C18  767   4.704   4.351   9.476  0.2068 -0.5344  0.2493
   11CHL1  H18A  768   4.778   4.423   9.436  0.0929 -0.4696  0.1534
   11CHL1  H18B  769   4.706   4.357   9.586  0.7719  0.2945  0.1956
   11CHL1  H18C  770   4.745   4.254   9.439 -1.2083 -1.1666  0.2615
   11CHL1   C12  771   4.524   4.532   9.483  0.4318 -0.0390  0.4955
   11CHL1  H12A  772   4.611   4.599   9.464  0.9853 -1.2767 -1.7643
   11CHL1  H12B  773   4.428   4.570   9.443 -0.4838 -1.3862  1.3298
   11CHL1   C11  774   4.507   4.539   9.638 -0.0945 -0.6734  0.3166
   11CHL1  H11A  775   4.609   4.553   9.681  0.4021  2.8258 -1.6129
   11CHL1  H11B  776   4.454   4.634   9.661  3.4288  2.1431 -2.0474
   11CHL1    C9  777   4.431   4.417   9.708 -0.6170  0.1107  0.2162
   11CHL1    H9  778   4.324   4.424   9.679 -1.0784 -0.6660  1.6157
   11CHL1   C10  779   4.416   4.416   9.862  0.6167 -0.2365 -0.3538
   11CHL1   C19  780   4.554   4.402   9.919 -0.1155  0.4162  0.4236
   11CHL1  H19A  781   4.556   4.423  10.028  0.3204 -1.3578  0.7788
   11CHL1  H19B  782   4.603   4.305   9.899  1.1861  0.4122  3.1412
   11CHL1  H19C  783   4.633   4.462   9.867 -0.3390  0.3759  0.0375
   11CHL1    C1  784   4.356   4.545   9.919  0.0822 -0.0485  0.1765
   11CHL1   H1A  785   4.435   4.624   9.918  0.7052 -0.5723 -2.9283
   11CHL1   H1B  786   4.263   4.572   9.864 -1.0291  0.5591  2.2655
   11CHL1    C2  787   4.320   4.536  10.071 -0.5437 -0.5113 -0.1638
   11CHL1   H2A  788   4.282   4.635  10.103  2.1228  0.5018  0.1997
   11CHL1   H2B  789   4.411   4.514  10.132 -0.2329 -0.0852 -0.4637
   11CHL1   C20  790   4.650   4.413   9.180 -0.3870  0.6592 -0.3433
   11CHL1   H20  791   4.730   4.339   9.202 -1.0315  0.7966  2.9763
   11CHL1   C21  792   4.697   4.556   9.210  0.0500 -0.4101 -0.1496
   11CHL1  H21A  793   4.747   4.569   9.308  0.9498  0.4769 -0.7059
   11CHL1  H21B  794   4.598   4.607   9.214  0.2839  0.1419 -1.0958
   11CHL1  H21C  795   4.752   4.595   9.121 -0.2699 -0.7119 -0.4854
   11CHL1   C22  796   4.602   4.408   9.033  0.7071  0.6244 -0.2105
   11CHL1  H22A  797   4.550   4.314   9.007 -0.4632  1.3522 -0.5410
   11CHL1  H22B  798   4.530   4.492   9.025 -1.6353 -1.4137 -1.4373
   11CHL1   C23  799   4.702   4.419   8.920  0.4161 -1.0378 -0.0683
   11CHL1  H23A  800   4.753   4.518   8.912 -1.8604  0.1356 -0.8464
   11CHL1  H23B  801   4.783   4.343   8.925  0.9892 -0.6542 -2.3774
   11CHL1   C24  802   4.621   4.404   8.787 -0.3534 -0.6066  0.3847
   11CHL1  H24A  803   4.587   4.299   8.774 -1.9714 -0.0059 -0.4989
   11CHL1  H24B  804   4.529   4.466   8.782 -0.0313 -0.1605 -0.2789
   11CHL1   C25  805   4.719   4.420   8.664  0.4669  0.0327 -0.5657
   11CHL1   H25  806   4.800   4.345   8.659  1.7008  1.1373  1.4134
   11CHL1   C26  807   4.633   4.416   8.534 -0.1075 -0.0739  0.3089
   11CHL1  H26A  808   4.579   4.319   8.539  1.4887 -1.0958 -1.1420
   11CHL1  H26B  809   4.547   4.486   8.541  0.0091  0.0184  0.9552
   11CHL1  H26C  810   4.685   4.438   8.439 -0.8397  1.5684  0.2521
   11CHL1   C27  811   4.773   4.562   8.658 -0.7097 -0.1318 -0.0383
   11CHL1  H27A  812   4.687   4.632   8.645  0.1069  0.6550 -1.4650
   11CHL1  H27B  813   4.828   4.591   8.750 -1.1802 -1.0178  0.5367
   11CHL1  H27C  814   4.831   4.573   8.564 -0.7772  0.0143 -0.0620
   12CHL1    C3  815   0.930   0.039  10.108  0.7271  0.2977  0.3392
   12CHL1    H3  816   0.945  -0.070  10.094 -2.3751  0.1047 -2.8639
   12CHL1    O3  817   0.931   0.061  10.246 -0.0187 -0.3775  0.1267
   12CHL1   H3'  818   0.881   0.141  10.262  0.4097 -0.6215  3.2778
   12CHL1    C4  819   1.048   0.127  10.053  0.2910 -0.0243 -0.1427
   12CHL1   H4A  820   1.032   0.237  10.056  1.1943  0.1119  0.2182
   12CHL1   H4B  821   1.143   0.105  10.107 -0.5478 -0.5837  1.1450
   12CHL1    C5  822   1.054   0.090   9.907 -1.0842  0.1168 -0.9902
   12CHL1    C6  823   1.161   0.027   9.857  0.0156  0.2129 -0.1440
   12CHL1    H6  824   1.249   0.008   9.919  0.0511 -1.5246 -0.6638
   12CHL1    C7  825   1.179   0.005   9.708  0.0321  0.3436  0.3443
   12CHL1   H7A  826   1.283   0.026   9.673 -0.0983  1.1760  0.4334
   12CHL1   H7B  827   1.166  -0.104   9.689  0.2011  0.5461 -1.0750
   12CHL1    C8  828   1.087   0.090   9.621  0.4642  0.2641 -0.5699
   12CHL1    H8  829   1.112   0.197   9.633  0.8978  0.1046 -0.0024
   12CHL1   C14  830   1.090   0.047   9.475  0.4221 -0.9406 -0.0735
   12CHL1   H14  831   1.068  -0.062   9.476  1.2835 -1.1312 -0.8089
   12CHL1   C15  832   1.224   0.054   9.404  0.3739  0.8115  1.0925
   12CHL1  H15A  833   1.261   0.155   9.433 -0.2343  1.8676 -1.4938
   12CHL1  H15B  834   1.274  -0.035   9.447 -1.2349 -0.4712  0.4530
   12CHL1   C16  835   1.183   0.035   9.251 -0.1350  0.1175 -0.2607
   12CHL1  H16A  836   1.239   0.108   9.187  0.7179  0.3867  0.7673
   12CHL1  H16B  837   1.227  -0.061   9.218  0.3175  0.7922 -1.7357
   12CHL1   C17  838   1.030   0.038   9.236  0.3610  0.7828 -0.3525
   12CHL1   H17  839   0.991  -0.066   9.238  0.5119  0.6890 -1.5489
   12CHL1   C13  840   0.991   0.102   9.376  0.0159  0.0453 -0.2914
   12CHL1   C18  841   1.011   0.255   9.356  0.0159  0.1237  0.1425
   12CHL1  H18A  842   0.916   0.303   9.324 -0.4594 -0.6254  0.3985
   12CHL1  H18B  843   1.036   0.312   9.448 -1.5025  0.9555  0.0772
   12CHL1  H18C  844   1.091   0.282   9.284  1.4390  0.4095  1.7613
   12CHL1   C12  845   0.853   0.070   9.435  0.0548  0.1117 -0.2370
   12CHL1  H12A  846   0.769   0.099   9.369 -0.0805 -1.5038 -0.8226
   12CHL1  H12B  847   0.845  -0.041   9.443  1.3656  0.0546  0.5379
   12CHL1   C11  848   0.837   0.135   9.575 -0.6155 -0.0102 -0.0659
   12CHL1  H11A  849   0.848   0.245   9.564  1.4050 -0.1084  0.4132
   12CHL1  H11B  850   0.734   0.114   9.611 -0.6031 -0.7920 -0.4697
   12CHL1    C9  851   0.945   0.086   9.678 -0.0451  0.3025 -0.1328
   12CHL1    H9  852   0.930  -0.024   9.689  0.0213  0.4918  2.6136
   12CHL1   C10  853   0.928   0.134   9.820 -0.2703 -0.4760  0.1411
   12CHL1   C19  854   0.924   0.299   9.816 -0.0948  0.4838 -0.1440
   12CHL1  H19A  855   0.853   0.344   9.743 -0.2317 -0.7766 -0.8088
   12CHL1  H19B  856   0.890   0.333   9.916 -1.7646 -0.2192 -0.4432
   12CHL1  H19C  857   1.019   0.343   9.779  0.0852 -0.0240 -0.2948
   12CHL1    C1  858   0.806   0.075   9.882  1.5868  1.0245 -0.2929
   12CHL1   H1A  859   0.716   0.129   9.846 -1.0655 -0.9648  2.6489
   12CHL1   H1B  860   0.789  -0.030   9.849  0.0749  0.4560  1.9901
   12CHL1    C2  861   0.801   0.083  10.038  0.3934 -0.8197  0.8207
   12CHL1   H2A  862   0.717   0.022  10.079 -1.6431  0.5326 -1.1381
   12CHL1   H2B  863   0.787   0.191  10.059  1.1032 -0.2778 -1.2378
   12CHL1   C20  864   0.987   0.097   9.109  0.2864 -0.2565 -0.0487
   12CHL1   H20  865   1.033   0.198   9.101  3.5360 -1.5807  0.4624
   12CHL1   C21  866   0.833   0.113   9.114  0.0917 -0.5408  0.6536
   12CHL1  H21A  867   0.787   0.014   9.133 -1.7106 -0.2775 -1.7760
   12CHL1  H21B  868   0.791   0.137   9.014  2.7553 -0.0841 -0.4413
   12CHL1  H21C  869   0.809   0.189   9.192  2.6729  1.3522 -0.2512
   12CHL1   C22  870   1.029   0.025   8.980  0.9356 -1.0232  0.8316
   12CHL1  H22A  871   1.133  -0.013   8.991  0.8801 -1.6625 -0.5977
   12CHL1  H22B  872   0.959  -0.060   8.963 -2.1499  1.8488 -2.3194
   12CHL1   C23  873   1.016   0.114   8.851  0.7413 -0.4728 -0.5840
   12CHL1  H23A  874   0.911   0.150   8.844  0.2783 -1.7750 -0.5189
   12CHL1  H23B  875   1.082   0.202   8.864 -0.7958  0.4613  1.6386
   12CHL1   C24  876   1.059   0.036   8.726  0.1590  0.3812 -0.0895
   12CHL1  H24A  877   1.166   0.005   8.728 -0.5204 -2.0769  0.7475
   12CHL1  H24B  878   0.994  -0.054   8.720  0.2993  0.3621 -2.5761
   12CHL1   C25  879   1.047   0.119   8.591 -0.5597  0.6039  0.1555
   12CHL1   H25  880   1.111   0.210   8.590  0.1311  0.1319  0.4119
   12CHL1   C26  881   1.094   0.020   8.479  0.0618  0.8927  0.3185
   12CHL1  H26A  882   1.038  -0.075   8.494 -0.6778  1.1275 -0.7960
   12CHL1  H26B  883   1.060   0.073   8.388 -1.2147 -1.6814 -0.8057
   12CHL1  H26C  884   1.204   0.003   8.478 -0.0486  0.1524 -0.1201
   12CHL1   C27  885   0.912   0.175   8.565  0.2910 -0.1943 -0.3173
   12CHL1  H27A  886   0.877   0.241   8.647 -1.2272  0.5147 -1.4608
   12CHL1  H27B  887   0.905   0.215   8.461  0.8494  1.1843  0.1563
   12CHL1  H27C  888   0.833   0.097   8.569  0.8090 -0.7489 -0.8040
   13CHL1    C3  889   0.067   2.286   9.800 -0.0606  0.2135  0.4484
   13CHL1    H3  890  -0.003   2.370   9.818 -0.4666 -0.4975  2.4590
   13CHL1    O3  891   0.125   2.270   9.926  0.2018  0.4653  0.4087
   13CHL1   H3'  892   0.185   2.197   9.914 -1.1913 -0.7761  0.6903
   13CHL1    C4  893  -0.001   2.164   9.748  0.1554  0.3392 -0.1669
   13CHL1   H4A  894   0.066   2.075   9.748 -0.5909 -0.2410 -1.1704
   13CHL1   H4B  895  -0.081   2.147   9.824  0.8332  2.2129  1.0456
   13CHL1    C5  896  -0.060   2.170   9.614 -0.3286 -0.0700 -0.1996
   13CHL1    C6  897  -0.194   2.144   9.594  0.1527  0.0287 -0.1269
   13CHL1    H6  898  -0.263   2.109   9.672  0.6283 -3.8488 -1.2437
   13CHL1    C7  899  -0.255   2.156   9.461 -0.5550 -0.0965  0.8755
   13CHL1   H7A  900  -0.309   2.063   9.434  1.5669 -1.6509  1.7059
   13CHL1   H7B  901  -0.314   2.250   9.453 -0.5003  0.0135  1.6534
   13CHL1    C8  902  -0.153   2.158   9.341  0.1951  0.5387 -0.2507
   13CHL1    H8  903  -0.115   2.055   9.320  1.6803  0.3111  2.9710
   13CHL1   C14  904  -0.220   2.208   9.209  0.2972 -0.8241 -0.3828
   13CHL1   H14  905  -0.243   2.315   9.230 -3.3124 -0.9043 -2.9190
   13CHL1   C15  906  -0.357   2.148   9.163  0.2125  0.5789 -0.6777
   13CHL1  H15A  907  -0.356   2.037   9.172 -3.3495  0.4525 -0.7613
   13CHL1  H15B  908  -0.441   2.188   9.224 -2.1572 -2.8215 -1.4508
   13CHL1   C16  909  -0.367   2.182   9.016 -1.3297 -0.8954  0.1312
   13CHL1  H16A  910  -0.392   2.098   8.948  2.6018 -0.4429 -2.1543
   13CHL1  H16B  911  -0.446   2.258   9.000  0.6471  1.9163  2.6499
   13CHL1   C17  912  -0.238   2.264   8.993 -0.1161  0.4609  0.0500
   13CHL1   H17  913  -0.265   2.362   9.037 -0.8204  0.9665 -1.4366
   13CHL1   C13  914  -0.130   2.216   9.089  0.5308 -0.1225  0.1158
   13CHL1   C18  915  -0.066   2.083   9.049  0.4998 -0.4706 -0.0577
   13CHL1  H18A  916  -0.007   2.098   8.957  0.8352  2.0336  0.4807
   13CHL1  H18B  917  -0.013   2.043   9.138 -0.8500  0.6897  1.3422
   13CHL1  H18C  918  -0.153   2.019   9.024 -1.0941  1.0673  1.2479
   13CHL1   C12  919  -0.031   2.331   9.120 -0.1370  0.1891  0.4845
   13CHL1  H12A  920   0.035   2.324   9.032 -1.6742 -4.0613 -0.5932
   13CHL1  H12B  921  -0.086   2.427   9.126  0.2928  0.8041 -3.4158
   13CHL1   C11  922   0.048   2.298   9.245  0.3378 -0.0954 -0.1971
   13CHL1  H11A  923   0.116   2.215   9.215  0.9536  0.9979 -1.9809
   13CHL1  H11B  924   0.117   2.379   9.278 -0.8046  0.5817  0.5945
   13CHL1    C9  925  -0.044   2.263   9.370 -0.1565 -0.1687  0.7472
   13CHL1    H9  926  -0.095   2.358   9.395 -2.5011 -0.4891 -2.2858
   13CHL1   C10  927   0.030   2.234   9.504 -0.5159  0.5972 -0.0813
   13CHL1   C19  928   0.139   2.125   9.474  0.4681  0.6727  0.2290
   13CHL1  H19A  929   0.189   2.088   9.566 -0.2808  1.1528  0.8424
   13CHL1  H19B  930   0.090   2.041   9.420  0.1180  0.2886  1.1148
   13CHL1  H19C  931   0.218   2.155   9.402 -0.9510  0.3310 -1.5221
   13CHL1    C1  932   0.107   2.356   9.558 -0.3619 -0.3985  0.1264
   13CHL1   H1A  933   0.193   2.378   9.491 -0.3168  2.5356  0.9789
   13CHL1   H1B  934   0.034   2.440   9.557  0.8008  0.6513 -0.2289
   13CHL1    C2  935   0.171   2.337   9.702 -0.4643  0.1565  0.3057
   13CHL1   H2A  936   0.201   2.436   9.742 -2.9278  1.4507 -0.8063
   13CHL1   H2B  937   0.256   2.267   9.688 -0.3321  0.6759 -1.8251
   13CHL1   C20  938  -0.205   2.285   8.843  0.3686  0.1637  0.4702
   13CHL1   H20  939  -0.094   2.298   8.844  0.4496 -0.2940  2.9342
   13CHL1   C21  940  -0.277   2.409   8.786 -0.4243  0.3384  0.0459
   13CHL1  H21A  941  -0.239   2.445   8.688  0.4780  4.1820  1.6511
   13CHL1  H21B  942  -0.254   2.501   8.843  2.7933 -0.5781  0.3898
   13CHL1  H21C  943  -0.388   2.405   8.789 -0.4262 -0.9587 -0.7043
   13CHL1   C22  944  -0.242   2.167   8.751 -0.1008  0.3847  0.1316
   13CHL1  H22A  945  -0.193   2.076   8.792  1.5819 -0.1196 -2.7476
   13CHL1  H22B  946  -0.353   2.168   8.747 -0.0804 -0.6958 -1.3542
   13CHL1   C23  947  -0.180   2.170   8.602  0.2874 -0.3266  0.7489
   13CHL1  H23A  948  -0.215   2.247   8.530  0.7558 -0.5685  0.2504
   13CHL1  H23B  949  -0.070   2.177   8.609  0.2642 -0.8246  1.7933
   13CHL1   C24  950  -0.200   2.032   8.539 -0.5666  0.6111  0.4754
   13CHL1  H24A  951  -0.116   1.966   8.570 -2.5936 -1.7435  1.2881
   13CHL1  H24B  952  -0.290   1.975   8.571 -0.0860  0.8614  2.4331
   13CHL1   C25  953  -0.207   2.041   8.375 -0.1616 -0.4736 -0.9231
   13CHL1   H25  954  -0.220   1.935   8.342  1.1495 -0.5796 -1.1544
   13CHL1   C26  955  -0.326   2.126   8.328  0.9919  0.2517  1.1136
   13CHL1  H26A  956  -0.419   2.093   8.380 -1.0961  4.1808  0.2128
   13CHL1  H26B  957  -0.325   2.234   8.352  0.7490  1.0868 -2.1773
   13CHL1  H26C  958  -0.334   2.109   8.219 -0.6134  0.1167  1.2295
   13CHL1   C27  959  -0.076   2.093   8.307  0.3615  0.1585 -0.2084
   13CHL1  H27A  960  -0.051   2.200   8.324  0.2949  0.1154  0.1648
   13CHL1  H27B  961   0.010   2.031   8.339  0.7963  0.0578 -1.5190
   13CHL1  H27C  962  -0.074   2.090   8.196 -1.9467 -1.7631 -0.2758
   14CHL1    C3  963   0.001   4.349  10.223  0.5391 -0.8326  0.1338
   14CHL1    H3  964   0.036   4.439  10.169  2.9563 -0.1826  2.5547
   14CHL1    O3  965   0.051   4.357  10.354 -0.4822  0.0248 -0.1441
   14CHL1   H3'  966   0.037   4.267  10.383 -0.7986 -0.6661 -2.3157
   14CHL1    C4  967  -0.149   4.323  10.222  0.6358 -0.9021 -0.0085
   14CHL1   H4A  968  -0.170   4.234  10.284  1.0144 -1.6498 -0.9204
   14CHL1   H4B  969  -0.186   4.413  10.276  2.5438 -1.2506  2.0218
   14CHL1    C5  970  -0.199   4.312  10.087 -0.7043 -0.7189  0.2390
   14CHL1    C6  971  -0.292   4.399  10.042 -0.5564 -0.1047  0.8053
   14CHL1    H6  972  -0.329   4.478  10.109 -2.3724 -0.3840  0.1919
   14CHL1    C7  973  -0.343   4.393   9.897 -0.4040  0.3191 -0.2335
   14CHL1   H7A  974  -0.453   4.405   9.906 -0.1851  1.5125  1.2156
   14CHL1   H7B  975  -0.302   4.486   9.852  3.2543 -0.7590  0.5986
   14CHL1    C8  976  -0.302   4.264   9.823 -0.1874 -0.1907  0.4477
   14CHL1    H8  977  -0.368   4.177   9.847 -0.3786 -0.5335 -1.1998
   14CHL1   C14  978  -0.319   4.285   9.672  0.7314  0.4626  0.2076
   14CHL1   H14  979  -0.252   4.367   9.638  1.6352 -0.7727 -1.1122
   14CHL1   C15  980  -0.467   4.333   9.627  0.4035  0.8206 -1.2579
   14CHL1  H15A  981  -0.542   4.269   9.678 -0.9001  2.8898 -0.4678
   14CHL1  H15B  982  -0.474   4.438   9.662  0.8430 -0.4519  3.3199
   14CHL1   C16  983  -0.466   4.300   9.482 -0.1435 -0.2416 -0.5206
   14CHL1  H16A  984  -0.550   4.232   9.456  0.2756 -0.5865 -0.9768
   14CHL1  H16B  985  -0.479   4.384   9.410 -0.4860 -0.9958 -1.3518
   14CHL1   C17  986  -0.331   4.217   9.448  0.0646  0.5291 -0.2362
   14CHL1   H17  987  -0.253   4.288   9.415 -0.1232  0.0906 -1.7253
   14CHL1   C13  988  -0.280   4.167   9.582 -0.0569  0.0962 -0.1267
   14CHL1   C18  989  -0.362   4.039   9.610  0.5876 -0.5957 -0.3019
   14CHL1  H18A  990  -0.364   4.006   9.717 -1.3765 -0.4461 -0.2441
   14CHL1  H18B  991  -0.468   4.064   9.586  0.4679 -0.7047  0.1048
   14CHL1  H18C  992  -0.346   3.947   9.550 -1.4087 -1.9743  1.1514
   14CHL1   C12  993  -0.129   4.152   9.601  0.4016  0.4792 -0.3383
   14CHL1  H12A  994  -0.082   4.064   9.550 -0.3116 -1.2431  1.8216
   14CHL1  H12B  995  -0.085   4.248   9.567 -0.0307  1.3289  1.3824
   14CHL1   C11  996  -0.095   4.117   9.749  0.6365 -0.1609 -0.4050
   14CHL1  H11A  997  -0.150   4.025   9.778  2.7211 -1.4979 -0.4010
   14CHL1  H11B  998   0.014   4.101   9.769  0.3332 -1.3844  0.4282
   14CHL1    C9  999  -0.157   4.225   9.850  0.0691  0.0368 -0.1318
   14CHL1    H9 1000  -0.107   4.317   9.811  2.4478 -0.5611  1.3219
   14CHL1   C10 1001  -0.127   4.211   9.999 -1.3330  0.4097  0.1889
   14CHL1   C19 1002  -0.175   4.061  10.043  0.0818  0.2151  0.0470
   14CHL1  H19A 1003  -0.126   3.976   9.991  3.3949  1.8326  0.3226
   14CHL1  H19B 1004  -0.151   4.046  10.150  2.3332  1.1878 -0.2724
   14CHL1  H19C 1005  -0.284   4.056  10.022 -0.0336  0.6560  0.5316
   14CHL1    C1 1006   0.029   4.208  10.011 -0.3248 -0.2713 -0.5206
   14CHL1   H1A 1007   0.066   4.110   9.976  0.9681 -0.4264  1.1181
   14CHL1   H1B 1008   0.068   4.292   9.950  0.0135 -1.1733 -1.5732
   14CHL1    C2 1009   0.078   4.234  10.156 -0.2226  0.6282 -0.0252
   14CHL1   H2A 1010   0.186   4.257  10.149 -0.2442  0.3296 -1.7860
   14CHL1   H2B 1011   0.059   4.149  10.225  1.1903 -0.1042 -0.5017
   14CHL1   C20 1012  -0.360   4.112   9.337  0.4879  0.7276  0.1148
   14CHL1   H20 1013  -0.428   4.034   9.377  0.9595 -0.6462 -1.6525
   14CHL1   C21 1014  -0.232   4.029   9.305  0.0326 -0.2109 -0.1858
   14CHL1  H21A 1015  -0.210   3.961   9.390 -2.6841  0.9983  1.6519
   14CHL1  H21B 1016  -0.152   4.106   9.293 -0.4630  0.2455 -0.6409
   14CHL1  H21C 1017  -0.247   3.978   9.208 -1.8192  1.9684 -1.1371
   14CHL1   C22 1018  -0.421   4.173   9.209 -0.4653 -0.5357  0.5168
   14CHL1  H22A 1019  -0.519   4.219   9.230 -1.1147 -2.1186  1.1015
   14CHL1  H22B 1020  -0.343   4.238   9.162  0.2618 -1.7864 -0.0785
   14CHL1   C23 1021  -0.449   4.067   9.099  1.0135 -0.1617 -0.2931
   14CHL1  H23A 1022  -0.440   3.964   9.138  1.0808  0.8064  2.4140
   14CHL1  H23B 1023  -0.553   4.082   9.061  0.6683 -1.4605  0.0905
   14CHL1   C24 1024  -0.374   4.086   8.963  0.0182  0.1287 -0.6855
   14CHL1  H24A 1025  -0.405   4.185   8.923 -3.7385 -0.0306  1.3256
   14CHL1  H24B 1026  -0.265   4.088   8.980  0.2141  1.7708 -1.7933
   14CHL1   C25 1027  -0.401   3.983   8.852  0.0187 -0.1003 -0.3714
   14CHL1   H25 1028  -0.381   3.883   8.895  1.8879  1.6525  3.2838
   14CHL1   C26 1029  -0.540   3.995   8.792 -0.3912  0.2689 -0.0040
   14CHL1  H26A 1030  -0.538   4.094   8.741  1.4852  0.1756 -0.1976
   14CHL1  H26B 1031  -0.555   3.915   8.718 -1.2029 -0.8593  1.3416
   14CHL1  H26C 1032  -0.622   3.988   8.867  0.9362 -2.6686  1.3322
   14CHL1   C27 1033  -0.302   4.006   8.735 -0.2035  0.5108  0.0451
   14CHL1  H27A 1034  -0.330   4.102   8.685 -0.9801  0.5395  0.5141
   14CHL1  H27B 1035  -0.200   4.004   8.779 -0.6696  0.3949  1.1458
   14CHL1  H27C 1036  -0.303   3.920   8.665 -1.6981 -1.4358  2.2957
   15CHL1    C3 1037   5.894   3.946  10.049  0.0735 -0.2883 -0.0017
   15CHL1    H3 1038   5.787   3.916  10.041  0.0236 -0.8532  2.1593
   15CHL1    O3 1039   5.920   3.980  10.186  0.8600 -0.3706  0.3937
   15CHL1   H3' 1040   5.947   3.894  10.218 -0.3820 -0.7941  0.3507
   15CHL1    C4 1041   5.978   3.829   9.993  0.2821 -0.1668 -0.4233
   15CHL1   H4A 1042   6.081   3.850  10.029 -0.4681 -0.1159  1.8180
   15CHL1   H4B 1043   5.936   3.743  10.048 -4.5905  1.6588 -0.8015
   15CHL1    C5 1044   5.974   3.808   9.841  0.0021  0.8004 -0.1473
   15CHL1    C6 1045   5.931   3.697   9.788  0.2546 -0.4046  0.0851
   15CHL1    H6 1046   5.891   3.626   9.862 -0.1733  2.3148  2.6451
   15CHL1    C7 1047   5.917   3.668   9.644  0.2844  0.8515 -0.1979
   15CHL1   H7A 1048   5.959   3.568   9.623  0.0196  0.6238  0.3319
   15CHL1   H7B 1049   5.811   3.653   9.615  1.1232 -0.3272 -2.9161
   15CHL1    C8 1050   5.981   3.778   9.557 -0.2144 -0.4016 -0.3231
   15CHL1    H8 1051   6.092   3.769   9.565 -0.2187  0.7080  1.4443
   15CHL1   C14 1052   5.930   3.764   9.413 -0.9809 -0.6961  0.3961
   15CHL1   H14 1053   5.823   3.791   9.425 -1.4852 -2.5868  0.6133
   15CHL1   C15 1054   5.934   3.633   9.345  0.0017  0.3899  0.1333
   15CHL1  H15A 1055   6.034   3.587   9.355 -1.6138 -2.9417  3.4040
   15CHL1  H15B 1056   5.853   3.563   9.376  0.4034 -0.1468 -0.0128
   15CHL1   C16 1057   5.904   3.681   9.201 -0.2537  0.6946  0.3800
   15CHL1  H16A 1058   5.989   3.644   9.138 -0.9316  0.0364 -0.1677
   15CHL1  H16B 1059   5.816   3.640   9.147 -0.4013  1.0243  0.3722
   15CHL1   C17 1060   5.911   3.831   9.198  0.8347 -0.3788  0.2106
   15CHL1   H17 1061   5.809   3.874   9.209  0.8148  0.5730 -2.7864
   15CHL1   C13 1062   5.989   3.868   9.319  0.0933  0.3225 -0.4702
   15CHL1   C18 1063   6.139   3.849   9.302 -0.7210  0.2490 -0.3605
   15CHL1  H18A 1064   6.175   3.921   9.224 -1.1757  0.3692 -0.4592
   15CHL1  H18B 1065   6.192   3.865   9.398 -1.2344  0.1573 -0.0660
   15CHL1  H18C 1066   6.172   3.749   9.267 -2.2984 -0.5907  0.4939
   15CHL1   C12 1067   5.954   4.012   9.369 -0.1277  0.0059  0.1550
   15CHL1  H12A 1068   5.994   4.095   9.306 -1.5498 -0.4037 -1.3650
   15CHL1  H12B 1069   5.844   4.031   9.368 -0.3486 -1.1941 -0.1272
   15CHL1   C11 1070   5.996   4.036   9.520  0.4598 -0.1378  0.0713
   15CHL1  H11A 1071   6.106   4.042   9.503  0.7653 -1.6235  1.3183
   15CHL1  H11B 1072   5.961   4.136   9.554  0.4219 -0.2158  0.2610
   15CHL1    C9 1073   5.956   3.920   9.613 -0.1995 -0.3144 -0.1396
   15CHL1    H9 1074   5.845   3.919   9.610 -0.2318  1.6120 -1.1762
   15CHL1   C10 1075   5.996   3.934   9.763 -0.6109 -0.3545  0.0734
   15CHL1   C19 1076   6.152   3.969   9.766  0.0927 -0.0351 -0.9937
   15CHL1  H19A 1077   6.175   3.960   9.874  1.4471 -0.0068 -1.2589
   15CHL1  H19B 1078   6.214   3.885   9.727  2.3118  0.0196  2.1028
   15CHL1  H19C 1079   6.176   4.070   9.727  1.6531  1.5119  3.3707
   15CHL1    C1 1080   5.914   4.052   9.815 -0.6078 -0.5099 -0.4515
   15CHL1   H1A 1081   5.946   4.147   9.767 -1.2198 -0.0209  0.0843
   15CHL1   H1B 1082   5.809   4.039   9.783 -0.6125  1.0205 -1.1420
   15CHL1    C2 1083   5.919   4.072   9.971 -0.1269 -0.5294 -0.6776
   15CHL1   H2A 1084   5.844   4.150   9.994 -0.5563 -1.0926 -0.1254
   15CHL1   H2B 1085   6.016   4.116  10.001 -1.6786  1.2347  2.2359
   15CHL1   C20 1086   5.966   3.888   9.063  0.2469  0.3847  0.5976
   15CHL1   H20 1087   6.075   3.868   9.059  0.1830  0.1512 -0.2053
   15CHL1   C21 1088   5.935   4.045   9.063 -0.1845  0.4245  0.2857
   15CHL1  H21A 1089   5.845   4.074   9.122 -0.9349 -1.9081  0.4259
   15CHL1  H21B 1090   5.919   4.078   8.958  0.7784 -0.1295 -0.0460
   15CHL1  H21C 1091   6.023   4.104   9.095  0.5732 -1.0594  1.0352
   15CHL1   C22 1092   5.912   3.830   8.933 -0.1365 -0.2766  0.3365
   15CHL1  H22A 1093   5.953   3.883   8.844 -1.2726  0.8208  0.4320
   15CHL1  H22B 1094   5.950   3.727   8.918  1.2015  0.3683 -1.0040
   15CHL1   C23 1095   5.762   3.839   8.919 -0.0537 -0.4591 -0.4755
   15CHL1  H23A 1096   5.725   3.788   9.010  0.1886 -1.3300 -0.8624
   15CHL1  H23B 1097   5.728   3.945   8.917  1.2722  0.0984  2.5032
   15CHL1   C24 1098   5.719   3.780   8.778 -0.4673  0.4835  0.0571
   15CHL1  H24A 1099   5.774   3.847   8.708  0.3549 -0.2636 -0.0285
   15CHL1  H24B 1100   5.749   3.677   8.750 -0.2286  1.0693 -2.0413
   15CHL1   C25 1101   5.565   3.802   8.746  0.1961  1.0318 -0.2548
   15CHL1   H25 1102   5.538   3.896   8.799 -2.0752 -0.1219  0.7959
   15CHL1   C26 1103   5.530   3.828   8.602 -0.1484  0.1688 -0.3744
   15CHL1  H26A 1104   5.602   3.893   8.547  0.5073  0.2823  0.6037
   15CHL1  H26B 1105   5.524   3.724   8.563 -0.4455 -0.6977  1.8761
   15CHL1  H26C 1106   5.429   3.874   8.601  0.7263  2.2320 -0.9552
   15CHL1   C27 1107   5.472   3.695   8.806  0.8462 -0.0052 -0.1661
   15CHL1  H27A 1108   5.367   3.725   8.788  0.9040  0.3114  0.0190
   15CHL1  H27B 1109   5.484   3.605   8.742  0.7382  2.3605 -3.8205
   15CHL1  H27C 1110   5.502   3.688   8.913 -1.1757 -2.0487  0.3419
   16CHL1    C3 1111   0.031   4.871  10.137  0.7679  0.1009 -0.7321
   16CHL1    H3 1112   0.008   4.972  10.097  0.3044  0.3095  0.0258
   16CHL1    O3 1113   0.050   4.876  10.277 -0.0697 -0.1959  0.3816
   16CHL1   H3' 1114   0.084   4.787  10.294  2.0635  0.5164  0.1718
   16CHL1    C4 1115  -0.087   4.780  10.112  0.1945  0.1409  0.1840
   16CHL1   H4A 1116  -0.068   4.678  10.150 -0.5626  0.0753  0.4077
   16CHL1   H4B 1117  -0.170   4.817  10.175  0.8871  1.4616  0.3527
   16CHL1    C5 1118  -0.123   4.773   9.965  0.6916  0.7038  0.0351
   16CHL1    C6 1119  -0.242   4.810   9.914  0.0460 -0.5386 -0.0710
   16CHL1    H6 1120  -0.314   4.862   9.980  2.7279  1.3278  1.5754
   16CHL1    C7 1121  -0.272   4.808   9.764  0.2792  0.2013 -0.3245
   16CHL1   H7A 1122  -0.373   4.767   9.739  0.4588 -1.3112  1.2463
   16CHL1   H7B 1123  -0.273   4.912   9.726  1.5040  0.0262 -0.9010
   16CHL1    C8 1124  -0.175   4.725   9.676 -0.5134 -0.3051 -0.0688
   16CHL1    H8 1125  -0.206   4.619   9.688 -0.7764 -0.2770 -0.4583
   16CHL1   C14 1126  -0.196   4.764   9.529  0.0869 -0.2902 -0.9721
   16CHL1   H14 1127  -0.174   4.873   9.523  1.4003 -0.5547 -1.3970
   16CHL1   C15 1128  -0.340   4.746   9.463 -0.6759  0.4778 -0.4288
   16CHL1  H15A 1129  -0.379   4.646   9.493  1.8080 -1.0223 -1.8521
   16CHL1  H15B 1130  -0.408   4.826   9.498  1.7726  1.7733  1.7709
   16CHL1   C16 1131  -0.301   4.762   9.315 -0.1474  0.2313 -0.6119
   16CHL1  H16A 1132  -0.353   4.681   9.259  0.4447 -1.1690  0.7946
   16CHL1  H16B 1133  -0.336   4.866   9.298  1.4916  0.9098 -0.0390
   16CHL1   C17 1134  -0.140   4.748   9.306  0.2224 -0.5440 -0.1038
   16CHL1   H17 1135  -0.111   4.854   9.322  0.5784 -0.8400  1.3384
   16CHL1   C13 1136  -0.093   4.688   9.439  0.2849  0.3321 -0.6113
   16CHL1   C18 1137  -0.131   4.531   9.434 -0.0731 -0.3989 -0.1902
   16CHL1  H18A 1138  -0.238   4.510   9.409  0.0454  0.6552 -1.6808
   16CHL1  H18B 1139  -0.075   4.488   9.349  0.4445  0.9916 -0.5728
   16CHL1  H18C 1140  -0.109   4.483   9.532  0.6272 -0.7288 -0.5100
   16CHL1   C12 1141   0.050   4.714   9.480  0.0746 -0.3528 -0.4106
   16CHL1  H12A 1142   0.116   4.651   9.417  2.2002  0.3287  1.0066
   16CHL1  H12B 1143   0.057   4.822   9.455 -2.3267  0.2708  1.2237
   16CHL1   C11 1144   0.070   4.684   9.627 -0.1368  0.3410 -0.7368
   16CHL1  H11A 1145   0.081   4.574   9.643 -1.3917  0.5633  2.1858
   16CHL1  H11B 1146   0.169   4.722   9.660 -0.8863 -0.2877  2.6193
   16CHL1    C9 1147  -0.028   4.751   9.719 -0.5621 -0.5325 -0.1223
   16CHL1    H9 1148  -0.019   4.860   9.698  0.4836 -0.9100 -1.8688
   16CHL1   C10 1149  -0.000   4.738   9.875  0.3178  0.1780 -0.3100
   16CHL1   C19 1150   0.029   4.588   9.896 -0.2418 -0.3265 -0.9836
   16CHL1  H19A 1151  -0.056   4.535   9.848 -1.0845 -1.0937  1.2277
   16CHL1  H19B 1152   0.126   4.558   9.853 -0.0824 -0.5429 -0.4836
   16CHL1  H19C 1153   0.024   4.555  10.002 -0.3725 -0.5610 -1.0623
   16CHL1    C1 1154   0.126   4.815   9.918 -0.0213  1.1611  0.0427
   16CHL1   H1A 1155   0.213   4.763   9.873  0.9107  1.4573  1.4199
   16CHL1   H1B 1156   0.128   4.918   9.877  0.8977  1.2363  0.2620
   16CHL1    C2 1157   0.155   4.812  10.072  0.5314  0.0852 -0.5686
   16CHL1   H2A 1158   0.245   4.875  10.086  0.6745  0.0423 -1.2592
   16CHL1   H2B 1159   0.196   4.713  10.099  1.5959  0.3478 -1.1970
   16CHL1   C20 1160  -0.084   4.713   9.168 -0.0380  0.0553 -0.5894
   16CHL1   H20 1161  -0.088   4.602   9.169 -1.8415  0.0862 -1.6919
   16CHL1   C21 1162   0.068   4.746   9.145  0.1843  0.5661 -0.1616
   16CHL1  H21A 1163   0.120   4.717   9.051 -0.8340  0.1498 -0.6195
   16CHL1  H21B 1164   0.125   4.697   9.226 -1.6892 -1.2711  0.1231
   16CHL1  H21C 1165   0.074   4.857   9.153  1.6653  0.6324 -1.6069
   16CHL1   C22 1166  -0.168   4.760   9.051 -0.3355 -0.8926  0.5238
   16CHL1  H22A 1167  -0.272   4.732   9.079  0.1606 -1.4540  1.8864
   16CHL1  H22B 1168  -0.184   4.869   9.043  1.0879 -0.8141 -2.8444
   16CHL1   C23 1169  -0.141   4.688   8.922 -0.6185  0.4951  0.7509
   16CHL1  H23A 1170  -0.035   4.657   8.912 -0.3216  1.7776 -0.3636
   16CHL1  H23B 1171  -0.196   4.593   8.906 -1.3401  1.1052 -0.5706
   16CHL1   C24 1172  -0.178   4.767   8.798  0.0361 -0.3393  0.1110
   16CHL1  H24A 1173  -0.289   4.770   8.808  0.2084 -1.2793  3.7508
   16CHL1  H24B 1174  -0.140   4.871   8.804 -0.7817 -0.1068  2.3101
   16CHL1   C25 1175  -0.145   4.703   8.661 -0.0849 -0.1810  0.2217
   16CHL1   H25 1176  -0.159   4.593   8.666  0.0272 -0.1762  0.7195
   16CHL1   C26 1177  -0.239   4.753   8.551 -0.6391 -0.6599  0.0653
   16CHL1  H26A 1178  -0.345   4.722   8.564 -0.6415 -1.0240 -0.8106
   16CHL1  H26B 1179  -0.221   4.862   8.533  0.5658 -1.2815 -2.9394
   16CHL1  H26C 1180  -0.210   4.716   8.451  1.9685  0.3568  0.3429
   16CHL1   C27 1181   0.004   4.727   8.623  0.0043  1.3623 -0.6509
   16CHL1  H27A 1182   0.057   4.693   8.715 -1.0920 -0.7349 -0.7612
   16CHL1  H27B 1183   0.036   4.649   8.551  0.3056  1.0577 -0.1950
   16CHL1  H27C 1184   0.030   4.832   8.595 -0.0558  1.0969 -1.7065
   17CHL1    C3 1185   3.184   2.381  10.082 -0.1448  0.3030 -0.1333
   17CHL1    H3 1186   3.172   2.275  10.048 -0.5413  0.3440 -0.1186
   17CHL1    O3 1187   3.158   2.377  10.220 -0.7709  0.0960 -0.1052
   17CHL1   H3' 1188   3.163   2.470  10.244  2.8622  0.6711 -2.3036
   17CHL1    C4 1189   3.334   2.428  10.066  0.6416 -0.4470  0.3532
   17CHL1   H4A 1190   3.339   2.537  10.088  2.4749  0.1177 -2.3314
   17CHL1   H4B 1191   3.404   2.358  10.116 -0.9679 -1.7303  0.8639
   17CHL1    C5 1192   3.357   2.421   9.919  0.3830  0.1836 -0.5368
   17CHL1    C6 1193   3.461   2.358   9.868  0.4322  0.5562  0.8325
   17CHL1    H6 1194   3.531   2.302   9.931  0.1098 -3.0432 -1.6421
   17CHL1    C7 1195   3.496   2.356   9.723  0.1150 -0.1993  0.4393
   17CHL1   H7A 1196   3.595   2.400   9.696 -0.3640  0.7562  0.1799
   17CHL1   H7B 1197   3.482   2.257   9.676 -1.4854  0.2927 -0.1820
   17CHL1    C8 1198   3.414   2.455   9.632 -0.7547 -0.4060 -0.2882
   17CHL1    H8 1199   3.457   2.558   9.636  1.6977 -1.3485 -0.6485
   17CHL1   C14 1200   3.433   2.430   9.482  0.0411 -0.8877 -0.2959
   17CHL1   H14 1201   3.381   2.333   9.466 -2.0860  0.5813 -3.4189
   17CHL1   C15 1202   3.572   2.411   9.423  0.0801  0.1650  0.1055
   17CHL1  H15A 1203   3.652   2.469   9.474  0.5258 -1.4263  1.3046
   17CHL1  H15B 1204   3.603   2.305   9.432 -1.4675 -0.3222 -0.1099
   17CHL1   C16 1205   3.551   2.442   9.278  0.3006 -0.4992 -0.4005
   17CHL1  H16A 1206   3.622   2.524   9.253  2.3536 -2.1934 -0.4030
   17CHL1  H16B 1207   3.592   2.360   9.215  0.0043  0.3319 -1.7342
   17CHL1   C17 1208   3.402   2.478   9.252  0.1396  0.5961 -0.1074
   17CHL1   H17 1209   3.352   2.379   9.247 -1.0976  1.0800  1.6215
   17CHL1   C13 1210   3.354   2.527   9.388  0.0510  0.4861  0.5101
   17CHL1   C18 1211   3.404   2.673   9.397  0.4268  0.0950  0.1041
   17CHL1  H18A 1212   3.347   2.739   9.330  2.1493 -0.6251 -2.1892
   17CHL1  H18B 1213   3.391   2.706   9.503  3.8247  1.4246  0.2479
   17CHL1  H18C 1214   3.514   2.686   9.385  0.6974  0.2037  2.2054
   17CHL1   C12 1215   3.209   2.504   9.432 -0.4200 -0.2393  0.1092
   17CHL1  H12A 1216   3.137   2.563   9.371 -1.6724 -0.7591  1.0380
   17CHL1  H12B 1217   3.179   2.397   9.431  0.8672 -0.7933  4.1505
   17CHL1   C11 1218   3.184   2.549   9.578 -0.9449  0.0993  0.1794
   17CHL1  H11A 1219   3.221   2.654   9.587 -0.9704  0.2901 -1.5766
   17CHL1  H11B 1220   3.074   2.550   9.594 -1.1407  1.2965 -1.0201
   17CHL1    C9 1221   3.265   2.461   9.673 -0.3551 -0.0029  0.8090
   17CHL1    H9 1222   3.235   2.358   9.645 -0.9154  0.8308 -1.8896
   17CHL1   C10 1223   3.257   2.498   9.826 -0.6625  0.6108  0.0743
   17CHL1   C19 1224   3.289   2.649   9.843 -0.1452  0.6286  0.2643
   17CHL1  H19A 1225   3.205   2.706   9.797 -0.6382  1.2176  1.8417
   17CHL1  H19B 1226   3.287   2.679   9.950 -1.0687  0.3836  0.3244
   17CHL1  H19C 1227   3.389   2.685   9.812 -0.3639  0.6309 -0.4560
   17CHL1    C1 1228   3.112   2.482   9.865 -0.4604 -0.2291  0.2875
   17CHL1   H1A 1229   3.051   2.567   9.827 -0.2572 -0.2083  0.0077
   17CHL1   H1B 1230   3.058   2.393   9.827 -2.7853  1.3746 -0.3810
   17CHL1    C2 1231   3.088   2.482  10.019 -0.5346  0.0329  0.3130
   17CHL1   H2A 1232   2.979   2.460  10.027 -0.5481  0.6327  2.4791
   17CHL1   H2B 1233   3.103   2.582  10.066  1.0024 -0.4072  0.8065
   17CHL1   C20 1234   3.383   2.548   9.119  0.7328 -0.0035  0.4777
   17CHL1   H20 1235   3.446   2.640   9.116  1.7716 -0.6891  0.6889
   17CHL1   C21 1236   3.236   2.585   9.099 -0.4255 -0.4457  0.1176
   17CHL1  H21A 1237   3.222   2.644   9.006 -0.8882  3.6881  2.5342
   17CHL1  H21B 1238   3.207   2.658   9.178 -0.5848  0.5880 -0.8704
   17CHL1  H21C 1239   3.169   2.497   9.105 -0.2050 -0.7178 -1.1448
   17CHL1   C22 1240   3.429   2.464   8.999 -0.2555 -0.4282 -0.3910
   17CHL1  H22A 1241   3.395   2.527   8.914 -1.5352 -0.9571 -0.2958
   17CHL1  H22B 1242   3.540   2.451   8.999 -0.5487 -4.0041  0.8320
   17CHL1   C23 1243   3.368   2.327   8.975 -0.0758 -0.3828  0.3210
   17CHL1  H23A 1244   3.407   2.257   9.053 -0.3739  1.7289  2.4684
   17CHL1  H23B 1245   3.257   2.319   8.982 -0.1197  0.4581  0.6039
   17CHL1   C24 1246   3.391   2.275   8.838 -0.3898 -0.5367  0.8613
   17CHL1  H24A 1247   3.337   2.331   8.758 -1.8563 -0.1477  2.0798
   17CHL1  H24B 1248   3.501   2.287   8.833 -0.1989 -2.3037  0.5190
   17CHL1   C25 1249   3.352   2.124   8.826  0.0394  0.3459 -0.2301
   17CHL1   H25 1250   3.387   2.075   8.919 -0.9129 -2.6434 -1.3471
   17CHL1   C26 1251   3.199   2.102   8.814  0.5478 -0.0549  0.6165
   17CHL1  H26A 1252   3.157   2.178   8.745 -1.0570 -2.2140 -0.9157
   17CHL1  H26B 1253   3.180   2.001   8.771  1.6384  1.0418 -2.8069
   17CHL1  H26C 1254   3.151   2.109   8.914 -1.5799  0.8188 -0.4192
   17CHL1   C27 1255   3.429   2.049   8.718  0.1597 -0.4823 -0.1694
   17CHL1  H27A 1256   3.380   2.054   8.618  1.2526  0.7272 -0.6626
   17CHL1  H27B 1257   3.538   2.069   8.724  0.0354  0.3464 -0.6106
   17CHL1  H27C 1258   3.420   1.941   8.745  1.0976 -0.6923 -0.6657
   18CHL1    C3 1259   2.191   0.298  10.241 -0.0813 -0.4054  0.1604
   18CHL1    H3 1260   2.237   0.392  10.203 -1.5695  0.9979  1.6350
   18CHL1    O3 1261   2.205   0.292  10.376  0.2797 -0.2715 -0.2247
   18CHL1   H3' 1262   2.298   0.281  10.397  0.2619 -0.7408 -0.3719
   18CHL1    C4 1263   2.050   0.297  10.200  0.1324  0.3580  0.4115
   18CHL1   H4A 1264   2.004   0.205  10.242  0.2176 -2.0133 -4.0380
   18CHL1   H4B 1265   1.992   0.379  10.247 -1.4237  0.1223 -1.0141
   18CHL1    C5 1266   2.028   0.301  10.049 -0.4951 -0.3802  0.4202
   18CHL1    C6 1267   1.961   0.404   9.997  0.0272  0.4423 -1.2304
   18CHL1    H6 1268   1.908   0.473  10.064  1.6388  0.4772  0.0700
   18CHL1    C7 1269   1.954   0.430   9.853  0.9613 -0.7402 -0.0274
   18CHL1   H7A 1270   1.852   0.466   9.828  0.6692 -1.9257 -0.5957
   18CHL1   H7B 1271   2.032   0.502   9.819  2.8387 -3.0935 -0.9180
   18CHL1    C8 1272   1.987   0.306   9.763  0.0688 -0.3720 -0.3673
   18CHL1    H8 1273   1.912   0.224   9.771 -1.3832  1.0033  0.7610
   18CHL1   C14 1274   1.995   0.340   9.621 -0.0478 -0.5363  1.2792
   18CHL1   H14 1275   2.081   0.412   9.616 -0.1829 -0.4550 -0.5964
   18CHL1   C15 1276   1.887   0.414   9.551  0.1654 -0.5191  0.7974
   18CHL1  H15A 1277   1.788   0.365   9.568 -2.4440  4.1378  0.7291
   18CHL1  H15B 1278   1.871   0.522   9.575  0.2948 -0.2102 -0.4648
   18CHL1   C16 1279   1.923   0.422   9.401  0.0662 -0.0470  0.0432
   18CHL1  H16A 1280   1.829   0.389   9.351  0.4930 -1.7790  0.3112
   18CHL1  H16B 1281   1.960   0.521   9.368  0.6577 -0.6923 -1.3109
   18CHL1   C17 1282   2.034   0.309   9.385 -0.4707  0.6080 -0.0111
   18CHL1   H17 1283   2.131   0.364   9.384 -0.5592  0.7676  0.0555
   18CHL1   C13 1284   2.035   0.228   9.516 -0.1820 -0.2410  0.2228
   18CHL1   C18 1285   1.922   0.124   9.504 -0.7338  0.3776 -0.5330
   18CHL1  H18A 1286   1.904   0.086   9.606  1.0566 -0.9280 -0.6769
   18CHL1  H18B 1287   1.831   0.160   9.450 -1.2923 -0.1437  0.0497
   18CHL1  H18C 1288   1.966   0.033   9.459  0.6998  0.9347 -0.3216
   18CHL1   C12 1289   2.166   0.165   9.564 -0.3138 -0.3856 -0.6833
   18CHL1  H12A 1290   2.174   0.067   9.512  0.8266 -0.0526 -1.1801
   18CHL1  H12B 1291   2.249   0.238   9.549  0.8963 -0.9753  2.3662
   18CHL1   C11 1292   2.150   0.128   9.712 -0.8202  0.2625 -0.7687
   18CHL1  H11A 1293   2.078   0.043   9.716 -0.8534  0.3151 -0.1804
   18CHL1  H11B 1294   2.244   0.081   9.749 -1.0281  0.0825 -0.4649
   18CHL1    C9 1295   2.118   0.243   9.807 -0.3334 -0.4355  0.0614
   18CHL1    H9 1296   2.192   0.322   9.783  0.1201 -1.9035 -4.3447
   18CHL1   C10 1297   2.106   0.204   9.964 -0.7229  0.4356 -1.1202
   18CHL1   C19 1298   2.045   0.062   9.984 -0.2470  0.3285 -0.4345
   18CHL1  H19A 1299   1.960   0.055   9.912 -0.3099  2.0532 -0.5615
   18CHL1  H19B 1300   2.128  -0.007   9.960 -0.6140 -0.1793 -0.2787
   18CHL1  H19C 1301   2.007   0.046  10.088  1.6147  0.7270  0.3481
   18CHL1    C1 1302   2.255   0.198  10.016  0.0358 -0.1729  0.6708
   18CHL1   H1A 1303   2.308   0.128   9.948 -1.5129  1.5112 -2.5171
   18CHL1   H1B 1304   2.302   0.297   9.994 -0.1071 -0.3197 -0.3453
   18CHL1    C2 1305   2.265   0.181  10.169 -0.0141  0.2734 -0.8930
   18CHL1   H2A 1306   2.373   0.192  10.189 -0.4426  1.9984  0.7949
   18CHL1   H2B 1307   2.221   0.092  10.218 -0.9323  1.9439  1.5466
   18CHL1   C20 1308   2.015   0.252   9.246  0.2181 -1.6694  0.1013
   18CHL1   H20 1309   1.921   0.193   9.256 -0.9482  0.3960  2.4685
   18CHL1   C21 1310   2.125   0.147   9.219 -0.2683 -0.1930 -0.4605
   18CHL1  H21A 1311   2.116   0.066   9.295 -1.3565 -0.9025 -1.2998
   18CHL1  H21B 1312   2.226   0.193   9.211  0.3895 -1.2448  1.2604
   18CHL1  H21C 1313   2.105   0.092   9.124 -0.8604  1.5624 -1.3808
   18CHL1   C22 1314   2.001   0.356   9.134  0.3125 -0.5532  0.4774
   18CHL1  H22A 1315   1.936   0.442   9.160  0.4726 -0.4319  0.4779
   18CHL1  H22B 1316   2.102   0.399   9.115  0.2990 -0.5154  0.4908
   18CHL1   C23 1317   1.963   0.289   9.005  0.0870  0.4333 -0.4442
   18CHL1  H23A 1318   2.062   0.249   8.974  0.8615  3.5020 -2.3985
   18CHL1  H23B 1319   1.885   0.212   9.020  0.0146  0.7909  1.2284
   18CHL1   C24 1320   1.931   0.387   8.902  0.2441 -0.3492 -0.5310
   18CHL1  H24A 1321   1.824   0.411   8.916  0.2047 -1.2494  0.8579
   18CHL1  H24B 1322   1.989   0.482   8.911  0.1642 -0.3101 -0.4337
   18CHL1   C25 1323   1.938   0.327   8.763 -0.3214 -0.3381  0.1115
   18CHL1   H25 1324   2.039   0.280   8.765 -0.2637 -0.1980  0.5317
   18CHL1   C26 1325   1.835   0.218   8.724 -0.0699  0.4608 -0.1999
   18CHL1  H26A 1326   1.811   0.150   8.808  1.0205  0.7620  0.3765
   18CHL1  H26B 1327   1.744   0.279   8.707 -4.3946 -4.6074  1.9344
   18CHL1  H26C 1328   1.870   0.157   8.638  0.8822 -0.0987  0.5599
   18CHL1   C27 1329   1.949   0.435   8.654 -0.3203  0.2100  0.4781
   18CHL1  H27A 1330   1.857   0.497   8.652 -0.7017 -0.2753 -2.6340
   18CHL1  H27B 1331   2.037   0.499   8.675  0.2686  0.3276 -2.0459
   18CHL1  H27C 1332   1.959   0.385   8.555 -0.1331  0.2646  0.4700
   19CHL1    C3 1333   0.313   3.751  10.095 -0.7896  0.1055 -0.7342
   19CHL1    H3 1334   0.228   3.681  10.114 -0.3792 -0.6682 -1.6585
   19CHL1    O3 1335   0.375   3.782  10.219  0.3127  0.2196  0.0826
   19CHL1   H3' 1336   0.303   3.811  10.275 -2.4496 -0.4654 -2.8285
   19CHL1    C4 1337   0.409   3.681   9.995  0.0172 -0.0707  0.3738
   19CHL1   H4A 1338   0.505   3.737   9.992  0.7038 -1.0582  2.1899
   19CHL1   H4B 1339   0.434   3.580  10.034  1.8322 -0.4287 -1.5198
   19CHL1    C5 1340   0.362   3.665   9.852 -0.5729  0.1212  0.6223
   19CHL1    C6 1341   0.356   3.546   9.797 -0.6881 -0.3858  0.3955
   19CHL1    H6 1342   0.386   3.460   9.858  3.9297  0.6603  0.0244
   19CHL1    C7 1343   0.331   3.525   9.650  0.2084 -0.4435  0.2488
   19CHL1   H7A 1344   0.419   3.471   9.612  0.0687 -1.2285  1.0154
   19CHL1   H7B 1345   0.246   3.455   9.634 -1.1189  1.4599 -1.6073
   19CHL1    C8 1346   0.288   3.654   9.579  0.6708  0.1397 -0.4782
   19CHL1    H8 1347   0.382   3.707   9.555  1.0261 -0.2833 -0.0322
   19CHL1   C14 1348   0.205   3.623   9.457  0.1413  0.0348 -0.6990
   19CHL1   H14 1349   0.103   3.595   9.491  0.0190  0.7995 -0.4350
   19CHL1   C15 1350   0.261   3.517   9.363  0.1928 -0.2752  0.0888
   19CHL1  H15A 1351   0.370   3.531   9.347 -0.3257  1.5627 -2.4206
   19CHL1  H15B 1352   0.245   3.417   9.409 -1.7515  0.6820  1.6734
   19CHL1   C16 1353   0.171   3.526   9.239 -0.1988 -0.2335  0.3133
   19CHL1  H16A 1354   0.237   3.513   9.150  3.1527 -0.9360  2.7361
   19CHL1  H16B 1355   0.103   3.438   9.232 -0.3552 -0.4582  3.3582
   19CHL1   C17 1356   0.090   3.656   9.259 -0.2244 -0.3416  0.2415
   19CHL1   H17 1357  -0.006   3.632   9.310 -0.1971 -1.0093 -0.0088
   19CHL1   C13 1358   0.168   3.746   9.368  0.1258  0.8123  0.8864
   19CHL1   C18 1359   0.298   3.800   9.298 -0.2993 -0.9863  0.2022
   19CHL1  H18A 1360   0.372   3.823   9.377 -3.3476  1.6897  2.5401
   19CHL1  H18B 1361   0.348   3.727   9.230 -1.0270 -2.0281  0.7617
   19CHL1  H18C 1362   0.271   3.888   9.235  0.2046 -1.4787 -0.7294
   19CHL1   C12 1363   0.092   3.854   9.450 -0.3727  0.4538  0.1268
   19CHL1  H12A 1364   0.076   3.941   9.384 -1.6341  0.1898  0.0510
   19CHL1  H12B 1365  -0.005   3.805   9.474 -0.0719 -0.3945 -0.3504
   19CHL1   C11 1366   0.172   3.885   9.577  0.2631 -0.3931  0.7860
   19CHL1  H11A 1367   0.259   3.951   9.559  1.1347 -0.8011  3.2188
   19CHL1  H11B 1368   0.105   3.936   9.649 -0.0474 -2.1690  1.8140
   19CHL1    C9 1369   0.224   3.759   9.665  0.4031 -0.1151  0.5127
   19CHL1    H9 1370   0.130   3.715   9.702  1.2057 -0.3334  2.4038
   19CHL1   C10 1371   0.302   3.798   9.789  0.4758  0.5751 -0.7301
   19CHL1   C19 1372   0.418   3.889   9.762 -1.2919  0.0748  0.1100
   19CHL1  H19A 1373   0.483   3.911   9.849 -1.8604 -0.8317  0.7770
   19CHL1  H19B 1374   0.469   3.841   9.676  1.9566  1.5138  1.1129
   19CHL1  H19C 1375   0.375   3.981   9.718  1.3696  1.3400 -0.0023
   19CHL1    C1 1376   0.202   3.865   9.891  0.3933 -0.5750  0.7026
   19CHL1   H1A 1377   0.174   3.967   9.856 -3.1857 -2.1182 -1.5816
   19CHL1   H1B 1378   0.109   3.803   9.890  0.1277 -0.1835  0.6901
   19CHL1    C2 1379   0.262   3.881  10.031  0.7165 -0.0162 -0.8171
   19CHL1   H2A 1380   0.174   3.919  10.087  0.9586  1.9520 -1.6980
   19CHL1   H2B 1381   0.336   3.963  10.031  0.8123 -0.0516  1.0871
   19CHL1   C20 1382   0.048   3.727   9.130  0.6573  0.1106  0.4600
   19CHL1   H20 1383   0.042   3.836   9.151  2.8172  0.5552 -0.9065
   19CHL1   C21 1384  -0.093   3.681   9.097 -0.1103 -0.4840 -0.3041
   19CHL1  H21A 1385  -0.133   3.704   8.996  0.9228  1.7639 -0.2702
   19CHL1  H21B 1386  -0.166   3.734   9.161  0.6209  0.0995  0.0678
   19CHL1  H21C 1387  -0.100   3.571   9.110  0.1790 -0.4771 -0.0852
   19CHL1   C22 1388   0.137   3.723   9.006  0.3235 -0.0936  0.2230
   19CHL1  H22A 1389   0.229   3.781   9.029  0.1701 -0.1326  0.9596
   19CHL1  H22B 1390   0.156   3.617   8.976 -1.2856 -0.2633 -0.2735
   19CHL1   C23 1391   0.079   3.782   8.876 -0.0280  0.1313  0.2891
   19CHL1  H23A 1392  -0.016   3.728   8.855 -0.0599  0.3995 -0.2816
   19CHL1  H23B 1393   0.035   3.879   8.907 -0.6250 -0.3801  1.0837
   19CHL1   C24 1394   0.169   3.779   8.758  0.4109 -0.2054  0.9819
   19CHL1  H24A 1395   0.264   3.822   8.797  0.4197  0.6397  0.0840
   19CHL1  H24B 1396   0.187   3.674   8.726  1.8644  0.4318 -0.4449
   19CHL1   C25 1397   0.127   3.857   8.643 -0.4101  0.1447  0.5264
   19CHL1   H25 1398   0.131   3.964   8.673 -2.7854  0.5448 -0.3639
   19CHL1   C26 1399   0.228   3.842   8.526  0.1674  0.5942  0.6503
   19CHL1  H26A 1400   0.327   3.863   8.570  0.7357  0.0232 -0.3228
   19CHL1  H26B 1401   0.232   3.739   8.484  1.1671  1.3851 -1.3147
   19CHL1  H26C 1402   0.207   3.919   8.449 -0.8625  0.4329  0.7466
   19CHL1   C27 1403  -0.018   3.831   8.591  0.1615 -0.3775  0.1783
   19CHL1  H27A 1404  -0.031   3.727   8.556  2.1798 -0.8829  0.8094
   19CHL1  H27B 1405  -0.085   3.867   8.672  0.7183  1.1760 -0.0219
   19CHL1  H27C 1406  -0.034   3.908   8.512  0.8476 -1.7495 -1.3578
   20CHL1    C3 1407   0.618   4.813  10.143  0.6231 -0.0863 -0.0953
   20CHL1    H3 1408   0.727   4.813  10.167  0.4460  0.2266  0.7317
   20CHL1    O3 1409   0.545   4.803  10.265  0.1585 -0.4774  0.1044
   20CHL1   H3' 1410   0.596   4.747  10.322  1.9464  0.5256 -0.4482
   20CHL1    C4 1411   0.571   4.945  10.077 -0.4312  0.4484 -0.4122
   20CHL1   H4A 1412   0.465   4.922  10.058 -0.6876 -0.7457  2.0851
   20CHL1   H4B 1413   0.572   5.019  10.160 -2.7044  1.4084 -1.1745
   20CHL1    C5 1414   0.646   4.974   9.953 -0.5548 -0.1826  0.1845
   20CHL1    C6 1415   0.720   5.089   9.935  0.0566  0.0871 -0.2808
   20CHL1    H6 1416   0.720   5.166  10.013  0.4765 -1.5796  1.4514
   20CHL1    C7 1417   0.797   5.122   9.812 -0.2193 -0.2375  0.3975
   20CHL1   H7A 1418   0.791   5.231   9.792 -0.7889 -0.5989 -1.6481
   20CHL1   H7B 1419   0.901   5.103   9.844 -0.5501  0.1874  1.7599
   20CHL1    C8 1420   0.744   5.044   9.690 -0.5698 -0.4140 -0.0729
   20CHL1    H8 1421   0.639   5.069   9.666 -1.5097 -3.0611  0.9735
   20CHL1   C14 1422   0.831   5.060   9.563 -0.3482  0.0713  0.7001
   20CHL1   H14 1423   0.925   5.009   9.595 -0.4850  0.4071  1.6626
   20CHL1   C15 1424   0.868   5.214   9.531 -0.1035 -0.4224  0.1957
   20CHL1  H15A 1425   0.782   5.282   9.542  0.4363  0.4756 -0.9742
   20CHL1  H15B 1426   0.957   5.241   9.593  0.8470 -1.4429 -0.6820
   20CHL1   C16 1427   0.920   5.192   9.385  0.1317  0.2081 -0.5090
   20CHL1  H16A 1428   0.867   5.258   9.313  0.0444 -0.3478 -0.9532
   20CHL1  H16B 1429   1.030   5.202   9.381  0.1646 -0.2338 -0.7561
   20CHL1   C17 1430   0.890   5.042   9.329  0.0070  0.9795 -0.8777
   20CHL1   H17 1431   0.976   4.971   9.335  0.2321  1.3372  1.4758
   20CHL1   C13 1432   0.792   4.989   9.433  0.0925 -0.0847 -1.0209
   20CHL1   C18 1433   0.646   5.035   9.395 -0.8879  0.2683  0.2201
   20CHL1  H18A 1434   0.605   4.971   9.314 -0.1036 -1.5547  1.1991
   20CHL1  H18B 1435   0.568   5.017   9.472  0.2456 -1.7257  0.9653
   20CHL1  H18C 1436   0.650   5.141   9.362  2.3885  0.1221 -0.1836
   20CHL1   C12 1437   0.800   4.842   9.464 -0.1577  0.1866  0.7402
   20CHL1  H12A 1438   0.766   4.782   9.377  1.0504  0.3657  0.1204
   20CHL1  H12B 1439   0.900   4.795   9.478  0.8326  2.1840  0.7025
   20CHL1   C11 1440   0.710   4.811   9.584 -0.0370  0.6341 -1.1125
   20CHL1  H11A 1441   0.603   4.824   9.560 -1.5866 -2.2636  2.9815
   20CHL1  H11B 1442   0.712   4.703   9.611  0.6783  0.8420 -0.2801
   20CHL1    C9 1443   0.732   4.893   9.718 -0.6082  0.4057  0.4304
   20CHL1    H9 1444   0.834   4.857   9.745  0.0101 -0.1823 -2.3868
   20CHL1   C10 1445   0.648   4.862   9.846  0.1349  1.0538  0.6805
   20CHL1   C19 1446   0.510   4.850   9.785  0.1370 -0.3942 -0.0804
   20CHL1  H19A 1447   0.440   4.838   9.870  0.7961  1.5066  0.8017
   20CHL1  H19B 1448   0.485   4.936   9.718 -2.8795 -2.4704 -1.8674
   20CHL1  H19C 1449   0.499   4.758   9.723 -1.2894 -1.1012  1.1722
   20CHL1    C1 1450   0.688   4.729   9.919  0.3321 -0.0989 -0.0709
   20CHL1   H1A 1451   0.682   4.661   9.832  2.3235  0.6058 -0.8219
   20CHL1   H1B 1452   0.793   4.752   9.945 -0.4512  4.4083 -0.0645
   20CHL1    C2 1453   0.606   4.692  10.047  0.6745  0.9509  0.6269
   20CHL1   H2A 1454   0.643   4.598  10.094 -0.9869 -1.3445 -2.2546
   20CHL1   H2B 1455   0.500   4.678  10.017  0.4077  1.6813  1.1996
   20CHL1   C20 1456   0.864   5.034   9.173 -0.1565 -0.2313 -0.5474
   20CHL1   H20 1457   0.768   5.089   9.164 -2.0103 -3.4297 -1.8438
   20CHL1   C21 1458   0.855   4.887   9.130  0.0672  0.2391 -0.2502
   20CHL1  H21A 1459   0.819   4.884   9.025 -3.7481 -1.4748  0.9185
   20CHL1  H21B 1460   0.771   4.843   9.188  1.0340 -0.1260  0.9055
   20CHL1  H21C 1461   0.947   4.831   9.160 -0.5749 -1.0764 -0.6511
   20CHL1   C22 1462   0.965   5.119   9.091 -0.7397  0.1528  0.0800
   20CHL1  H22A 1463   0.967   5.227   9.119 -0.9171  0.0744  0.3988
   20CHL1  H22B 1464   1.066   5.079   9.113 -0.3265  0.3435 -1.3918
   20CHL1   C23 1465   0.953   5.110   8.941  0.3069 -0.1094  0.2034
   20CHL1  H23A 1466   1.045   5.146   8.890  0.7802 -0.7146  0.6125
   20CHL1  H23B 1467   0.952   5.007   8.899 -0.4652  0.2240 -0.6449
   20CHL1   C24 1468   0.822   5.188   8.888  0.4701 -0.0671  0.0341
   20CHL1  H24A 1469   0.731   5.127   8.909  0.9698 -0.8295 -0.0105
   20CHL1  H24B 1470   0.805   5.270   8.961 -0.7334 -0.3775  0.1228
   20CHL1   C25 1471   0.826   5.239   8.748  0.2586 -0.5154 -0.2173
   20CHL1   H25 1472   0.913   5.308   8.737  0.3281 -0.5724 -0.0233
   20CHL1   C26 1473   0.844   5.132   8.645 -0.1325  0.4732 -0.4050
   20CHL1  H26A 1474   0.853   5.167   8.540 -1.3110  1.3451 -0.2368
   20CHL1  H26B 1475   0.936   5.077   8.671 -0.4904  0.3751  0.6758
   20CHL1  H26C 1476   0.757   5.063   8.640  1.5896 -1.7445 -0.7790
   20CHL1   C27 1477   0.695   5.322   8.709 -0.8221 -0.0681 -0.4180
   20CHL1  H27A 1478   0.679   5.405   8.782 -2.8128  0.2631 -1.1621
   20CHL1  H27B 1479   0.699   5.359   8.604 -1.9389 -0.3651 -0.5831
   20CHL1  H27C 1480   0.613   5.248   8.708 -2.1957  1.3942 -1.3863
   21CHL1    C3 1481   1.075   0.913   9.977  0.1334  0.0457 -0.1048
   21CHL1    H3 1482   1.089   1.014   9.933  0.3919 -0.3567 -0.9807
   21CHL1    O3 1483   1.070   0.930  10.121 -0.5355 -0.0198 -0.4308
   21CHL1   H3' 1484   0.985   0.972  10.134 -0.3769 -0.0987  0.9903
   21CHL1    C4 1485   0.953   0.848   9.911 -0.3102 -0.8358  0.5909
   21CHL1   H4A 1486   0.947   0.748   9.960  0.8372 -1.5882 -0.7187
   21CHL1   H4B 1487   0.867   0.902   9.955 -0.5818 -0.7927  0.0067
   21CHL1    C5 1488   0.958   0.850   9.762 -0.3316 -0.4791  1.0393
   21CHL1    C6 1489   0.862   0.917   9.693 -0.7988 -0.2550 -0.4855
   21CHL1    H6 1490   0.786   0.965   9.757  1.9720  2.1723  1.2564
   21CHL1    C7 1491   0.858   0.942   9.547 -0.0790  0.4055 -0.6105
   21CHL1   H7A 1492   0.753   0.924   9.516 -0.5281 -0.6459  1.3650
   21CHL1   H7B 1493   0.894   1.047   9.536 -0.0509  0.6521  1.3840
   21CHL1    C8 1494   0.949   0.842   9.487  0.8146  0.0896  0.1142
   21CHL1    H8 1495   0.902   0.741   9.490  3.1334 -1.0863 -0.4100
   21CHL1   C14 1496   0.973   0.893   9.349 -0.1407 -0.1492 -0.0728
   21CHL1   H14 1497   1.036   0.978   9.383 -2.6894  1.1589  1.7637
   21CHL1   C15 1498   0.855   0.935   9.259 -0.2191 -0.4592 -0.2859
   21CHL1  H15A 1499   0.769   0.867   9.273 -0.7328  0.5445  1.9321
   21CHL1  H15B 1500   0.829   1.039   9.287 -0.0313 -0.8790  1.5438
   21CHL1   C16 1501   0.906   0.939   9.113 -0.0771 -0.0440 -0.6045
   21CHL1  H16A 1502   0.848   0.863   9.056 -1.7579  0.3269  0.5476
   21CHL1  H16B 1503   0.903   1.037   9.061 -0.0059  0.0836 -0.3670
   21CHL1   C17 1504   1.055   0.895   9.134  0.0721  0.1591  0.1823
   21CHL1   H17 1505   1.099   0.990   9.169  0.5074 -0.1758  0.5582
   21CHL1   C13 1506   1.059   0.807   9.259 -0.1456  0.9078 -0.3814
   21CHL1   C18 1507   0.993   0.656   9.230  0.0219  0.4268 -0.1018
   21CHL1  H18A 1508   0.897   0.671   9.177 -1.6686 -0.0656  2.6226
   21CHL1  H18B 1509   1.068   0.608   9.163 -0.7521 -0.3274 -0.4364
   21CHL1  H18C 1510   0.974   0.610   9.329  0.0940  0.0971 -0.2431
   21CHL1   C12 1511   1.201   0.789   9.322 -0.0630  0.3238  0.0876
   21CHL1  H12A 1512   1.257   0.707   9.273  1.1113  1.0628  0.1689
   21CHL1  H12B 1513   1.260   0.883   9.316  1.3165 -0.5904 -1.3891
   21CHL1   C11 1514   1.190   0.746   9.472 -0.2463 -0.2187 -0.3906
   21CHL1  H11A 1515   1.157   0.640   9.472  1.9340 -0.9509  0.0526
   21CHL1  H11B 1516   1.290   0.754   9.518  0.7333 -0.0156 -2.4244
   21CHL1    C9 1517   1.087   0.827   9.559 -0.5597  0.2632  0.8162
   21CHL1    H9 1518   1.126   0.931   9.565 -1.7516  0.7237  0.8017
   21CHL1   C10 1519   1.079   0.785   9.704  0.9077 -1.0894  0.5747
   21CHL1   C19 1520   1.063   0.637   9.723 -0.1141 -0.1289  0.2298
   21CHL1  H19A 1521   1.157   0.587   9.694  0.1361  0.3569  0.2032
   21CHL1  H19B 1522   1.038   0.607   9.828  0.1867  0.0806  0.3624
   21CHL1  H19C 1523   0.984   0.583   9.666  1.2487 -2.0004  0.0325
   21CHL1    C1 1524   1.208   0.832   9.777  0.5268 -0.2010  0.0784
   21CHL1   H1A 1525   1.301   0.780   9.746  1.7532  0.5612  2.2698
   21CHL1   H1B 1526   1.231   0.935   9.743  1.6855 -0.0568  1.2114
   21CHL1    C2 1527   1.200   0.841   9.935 -0.3205 -0.4856  0.3856
   21CHL1   H2A 1528   1.281   0.905   9.976 -1.3460  0.4259  1.0353
   21CHL1   H2B 1529   1.197   0.741   9.983  1.1204 -0.5442  0.3890
   21CHL1   C20 1530   1.128   0.854   9.007 -0.1214 -0.1668  0.2313
   21CHL1   H20 1531   1.111   0.746   8.986  1.0330 -0.2057 -0.6362
   21CHL1   C21 1532   1.279   0.856   9.034  0.5224  0.1429  0.3134
   21CHL1  H21A 1533   1.308   0.765   9.093  0.7593 -0.0914 -0.1581
   21CHL1  H21B 1534   1.311   0.952   9.080 -2.3755  0.7218  1.3175
   21CHL1  H21C 1535   1.344   0.844   8.945  0.9294 -2.2769  0.8344
   21CHL1   C22 1536   1.089   0.930   8.873  0.8786  0.0365  0.6678
   21CHL1  H22A 1537   0.979   0.941   8.875  0.8274 -0.5334  1.1722
   21CHL1  H22B 1538   1.121   1.036   8.881 -0.4077  0.4503  0.4797
   21CHL1   C23 1539   1.138   0.869   8.747 -0.4188 -0.0551  0.8019
   21CHL1  H23A 1540   1.249   0.873   8.739 -0.4016  1.8187  1.3431
   21CHL1  H23B 1541   1.103   0.764   8.741  0.1388 -0.1915 -0.2788
   21CHL1   C24 1542   1.076   0.946   8.629 -0.3403 -0.3602 -0.1896
   21CHL1  H24A 1543   0.966   0.926   8.635 -0.0460 -1.9682  0.3130
   21CHL1  H24B 1544   1.094   1.054   8.644  0.7269 -0.3730 -1.2543
   21CHL1   C25 1545   1.127   0.902   8.488 -0.6826 -0.2232 -0.1795
   21CHL1   H25 1546   1.134   0.791   8.488  2.6331 -0.1166  0.7224
   21CHL1   C26 1547   1.038   0.951   8.373  0.2526 -0.5134  0.0812
   21CHL1  H26A 1548   1.063   0.919   8.269 -1.7805 -0.0611 -0.5909
   21CHL1  H26B 1549   0.936   0.911   8.391  0.6537 -1.4354  0.4178
   21CHL1  H26C 1550   1.050   1.061   8.374  0.3188 -0.5107  1.6378
   21CHL1   C27 1551   1.268   0.958   8.466 -0.1002  0.4093  0.4242
   21CHL1  H27A 1552   1.272   1.066   8.491 -0.2584  0.4651  0.2121
   21CHL1  H27B 1553   1.348   0.906   8.524 -1.3638  0.6873  2.5048
   21CHL1  H27C 1554   1.304   0.955   8.361  0.7058  4.9324  0.3668
   22CHL1    C3 1555   1.856   1.716  10.011  0.5473  0.2823  0.5877
   22CHL1    H3 1556   1.772   1.784   9.985  0.1071  0.4938  2.3925
   22CHL1    O3 1557   1.885   1.724  10.149 -0.0036 -0.1483 -0.7250
   22CHL1   H3' 1558   1.980   1.734  10.155 -0.1659  0.6383  0.8871
   22CHL1    C4 1559   1.796   1.585   9.965  0.0930 -0.7708 -0.6096
   22CHL1   H4A 1560   1.866   1.500   9.979  2.9220  1.4061 -0.6490
   22CHL1   H4B 1561   1.702   1.563  10.020  0.7452  0.8991  1.2946
   22CHL1    C5 1562   1.770   1.592   9.806 -0.1790 -0.0474 -0.7732
   22CHL1    C6 1563   1.647   1.559   9.767  0.4778  0.7168  0.9142
   22CHL1    H6 1564   1.574   1.518   9.838  1.1653 -0.9229  0.7268
   22CHL1    C7 1565   1.616   1.555   9.623  0.2555  1.0815 -0.1569
   22CHL1   H7A 1566   1.564   1.463   9.585  1.4797  0.9685 -1.6767
   22CHL1   H7B 1567   1.532   1.624   9.602 -1.2337 -1.0753 -1.9149
   22CHL1    C8 1568   1.730   1.586   9.520  0.6384 -0.8561  0.0433
   22CHL1    H8 1569   1.796   1.498   9.504  2.5541  0.3678  0.8756
   22CHL1   C14 1570   1.671   1.634   9.388  0.6934  1.0842  0.9674
   22CHL1   H14 1571   1.612   1.725   9.409 -1.6650 -0.7389  2.9997
   22CHL1   C15 1572   1.572   1.538   9.319  0.6397 -0.5885  0.4252
   22CHL1  H15A 1573   1.603   1.431   9.322  1.3348 -0.3990  0.3416
   22CHL1  H15B 1574   1.478   1.551   9.377 -0.3172 -3.9607 -0.1316
   22CHL1   C16 1575   1.568   1.589   9.174  0.3876 -0.1430 -0.1638
   22CHL1  H16A 1576   1.571   1.507   9.100  1.5289 -0.0439 -0.2391
   22CHL1  H16B 1577   1.466   1.626   9.150 -0.4499 -3.7997 -3.0374
   22CHL1   C17 1578   1.678   1.703   9.166  0.3958 -0.6085 -0.4439
   22CHL1   H17 1579   1.632   1.794   9.211 -0.6746 -1.9035  1.2148
   22CHL1   C13 1580   1.776   1.666   9.284 -0.1602  0.2464 -0.7578
   22CHL1   C18 1581   1.864   1.548   9.236  0.6281  1.0531 -0.7293
   22CHL1  H18A 1582   1.944   1.580   9.167  2.3518  0.8260  1.0753
   22CHL1  H18B 1583   1.899   1.497   9.328 -0.4933 -0.0927 -0.9034
   22CHL1  H18C 1584   1.797   1.470   9.193 -2.3581  1.4725  2.6624
   22CHL1   C12 1585   1.863   1.778   9.344 -0.5240 -0.5252 -0.4506
   22CHL1  H12A 1586   1.940   1.809   9.271 -0.0737  1.1922  0.6939
   22CHL1  H12B 1587   1.810   1.875   9.355 -1.3668 -0.9312 -0.8680
   22CHL1   C11 1588   1.922   1.741   9.477  0.2046  0.5732  0.2498
   22CHL1  H11A 1589   1.984   1.652   9.455 -1.8713 -0.4978 -1.5232
   22CHL1  H11B 1590   1.983   1.824   9.520  0.5515  0.4518 -0.0065
   22CHL1    C9 1591   1.820   1.690   9.583 -0.8995  0.6994 -0.0978
   22CHL1    H9 1592   1.762   1.783   9.605  0.9096  2.3471 -1.9596
   22CHL1   C10 1593   1.883   1.644   9.711  0.1406 -1.0368  1.1655
   22CHL1   C19 1594   1.999   1.543   9.699 -0.0927 -0.1558  0.6074
   22CHL1  H19A 1595   2.089   1.598   9.663  0.3070 -0.3574  1.2862
   22CHL1  H19B 1596   2.023   1.500   9.798  0.3950 -0.7465  0.2394
   22CHL1  H19C 1597   1.996   1.464   9.622  4.9042  0.0722 -0.1408
   22CHL1    C1 1598   1.938   1.771   9.775 -0.1725 -0.3677  0.1895
   22CHL1   H1A 1599   2.032   1.813   9.732  0.5348 -0.9927  1.0855
   22CHL1   H1B 1600   1.872   1.860   9.773 -0.0193 -0.2253  1.0711
   22CHL1    C2 1601   1.978   1.760   9.927  0.1536 -0.2075  0.0575
   22CHL1   H2A 1602   2.018   1.853   9.974 -2.1951  0.0973  1.6291
   22CHL1   H2B 1603   2.054   1.681   9.944 -2.6157 -3.2754 -0.7728
   22CHL1   C20 1604   1.731   1.741   9.024  0.2217 -0.3139  0.0951
   22CHL1   H20 1605   1.840   1.754   9.046  0.2459 -0.9402  0.3557
   22CHL1   C21 1606   1.662   1.873   8.978 -0.2787 -0.4078 -0.2178
   22CHL1  H21A 1607   1.678   1.948   9.059  2.3185  0.7662 -1.6918
   22CHL1  H21B 1608   1.554   1.860   8.955 -0.1526 -2.1079  0.0677
   22CHL1  H21C 1609   1.716   1.903   8.886 -1.3188  0.0936 -0.6896
   22CHL1   C22 1610   1.720   1.637   8.912  0.1972  0.7703  0.2472
   22CHL1  H22A 1611   1.722   1.537   8.961 -1.1254  1.9133  2.8017
   22CHL1  H22B 1612   1.623   1.643   8.859  1.2209  1.6256 -1.6315
   22CHL1   C23 1613   1.826   1.652   8.802  0.6909 -0.0673 -0.6935
   22CHL1  H23A 1614   1.815   1.746   8.743 -0.4808  0.4034  0.2225
   22CHL1  H23B 1615   1.922   1.651   8.857  0.1377 -0.7750  0.2808
   22CHL1   C24 1616   1.830   1.531   8.706 -0.5261  0.6800  0.2977
   22CHL1  H24A 1617   1.835   1.436   8.763 -6.0822  0.8018  1.5766
   22CHL1  H24B 1618   1.733   1.527   8.650 -0.9146 -0.2559  1.0133
   22CHL1   C25 1619   1.954   1.527   8.604  0.1638 -1.2712 -0.7717
   22CHL1   H25 1620   2.043   1.537   8.671 -1.3008  0.6969  1.0470
   22CHL1   C26 1621   1.973   1.400   8.523  0.1199  0.0678  0.0773
   22CHL1  H26A 1622   2.071   1.398   8.470  1.5678 -1.3372  2.5687
   22CHL1  H26B 1623   1.986   1.316   8.595 -0.4285 -0.4397 -0.4027
   22CHL1  H26C 1624   1.891   1.365   8.456 -0.4288  0.6109  0.4617
   22CHL1   C27 1625   1.957   1.651   8.507  0.1870  0.2097 -0.6303
   22CHL1  H27A 1626   1.963   1.748   8.562 -0.0244 -0.1393  0.0093
   22CHL1  H27B 1627   2.047   1.643   8.442  1.4046 -0.2089  1.0252
   22CHL1  H27C 1628   1.876   1.649   8.432 -0.0806 -2.2270 -0.3482
   23CHL1    C3 1629   4.562   1.998  10.057 -0.7121 -0.6664  0.0712
   23CHL1    H3 1630   4.577   2.078   9.981  0.7021 -0.6463  0.3492
   23CHL1    O3 1631   4.585   2.042  10.189 -0.8043 -0.8306  0.8028
   23CHL1   H3' 1632   4.671   2.086  10.190 -1.2756  0.1514  2.0404
   23CHL1    C4 1633   4.420   1.946  10.060 -0.2052  0.0711 -1.0729
   23CHL1   H4A 1634   4.414   1.878  10.147 -2.9436  0.1860 -1.0726
   23CHL1   H4B 1635   4.364   2.034  10.100  2.2859  0.3514  2.2070
   23CHL1    C5 1636   4.373   1.882   9.928 -0.6769 -0.0704 -0.3531
   23CHL1    C6 1637   4.256   1.921   9.878 -0.2335 -0.4414  0.3385
   23CHL1    H6 1638   4.198   1.998   9.931  0.1386  0.2447 -0.2242
   23CHL1    C7 1639   4.206   1.876   9.741 -0.7661  0.3490  0.3397
   23CHL1   H7A 1640   4.097   1.856   9.748 -0.7508  0.7413  2.2056
   23CHL1   H7B 1641   4.231   1.951   9.663 -0.4042 -0.3812 -0.2549
   23CHL1    C8 1642   4.284   1.751   9.685  0.6637  0.4867 -0.3054
   23CHL1    H8 1643   4.260   1.661   9.745 -2.6305 -0.7298 -3.1497
   23CHL1   C14 1644   4.242   1.714   9.548 -0.2727  0.0845 -0.0144
   23CHL1   H14 1645   4.268   1.804   9.489 -0.1721 -1.1344 -1.9001
   23CHL1   C15 1646   4.092   1.689   9.524 -0.5340 -0.0863  0.5418
   23CHL1  H15A 1647   4.037   1.635   9.604  2.0053 -2.0661  1.0727
   23CHL1  H15B 1648   4.037   1.786   9.521 -0.2806  0.1344  1.9839
   23CHL1   C16 1649   4.092   1.619   9.391  0.3350  0.1526  0.5222
   23CHL1  H16A 1650   4.042   1.523   9.415  1.1242 -0.1850  0.8449
   23CHL1  H16B 1651   4.027   1.675   9.320  0.9079  1.0014  0.6505
   23CHL1   C17 1652   4.245   1.600   9.350 -0.6095  0.0535 -0.8683
   23CHL1   H17 1653   4.268   1.694   9.295  2.2021  1.0225  1.6894
   23CHL1   C13 1654   4.323   1.601   9.483 -0.0240  0.0775 -0.4769
   23CHL1   C18 1655   4.284   1.472   9.564  0.2827  0.5823 -0.4686
   23CHL1  H18A 1656   4.329   1.468   9.665 -0.9954  0.8533  0.1314
   23CHL1  H18B 1657   4.173   1.470   9.564  0.2803  0.0477  0.4583
   23CHL1  H18C 1658   4.318   1.382   9.508 -0.5771 -0.3268  0.4364
   23CHL1   C12 1659   4.468   1.626   9.490 -0.0024 -0.0660  0.1033
   23CHL1  H12A 1660   4.520   1.536   9.451  0.5194 -0.0196  0.6801
   23CHL1  H12B 1661   4.493   1.711   9.423 -0.1730 -2.1531 -2.7844
   23CHL1   C11 1662   4.520   1.655   9.633 -0.5616 -0.1170  0.7071
   23CHL1  H11A 1663   4.516   1.566   9.699  1.6365 -0.3198  0.6362
   23CHL1  H11B 1664   4.628   1.680   9.624 -0.5163 -0.4952  0.1256
   23CHL1    C9 1665   4.438   1.764   9.703 -0.3192 -0.2285  0.0239
   23CHL1    H9 1666   4.456   1.863   9.655  0.6642 -0.5272 -0.2510
   23CHL1   C10 1667   4.484   1.788   9.860  0.1454 -0.1539  0.6156
   23CHL1   C19 1668   4.486   1.653   9.938  0.4368 -0.0558  0.5895
   23CHL1  H19A 1669   4.566   1.586   9.899  0.6348 -0.1525  1.1487
   23CHL1  H19B 1670   4.497   1.670  10.048  1.5016  2.9738  0.1174
   23CHL1  H19C 1671   4.386   1.608   9.927  0.3024  0.1036  1.1255
   23CHL1    C1 1672   4.626   1.844   9.873  0.5634 -1.1633 -0.4367
   23CHL1   H1A 1673   4.695   1.764   9.838  0.7981 -1.3209  0.3474
   23CHL1   H1B 1674   4.639   1.933   9.808  2.2655 -1.1947 -0.1959
   23CHL1    C2 1675   4.662   1.887  10.015  0.7826 -0.0788 -0.6214
   23CHL1   H2A 1676   4.766   1.926  10.015  0.4629  0.7991 -0.9908
   23CHL1   H2B 1677   4.664   1.806  10.091  0.1642 -0.8040 -1.3580
   23CHL1   C20 1678   4.276   1.489   9.253 -0.0300 -0.5249 -0.8721
   23CHL1   H20 1679   4.293   1.397   9.313 -1.4048  0.9565  1.9941
   23CHL1   C21 1680   4.401   1.529   9.178  0.3129 -0.3050 -0.4233
   23CHL1  H21A 1681   4.441   1.448   9.113 -0.5154 -0.0723 -1.2508
   23CHL1  H21B 1682   4.479   1.554   9.252 -0.1831 -0.0573  0.0211
   23CHL1  H21C 1683   4.374   1.609   9.106 -2.0418 -1.7196 -1.2447
   23CHL1   C22 1684   4.167   1.453   9.150  0.0758 -0.3251  0.0986
   23CHL1  H22A 1685   4.074   1.433   9.206 -0.5044  2.4920  0.2564
   23CHL1  H22B 1686   4.151   1.545   9.089 -0.1022  0.8586  1.8717
   23CHL1   C23 1687   4.205   1.332   9.064  0.2194 -0.5751  0.2115
   23CHL1  H23A 1688   4.303   1.339   9.012 -0.2153 -1.6432 -0.8080
   23CHL1  H23B 1689   4.198   1.241   9.127  1.9247 -1.9691 -1.4526
   23CHL1   C24 1690   4.096   1.302   8.959  0.3321  0.1386  0.5252
   23CHL1  H24A 1691   4.005   1.272   9.016  0.0360  1.5233  0.8091
   23CHL1  H24B 1692   4.077   1.401   8.912 -0.5372  0.2538  1.0982
   23CHL1   C25 1693   4.122   1.199   8.845 -1.1329  0.1626 -0.6698
   23CHL1   H25 1694   4.169   1.117   8.903  1.2899  1.7158 -0.2685
   23CHL1   C26 1695   3.986   1.139   8.786 -0.0080  0.6243  0.5584
   23CHL1  H26A 1696   4.005   1.064   8.707  0.3042  2.1699 -0.8880
   23CHL1  H26B 1697   3.926   1.090   8.866  1.6378  0.7891  1.9383
   23CHL1  H26C 1698   3.934   1.223   8.734 -0.8193 -0.4309 -0.3702
   23CHL1   C27 1699   4.220   1.245   8.742 -0.2243 -0.1494 -0.3432
   23CHL1  H27A 1700   4.242   1.160   8.673 -3.4594 -0.9126 -0.6107
   23CHL1  H27B 1701   4.177   1.335   8.695  0.1401  0.0508 -0.2979
   23CHL1  H27C 1702   4.314   1.270   8.796 -0.4868  0.2357 -0.0605
   24CHL1    C3 1703   5.426   4.168  10.017 -0.0027 -1.0652 -0.7384
   24CHL1    H3 1704   5.335   4.114   9.984 -2.2918  0.8700  1.9702
   24CHL1    O3 1705   5.436   4.186  10.155  0.1794 -0.3593  0.1358
   24CHL1   H3' 1706   5.526   4.155  10.170  0.0305 -1.1181 -0.4436
   24CHL1    C4 1707   5.546   4.093   9.958  0.3103 -0.0739 -0.5611
   24CHL1   H4A 1708   5.642   4.142   9.985 -0.6075  1.5405 -0.0755
   24CHL1   H4B 1709   5.532   3.990   9.998 -1.7715  0.4018  0.0620
   24CHL1    C5 1710   5.538   4.082   9.806  1.2688  0.5441 -0.6755
   24CHL1    C6 1711   5.529   3.955   9.752  0.1435 -0.5933  0.1248
   24CHL1    H6 1712   5.542   3.864   9.812  1.4599 -1.0321 -0.7698
   24CHL1    C7 1713   5.526   3.940   9.604 -0.3334 -1.4236 -0.1502
   24CHL1   H7A 1714   5.609   3.870   9.578  1.4442  0.7455 -0.6546
   24CHL1   H7B 1715   5.431   3.891   9.573 -1.2864  0.3763 -0.1915
   24CHL1    C8 1716   5.543   4.073   9.514 -0.2997  0.2160 -0.0080
   24CHL1    H8 1717   5.651   4.095   9.500 -0.4853  0.7581 -0.6291
   24CHL1   C14 1718   5.478   4.060   9.378  0.1928  0.6341 -0.0025
   24CHL1   H14 1719   5.372   4.041   9.404 -0.1103 -0.0978 -1.6368
   24CHL1   C15 1720   5.517   3.941   9.290 -0.0630 -0.1943 -0.1726
   24CHL1  H15A 1721   5.626   3.919   9.300 -0.1359 -1.4432 -1.8341
   24CHL1  H15B 1722   5.453   3.853   9.308 -0.7747  0.3448 -0.0223
   24CHL1   C16 1723   5.480   3.977   9.147  0.4801 -0.5497 -1.0136
   24CHL1  H16A 1724   5.570   3.965   9.084  1.3122 -2.3123  0.4156
   24CHL1  H16B 1725   5.398   3.916   9.102 -1.0430 -0.1604  1.0512
   24CHL1   C17 1726   5.430   4.124   9.152 -0.1290  0.1833 -0.4078
   24CHL1   H17 1727   5.319   4.116   9.160 -0.2633  1.5680 -0.5673
   24CHL1   C13 1728   5.480   4.187   9.284  0.2852 -0.1441  0.3072
   24CHL1   C18 1729   5.625   4.244   9.265 -0.2402 -0.4273 -0.0801
   24CHL1  H18A 1730   5.682   4.246   9.360  2.6846 -0.9126 -1.7187
   24CHL1  H18B 1731   5.682   4.180   9.194  3.3410  2.2378  0.0929
   24CHL1  H18C 1732   5.624   4.345   9.220  2.5798  0.8743  2.4118
   24CHL1   C12 1733   5.393   4.294   9.363  0.9044  0.3409 -0.1099
   24CHL1  H12A 1734   5.409   4.388   9.306  1.0852 -0.2299 -1.0123
   24CHL1  H12B 1735   5.283   4.275   9.363  0.9726 -0.3080  1.6743
   24CHL1   C11 1736   5.459   4.311   9.500  0.0545 -0.1802  0.9678
   24CHL1  H11A 1737   5.562   4.351   9.487 -0.3009  0.8450  1.2256
   24CHL1  H11B 1738   5.400   4.395   9.542  1.0289  2.0957 -1.8544
   24CHL1    C9 1739   5.466   4.184   9.585 -0.3682  0.5650 -0.0729
   24CHL1    H9 1740   5.360   4.152   9.598 -0.5951  1.6277  0.9422
   24CHL1   C10 1741   5.517   4.216   9.733  0.2584 -0.9321  0.3147
   24CHL1   C19 1742   5.653   4.284   9.722  0.3527 -0.3649  0.1154
   24CHL1  H19A 1743   5.703   4.304   9.818 -0.4247  1.5188  0.1739
   24CHL1  H19B 1744   5.723   4.227   9.657 -0.1831  1.0573 -1.8025
   24CHL1  H19C 1745   5.651   4.386   9.677  0.9563  0.6000  2.1886
   24CHL1    C1 1746   5.408   4.307   9.813  0.8602 -0.3052  0.7713
   24CHL1   H1A 1747   5.400   4.413   9.781 -1.2834 -0.5813  0.2644
   24CHL1   H1B 1748   5.312   4.257   9.787  1.2526  0.1034 -1.7642
   24CHL1    C2 1749   5.426   4.309   9.965  0.6923 -0.6362  0.5426
   24CHL1   H2A 1750   5.339   4.359  10.013 -0.5081 -1.2080 -0.9716
   24CHL1   H2B 1751   5.514   4.364  10.005 -0.0268  0.8186  0.1903
   24CHL1   C20 1752   5.451   4.214   9.030 -0.0056  0.1120  0.1013
   24CHL1   H20 1753   5.562   4.219   9.017 -0.2690  0.7360 -2.3433
   24CHL1   C21 1754   5.386   4.352   9.041  0.0022  0.4999 -0.4296
   24CHL1  H21A 1755   5.292   4.348   9.099  0.6450  1.5187  0.7375
   24CHL1  H21B 1756   5.373   4.408   8.946 -0.1064  0.5347 -0.3942
   24CHL1  H21C 1757   5.462   4.415   9.093  0.3177  0.2764 -0.6212
   24CHL1   C22 1758   5.412   4.141   8.900 -0.1710 -0.3409  0.7052
   24CHL1  H22A 1759   5.448   4.194   8.809  1.5877 -2.3357  0.1540
   24CHL1  H22B 1760   5.469   4.046   8.895  0.6843  0.1551  0.8652
   24CHL1   C23 1761   5.263   4.120   8.878 -0.0188  0.3159  0.2796
   24CHL1  H23A 1762   5.224   4.063   8.965  1.2809  0.3597  0.9187
   24CHL1  H23B 1763   5.219   4.222   8.879  1.3542  0.9229  1.0552
   24CHL1   C24 1764   5.236   4.051   8.742  0.0657  0.2718 -0.1120
   24CHL1  H24A 1765   5.284   4.092   8.651 -1.4383  0.8415 -0.6859
   24CHL1  H24B 1766   5.268   3.945   8.736 -0.3008  0.1399  0.1891
   24CHL1   C25 1767   5.083   4.043   8.703  0.4872 -0.8905  0.2556
   24CHL1   H25 1768   5.035   3.997   8.792 -1.9070  0.3755 -0.2854
   24CHL1   C26 1769   5.009   4.176   8.683 -0.5698 -0.1321 -0.1037
   24CHL1  H26A 1770   5.071   4.254   8.634  0.3135 -1.9343 -1.9989
   24CHL1  H26B 1771   4.917   4.162   8.622  0.7169 -3.6072 -1.4522
   24CHL1  H26C 1772   4.983   4.213   8.785 -2.0053 -1.6458  0.1280
   24CHL1   C27 1773   5.064   3.957   8.577 -0.2906 -0.8626 -0.4102
   24CHL1  H27A 1774   5.116   3.859   8.588  0.0262 -0.7158 -0.6035
   24CHL1  H27B 1775   4.960   3.925   8.556 -0.4513 -0.8092  0.2759
   24CHL1  H27C 1776   5.095   4.022   8.493 -3.7357  0.2265 -0.9695
   25CHL1    C3 1777   6.249   5.269  10.446 -0.4179 -0.1151 -0.0891
   25CHL1    H3 1778   6.245   5.160  10.464  0.6517 -0.0793  0.4479
   25CHL1    O3 1779   6.207   5.317  10.575 -0.1146 -0.0732  0.0478
   25CHL1   H3' 1780   6.115   5.298  10.592  0.3187 -0.7162  1.8645
   25CHL1    C4 1781   6.395   5.301  10.410  0.5758 -0.9537 -0.4990
   25CHL1   H4A 1782   6.409   5.406  10.444  3.3163 -1.3996 -0.0612
   25CHL1   H4B 1783   6.461   5.244  10.479 -0.1431 -1.5702 -0.2940
   25CHL1    C5 1784   6.430   5.269  10.268 -0.5481  0.5986  0.3072
   25CHL1    C6 1785   6.549   5.220  10.233  0.3105  0.3318 -0.2724
   25CHL1    H6 1786   6.627   5.198  10.309 -0.0293  0.5892  0.1512
   25CHL1    C7 1787   6.592   5.186  10.097 -0.0440  0.0911  0.0465
   25CHL1   H7A 1788   6.698   5.211  10.075  0.2170 -1.3689 -0.4655
   25CHL1   H7B 1789   6.582   5.079  10.068  0.3637  0.0305  0.1271
   25CHL1    C8 1790   6.508   5.257   9.986  0.5163  0.3714  0.5770
   25CHL1    H8 1791   6.533   5.365   9.994  0.8422  0.2064  2.0184
   25CHL1   C14 1792   6.545   5.204   9.850 -0.6145 -0.2559  0.3264
   25CHL1   H14 1793   6.514   5.097   9.846  0.3217 -0.5586  0.8614
   25CHL1   C15 1794   6.695   5.207   9.810 -0.2855  0.1112  0.4721
   25CHL1  H15A 1795   6.743   5.298   9.851  1.4334  0.1979 -1.5540
   25CHL1  H15B 1796   6.749   5.117   9.847 -0.1484 -0.5037 -1.1175
   25CHL1   C16 1797   6.694   5.200   9.658  0.9414 -0.1922  0.0116
   25CHL1  H16A 1798   6.755   5.287   9.625  0.3696  0.1067 -0.2621
   25CHL1  H16B 1799   6.730   5.106   9.609 -0.3768 -0.6391 -0.1218
   25CHL1   C17 1800   6.550   5.217   9.612 -0.0753  0.5815 -0.5633
   25CHL1   H17 1801   6.516   5.113   9.593  2.1740 -0.4514  0.7533
   25CHL1   C13 1802   6.476   5.278   9.739 -0.2437 -0.4226 -0.0959
   25CHL1   C18 1803   6.517   5.432   9.739 -0.1240 -0.3071  0.2659
   25CHL1  H18A 1804   6.476   5.479   9.831 -0.5425 -0.5840  0.2202
   25CHL1  H18B 1805   6.628   5.440   9.739 -0.1526  0.1857  0.9623
   25CHL1  H18C 1806   6.473   5.482   9.651 -0.1914  0.5914  0.8063
   25CHL1   C12 1807   6.320   5.270   9.753 -0.6192 -0.0171  1.0866
   25CHL1  H12A 1808   6.266   5.339   9.684  1.8888  1.3293  0.3210
   25CHL1  H12B 1809   6.285   5.168   9.727 -1.4403  0.2455  1.1354
   25CHL1   C11 1810   6.274   5.309   9.898  0.0327  1.0453  0.0311
   25CHL1  H11A 1811   6.292   5.418   9.903 -1.4854  1.2737  1.8037
   25CHL1  H11B 1812   6.167   5.281   9.906  0.3264 -0.4638 -0.8668
   25CHL1    C9 1813   6.363   5.251  10.015 -0.2763 -0.4975  0.1070
   25CHL1    H9 1814   6.334   5.144  10.020 -2.5623  0.1130  2.2874
   25CHL1   C10 1815   6.328   5.308  10.157 -0.8411  0.2901 -0.2399
   25CHL1   C19 1816   6.336   5.462  10.161  0.4324  0.6056  0.0090
   25CHL1  H19A 1817   6.313   5.506  10.260  0.4899 -3.3280  1.9391
   25CHL1  H19B 1818   6.431   5.493  10.113  0.6688 -2.5600 -1.9015
   25CHL1  H19C 1819   6.259   5.493  10.087  0.3353 -0.5193 -0.3840
   25CHL1    C1 1820   6.186   5.261  10.202  0.4939  0.4127  0.2948
   25CHL1   H1A 1821   6.110   5.284  10.125  1.2596 -0.2601 -0.6778
   25CHL1   H1B 1822   6.175   5.152  10.186 -0.6045  0.6808 -0.8794
   25CHL1    C2 1823   6.145   5.306  10.345  0.2303  0.0249 -0.2164
   25CHL1   H2A 1824   6.050   5.249  10.358 -0.2007  0.4151 -1.4892
   25CHL1   H2B 1825   6.113   5.411  10.332  1.5759  0.2642 -1.7637
   25CHL1   C20 1826   6.538   5.290   9.476  0.4805 -0.7120  0.0503
   25CHL1   H20 1827   6.541   5.401   9.479 -0.7865 -0.6583  0.0754
   25CHL1   C21 1828   6.391   5.265   9.435 -0.3153 -0.1545  0.1124
   25CHL1  H21A 1829   6.372   5.156   9.431 -0.5905 -0.1602  1.2611
   25CHL1  H21B 1830   6.373   5.312   9.336 -1.0448  0.9187  0.7277
   25CHL1  H21C 1831   6.312   5.322   9.490 -1.2268  0.1317 -1.4224
   25CHL1   C22 1832   6.640   5.223   9.378  0.1183  0.2410  0.2325
   25CHL1  H22A 1833   6.744   5.254   9.401  0.9243 -2.6571  0.8801
   25CHL1  H22B 1834   6.621   5.114   9.388 -2.1248  0.7127  1.7690
   25CHL1   C23 1835   6.626   5.252   9.222 -0.0776 -0.6143  0.2658
   25CHL1  H23A 1836   6.532   5.201   9.193 -0.8082  0.1061  1.3013
   25CHL1  H23B 1837   6.614   5.360   9.201  0.1411 -0.6845 -0.2348
   25CHL1   C24 1838   6.743   5.199   9.135  0.2817 -0.4251  1.5474
   25CHL1  H24A 1839   6.844   5.215   9.179  0.5653  0.2626  0.6812
   25CHL1  H24B 1840   6.729   5.089   9.123 -0.0588 -0.5874  3.1557
   25CHL1   C25 1841   6.757   5.270   8.996 -0.0436 -0.2784  0.3874
   25CHL1   H25 1842   6.655   5.279   8.953  0.2734  0.7767 -0.1701
   25CHL1   C26 1843   6.818   5.411   9.025 -0.2231 -0.1586  0.3273
   25CHL1  H26A 1844   6.746   5.481   9.073 -0.7368  1.2888 -2.3578
   25CHL1  H26B 1845   6.898   5.413   9.103 -1.4478 -1.8889  1.7084
   25CHL1  H26C 1846   6.866   5.465   8.941  1.2925 -1.3240  0.4101
   25CHL1   C27 1847   6.845   5.191   8.897  0.0166 -0.1983  0.5903
   25CHL1  H27A 1848   6.952   5.213   8.918  1.1878 -2.6601 -2.0490
   25CHL1  H27B 1849   6.827   5.081   8.901 -0.7821 -0.1753 -1.2428
   25CHL1  H27C 1850   6.808   5.205   8.793 -0.4832 -1.6103  0.5478
   26CHL1    C3 1851   2.372   1.725  10.005  0.1915  0.1232 -0.3387
   26CHL1    H3 1852   2.267   1.695   9.986 -0.3579  2.5223 -1.4122
   26CHL1    O3 1853   2.407   1.714  10.139 -0.5654  0.2595 -0.2807
   26CHL1   H3' 1854   2.501   1.735  10.143 -0.3470 -0.8746  1.1171
   26CHL1    C4 1855   2.463   1.655   9.907 -1.1471  0.7696 -0.5899
   26CHL1   H4A 1856   2.572   1.672   9.925 -1.2295  1.0099 -0.3130
   26CHL1   H4B 1857   2.454   1.550   9.941  1.9456  0.4855 -0.3089
   26CHL1    C5 1858   2.436   1.669   9.761  0.2609  0.0151  0.0291
   26CHL1    C6 1859   2.408   1.567   9.681  0.3688  0.7239 -0.9567
   26CHL1    H6 1860   2.410   1.463   9.718  0.8798  0.9015 -0.4662
   26CHL1    C7 1861   2.391   1.576   9.535 -0.7380  0.2335 -0.4666
   26CHL1   H7A 1862   2.453   1.504   9.479  0.1007  0.9288 -0.4579
   26CHL1   H7B 1863   2.285   1.549   9.514 -0.5636 -3.1001  2.1778
   26CHL1    C8 1864   2.428   1.710   9.477  0.0717 -0.4791 -1.0900
   26CHL1    H8 1865   2.538   1.711   9.487  0.0098 -0.3923 -0.3284
   26CHL1   C14 1866   2.366   1.728   9.342 -0.7881 -0.3620  0.0252
   26CHL1   H14 1867   2.257   1.719   9.362 -0.7329 -3.5155 -0.6912
   26CHL1   C15 1868   2.384   1.620   9.237  0.0943  0.2209 -0.2118
   26CHL1  H15A 1869   2.488   1.583   9.249 -0.6729 -2.3162 -0.8015
   26CHL1  H15B 1870   2.320   1.530   9.247  2.0967 -1.0616  1.7784
   26CHL1   C16 1871   2.364   1.701   9.100 -0.5656  0.5173  0.3114
   26CHL1  H16A 1872   2.460   1.711   9.046 -1.3108  0.3946 -1.0641
   26CHL1  H16B 1873   2.290   1.654   9.032 -1.3469  0.1485  1.3707
   26CHL1   C17 1874   2.326   1.846   9.138  0.2051  0.2519  0.4411
   26CHL1   H17 1875   2.216   1.849   9.150 -0.1476 -0.6863 -1.9502
   26CHL1   C13 1876   2.390   1.864   9.277 -0.6224 -0.0978  0.6969
   26CHL1   C18 1877   2.547   1.883   9.261  0.0052 -0.6173 -0.1969
   26CHL1  H18A 1878   2.556   1.984   9.215  1.6674 -1.1384 -1.0807
   26CHL1  H18B 1879   2.600   1.861   9.356  1.4721 -1.0944 -1.0882
   26CHL1  H18C 1880   2.589   1.813   9.186  1.2145  0.1160 -0.2309
   26CHL1   C12 1881   2.326   1.972   9.361 -1.0649 -0.3518  0.2845
   26CHL1  H12A 1882   2.349   2.076   9.327 -1.3939  0.2189  1.7329
   26CHL1  H12B 1883   2.217   1.965   9.342 -0.9620 -0.5887 -0.2563
   26CHL1   C11 1884   2.366   1.961   9.506  0.1708  0.1853 -0.1714
   26CHL1  H11A 1885   2.472   1.994   9.517  1.0936 -2.5827  0.1218
   26CHL1  H11B 1886   2.299   2.029   9.564  0.0787  0.3058 -0.4195
   26CHL1    C9 1887   2.365   1.816   9.562  0.5711 -0.0676  0.1377
   26CHL1    H9 1888   2.258   1.788   9.571  0.7957 -1.4852 -1.0498
   26CHL1   C10 1889   2.425   1.813   9.708 -0.0070  0.1471 -0.4909
   26CHL1   C19 1890   2.573   1.859   9.706  0.0526 -0.7214 -0.4839
   26CHL1  H19A 1891   2.579   1.969   9.690 -3.1741 -0.0818  1.6467
   26CHL1  H19B 1892   2.616   1.843   9.807 -1.0971 -0.7746  0.0189
   26CHL1  H19C 1893   2.633   1.798   9.637 -0.8896 -1.5399 -0.6026
   26CHL1    C1 1894   2.343   1.893   9.816  0.0765 -0.8400 -0.0266
   26CHL1   H1A 1895   2.355   2.002   9.798  0.2137 -0.4805  2.0130
   26CHL1   H1B 1896   2.238   1.859   9.805 -0.1991 -0.0564  0.1101
   26CHL1    C2 1897   2.375   1.875   9.967  0.4009  0.2941  0.1676
   26CHL1   H2A 1898   2.287   1.917  10.021 -1.1369 -1.5763 -0.7487
   26CHL1   H2B 1899   2.475   1.914   9.994  0.6478  0.1316 -0.5073
   26CHL1   C20 1900   2.342   1.949   9.023  0.0004  0.6502  0.1918
   26CHL1   H20 1901   2.443   1.937   8.978 -0.5523 -0.9761 -0.6969
   26CHL1   C21 1902   2.334   2.098   9.069 -0.4470  0.9609  0.1815
   26CHL1  H21A 1903   2.346   2.172   8.986  0.2030 -0.7121 -1.2752
   26CHL1  H21B 1904   2.413   2.117   9.145  0.2350 -2.1410  0.3751
   26CHL1  H21C 1905   2.234   2.115   9.114 -1.5950 -1.0425 -1.4186
   26CHL1   C22 1906   2.244   1.930   8.906 -0.2727  0.5078 -0.2402
   26CHL1  H22A 1907   2.248   1.823   8.873 -1.2535  0.2143  0.5661
   26CHL1  H22B 1908   2.146   1.965   8.942 -0.0565 -0.1013  0.9931
   26CHL1   C23 1909   2.283   2.022   8.785  0.0121 -0.6313  0.0940
   26CHL1  H23A 1910   2.244   2.126   8.795  0.1143 -0.1907 -3.0135
   26CHL1  H23B 1911   2.392   2.041   8.775 -0.0050 -0.4220  0.2736
   26CHL1   C24 1912   2.222   1.969   8.656  0.0965 -0.2856  0.3162
   26CHL1  H24A 1913   2.269   1.871   8.636  0.4495 -0.1703  0.5586
   26CHL1  H24B 1914   2.114   1.944   8.666  0.1331 -1.1723 -1.2724
   26CHL1   C25 1915   2.244   2.063   8.525 -0.1260 -0.2330 -0.9712
   26CHL1   H25 1916   2.187   2.153   8.555 -0.7091 -0.9406  0.1265
   26CHL1   C26 1917   2.388   2.107   8.508  0.5719 -0.4978 -0.0413
   26CHL1  H26A 1918   2.398   2.173   8.419  2.1665 -0.7756 -0.0799
   26CHL1  H26B 1919   2.432   2.160   8.595 -0.1800 -1.2022  0.7892
   26CHL1  H26C 1920   2.459   2.029   8.474  1.4461  1.2681 -2.5830
   26CHL1   C27 1921   2.197   2.006   8.397  0.1052 -0.0030 -0.4832
   26CHL1  H27A 1922   2.247   1.907   8.387  3.3679  1.4487  0.1149
   26CHL1  H27B 1923   2.087   1.995   8.398 -0.3812  2.6057  4.1262
   26CHL1  H27C 1924   2.224   2.077   8.316  2.5172  0.1207  0.3272
   27CHL1    C3 1925   6.755   5.652  10.393 -0.4318 -0.2719 -0.4017
   27CHL1    H3 1926   6.803   5.553  10.386 -1.4621 -0.8690  0.7314
   27CHL1    O3 1927   6.710   5.662  10.524  0.5047 -0.1105  0.1531
   27CHL1   H3' 1928   6.615   5.646  10.525  0.4557  0.1762  1.1609
   27CHL1    C4 1929   6.850   5.763  10.354 -0.2685  0.0336  1.0664
   27CHL1   H4A 1930   6.790   5.856  10.365 -1.3326 -0.8574  3.2753
   27CHL1   H4B 1931   6.930   5.753  10.430  1.7108  0.2631 -0.8548
   27CHL1    C5 1932   6.903   5.746  10.216  0.4278  0.3778  0.0682
   27CHL1    C6 1933   7.032   5.736  10.187 -0.1977 -0.2722 -0.2402
   27CHL1    H6 1934   7.099   5.734  10.275  0.7009 -1.7318 -0.9167
   27CHL1    C7 1935   7.097   5.718  10.057  0.4165 -0.4880  0.4253
   27CHL1   H7A 1936   7.193   5.773  10.044  0.7058 -1.0889 -0.0527
   27CHL1   H7B 1937   7.129   5.612  10.053 -0.0242 -0.6793  1.5433
   27CHL1    C8 1938   6.992   5.755   9.945 -0.4982  0.2773 -0.7693
   27CHL1    H8 1939   6.983   5.865   9.935  2.0855  0.8896  2.0279
   27CHL1   C14 1940   7.049   5.690   9.811  0.0868 -1.1814 -1.3893
   27CHL1   H14 1941   7.051   5.580   9.822  1.4640 -1.0509  0.0377
   27CHL1   C15 1942   7.194   5.721   9.767  0.5806 -1.0886  0.2792
   27CHL1  H15A 1943   7.221   5.823   9.803 -2.9758 -0.3677  1.3558
   27CHL1  H15B 1944   7.257   5.637   9.803 -1.3462 -3.2628 -1.1051
   27CHL1   C16 1945   7.196   5.709   9.610  0.1036 -0.4597 -0.2885
   27CHL1  H16A 1946   7.224   5.805   9.560  3.2100 -1.0854  0.0119
   27CHL1  H16B 1947   7.266   5.627   9.581  2.3828  0.9263  0.9571
   27CHL1   C17 1948   7.045   5.667   9.572  0.1060  0.1457  0.2955
   27CHL1   H17 1949   7.045   5.556   9.581  0.4978  0.1020 -0.2080
   27CHL1   C13 1950   6.955   5.721   9.690  0.0649  0.5438 -0.6617
   27CHL1   C18 1951   6.936   5.878   9.674 -0.2671  0.4439 -0.0893
   27CHL1  H18A 1952   6.891   5.927   9.763 -0.9319  1.7055 -1.0913
   27CHL1  H18B 1953   7.031   5.931   9.651 -0.3877  0.9459  0.5396
   27CHL1  H18C 1954   6.869   5.899   9.588 -0.7055  0.7074  0.3127
   27CHL1   C12 1955   6.818   5.660   9.724 -0.8094 -0.6978 -0.3100
   27CHL1  H12A 1956   6.749   5.692   9.643 -0.6180 -1.9781 -1.0129
   27CHL1  H12B 1957   6.832   5.550   9.711 -1.4963 -1.1544  2.1868
   27CHL1   C11 1958   6.757   5.701   9.858 -0.3230 -0.1739 -0.0132
   27CHL1  H11A 1959   6.734   5.808   9.838  2.0406  0.3535 -0.2494
   27CHL1  H11B 1960   6.661   5.647   9.872  0.5398 -1.6240  0.5548
   27CHL1    C9 1961   6.853   5.691   9.978  0.2353  0.2620 -0.0591
   27CHL1    H9 1962   6.864   5.581   9.991 -1.6924  0.2021  1.5013
   27CHL1   C10 1963   6.789   5.737  10.113 -0.6747  0.1092  0.2674
   27CHL1   C19 1964   6.717   5.879  10.094  0.6029  0.1291 -0.2651
   27CHL1  H19A 1965   6.695   5.919  10.195 -0.2045  3.1927 -1.5306
   27CHL1  H19B 1966   6.783   5.934  10.023  0.4557 -0.0653 -0.5533
   27CHL1  H19C 1967   6.615   5.863  10.053  0.9668  1.6490 -1.8927
   27CHL1    C1 1968   6.682   5.634  10.156  0.1052 -0.0953  0.0043
   27CHL1   H1A 1969   6.593   5.628  10.089  0.2194 -1.5072 -0.0618
   27CHL1   H1B 1970   6.716   5.528  10.155  0.7745  0.1129 -1.2922
   27CHL1    C2 1971   6.631   5.646  10.303  0.6903 -0.2064  0.3905
   27CHL1   H2A 1972   6.564   5.559  10.319  0.2572  0.0236 -0.1215
   27CHL1   H2B 1973   6.560   5.731  10.312  0.8167 -0.2554  2.4457
   27CHL1   C20 1974   6.997   5.682   9.427  0.5544  0.6035  0.1417
   27CHL1   H20 1975   6.959   5.784   9.406  0.9619  0.9313  0.9685
   27CHL1   C21 1976   6.878   5.575   9.395 -1.4082  0.1750 -0.9173
   27CHL1  H21A 1977   6.855   5.590   9.287  0.9803  0.7362 -1.4073
   27CHL1  H21B 1978   6.792   5.584   9.464 -1.1015 -2.0256 -0.1299
   27CHL1  H21C 1979   6.924   5.475   9.417 -1.9371  0.4512  1.7174
   27CHL1   C22 1980   7.109   5.667   9.326 -0.1125 -0.4814  0.2465
   27CHL1  H22A 1981   7.077   5.709   9.228  3.6870  0.0411 -0.9291
   27CHL1  H22B 1982   7.189   5.734   9.361  0.2392  0.4558 -2.2026
   27CHL1   C23 1983   7.160   5.523   9.309  0.7195 -0.1293 -0.1806
   27CHL1  H23A 1984   7.166   5.469   9.406  3.7356 -0.7250 -0.6128
   27CHL1  H23B 1985   7.083   5.470   9.247  0.1678  2.3548 -1.7488
   27CHL1   C24 1986   7.298   5.509   9.243 -0.2642  0.0665  0.3084
   27CHL1  H24A 1987   7.377   5.576   9.284  0.3716 -0.8966  0.6795
   27CHL1  H24B 1988   7.340   5.410   9.270 -0.0193 -1.2298 -4.0384
   27CHL1   C25 1989   7.300   5.532   9.088  0.1506  0.0172 -0.0513
   27CHL1   H25 1990   7.228   5.613   9.066 -0.8856 -1.1531 -1.1043
   27CHL1   C26 1991   7.440   5.571   9.033  0.6354  0.1065 -0.1487
   27CHL1  H26A 1992   7.482   5.658   9.087  0.0070  0.2887  0.0524
   27CHL1  H26B 1993   7.510   5.489   9.059  1.6883  0.4889 -1.6729
   27CHL1  H26C 1994   7.430   5.582   8.923  0.0531 -1.8971 -0.3481
   27CHL1   C27 1995   7.235   5.404   9.026 -0.1188 -0.5014  0.2661
   27CHL1  H27A 1996   7.306   5.318   9.032  1.1110  0.4440 -0.3765
   27CHL1  H27B 1997   7.149   5.361   9.082  0.0853 -0.0881  0.9061
   27CHL1  H27C 1998   7.214   5.417   8.918 -0.1267  1.6540  0.5004
   28CHL1    C3 1999   0.542   4.242   9.903  0.1621  0.4944 -0.5744
   28CHL1    H3 2000   0.500   4.142   9.882  2.0980 -0.6547  0.7474
   28CHL1    O3 2001   0.601   4.241  10.035 -0.2083  0.4493  0.2148
   28CHL1   H3' 2002   0.592   4.152  10.070  3.6705  0.0517  0.6843
   28CHL1    C4 2003   0.650   4.255   9.804  0.3455 -0.6889 -0.2422
   28CHL1   H4A 2004   0.681   4.361   9.815 -0.0830 -0.1298 -3.5500
   28CHL1   H4B 2005   0.736   4.186   9.817  0.8740 -0.4237 -2.1088
   28CHL1    C5 2006   0.602   4.261   9.661 -0.1475 -0.1039 -0.6632
   28CHL1    C6 2007   0.653   4.182   9.568  0.0058 -0.3335 -0.5767
   28CHL1    H6 2008   0.731   4.109   9.594 -0.9092 -1.3625 -0.6131
   28CHL1    C7 2009   0.597   4.162   9.435  0.2429 -0.0912  0.3393
   28CHL1   H7A 2010   0.684   4.152   9.366  0.0092  1.3235 -0.1964
   28CHL1   H7B 2011   0.539   4.068   9.433  1.5768 -0.9521  0.3870
   28CHL1    C8 2012   0.508   4.282   9.386 -0.0883  0.6921  0.0903
   28CHL1    H8 2013   0.569   4.372   9.367  0.2714  0.1602 -1.3929
   28CHL1   C14 2014   0.427   4.244   9.261 -0.4180  0.2304  0.4512
   28CHL1   H14 2015   0.383   4.150   9.302 -1.9453  0.6639 -0.1383
   28CHL1   C15 2016   0.499   4.208   9.125  0.6402 -0.0427  0.0414
   28CHL1  H15A 2017   0.582   4.281   9.107 -0.1176  0.5972 -0.9428
   28CHL1  H15B 2018   0.540   4.105   9.128 -2.4031 -1.3221  1.9833
   28CHL1   C16 2019   0.398   4.232   9.013  0.5177 -0.1282 -0.0144
   28CHL1  H16A 2020   0.424   4.326   8.961  0.1895  0.5860  1.0604
   28CHL1  H16B 2021   0.388   4.151   8.938  0.2724 -2.0139  1.9300
   28CHL1   C17 2022   0.261   4.263   9.091  0.1778 -0.1447  0.3653
   28CHL1   H17 2023   0.230   4.160   9.121 -0.0030 -1.3268 -3.4328
   28CHL1   C13 2024   0.315   4.335   9.218  0.2358  0.6907  0.3713
   28CHL1   C18 2025   0.365   4.477   9.168  0.1066 -0.1536  0.5279
   28CHL1  H18A 2026   0.433   4.528   9.240 -0.4387  0.3377  0.7072
   28CHL1  H18B 2027   0.417   4.477   9.070  0.2114  1.1308  0.5668
   28CHL1  H18C 2028   0.278   4.545   9.157 -2.3347 -2.8168  1.9042
   28CHL1   C12 2029   0.222   4.344   9.337  0.9318 -0.1391 -0.2866
   28CHL1  H12A 2030   0.140   4.414   9.312  1.1114  0.1160 -0.1617
   28CHL1  H12B 2031   0.187   4.241   9.359  1.4454 -0.7051 -1.9653
   28CHL1   C11 2032   0.292   4.401   9.461 -0.5029  0.1315 -0.5474
   28CHL1  H11A 2033   0.326   4.505   9.441  0.3831  0.0047  0.2294
   28CHL1  H11B 2034   0.213   4.410   9.539 -1.6820 -0.5638 -1.6093
   28CHL1    C9 2035   0.408   4.307   9.505  0.3646  0.1580  0.3706
   28CHL1    H9 2036   0.368   4.207   9.534  0.0782  0.6136  1.6071
   28CHL1   C10 2037   0.480   4.352   9.633 -0.2140 -0.1276 -0.2774
   28CHL1   C19 2038   0.531   4.498   9.619  0.4395 -0.6044  0.4406
   28CHL1  H19A 2039   0.574   4.509   9.517 -1.2944  1.4084 -0.1612
   28CHL1  H19B 2040   0.442   4.560   9.642  1.4977  0.1523  2.7047
   28CHL1  H19C 2041   0.597   4.526   9.703 -2.4955 -0.0963  2.7275
   28CHL1    C1 2042   0.379   4.348   9.757 -0.0156  0.3499  1.0122
   28CHL1   H1A 2043   0.304   4.429   9.746 -0.9931 -0.7227 -0.5966
   28CHL1   H1B 2044   0.334   4.247   9.749 -0.5915  0.6266  0.7141
   28CHL1    C2 2045   0.440   4.354   9.891  0.0234 -1.1595  0.5986
   28CHL1   H2A 2046   0.366   4.355   9.974  0.0428  2.3374  0.7520
   28CHL1   H2B 2047   0.498   4.447   9.910  0.5418 -1.4596  0.4932
   28CHL1   C20 2048   0.142   4.313   9.016 -0.0785  0.1558  0.0356
   28CHL1   H20 2049   0.157   4.423   9.004 -2.2685  0.2104 -3.9100
   28CHL1   C21 2050   0.007   4.289   9.090  0.0562 -0.2530 -0.2009
   28CHL1  H21A 2051  -0.081   4.330   9.035 -0.2347 -1.1589 -0.4283
   28CHL1  H21B 2052  -0.001   4.323   9.196 -0.3032 -2.4844  0.5500
   28CHL1  H21C 2053  -0.014   4.180   9.098  0.8341 -0.3983 -0.1295
   28CHL1   C22 2054   0.144   4.268   8.871 -0.8869  0.7609  0.4349
   28CHL1  H22A 2055   0.246   4.277   8.827 -0.7603 -1.9334 -0.0055
   28CHL1  H22B 2056   0.126   4.160   8.856  0.2709  0.6817 -0.5687
   28CHL1   C23 2057   0.055   4.347   8.776  0.7147 -0.1033 -0.1360
   28CHL1  H23A 2058  -0.052   4.349   8.805  0.5553  0.8262 -0.7297
   28CHL1  H23B 2059   0.094   4.451   8.779 -0.1152  0.1851  1.4280
   28CHL1   C24 2060   0.079   4.285   8.639 -0.4967 -0.3166  0.4581
   28CHL1  H24A 2061   0.187   4.291   8.614 -0.6056 -0.9344 -0.1977
   28CHL1  H24B 2062   0.060   4.176   8.652  0.4938 -0.5691 -0.0448
   28CHL1   C25 2063  -0.011   4.338   8.524 -0.3879 -0.2315  0.2637
   28CHL1   H25 2064  -0.027   4.448   8.525  0.6153 -0.0381 -1.1575
   28CHL1   C26 2065   0.068   4.309   8.389  0.4807 -0.0685 -0.4547
   28CHL1  H26A 2066   0.073   4.200   8.370  0.4572 -0.4210  1.3798
   28CHL1  H26B 2067   0.004   4.363   8.315 -0.2181 -2.6786 -1.8740
   28CHL1  H26C 2068   0.167   4.358   8.376  0.4416  0.0626 -0.2547
   28CHL1   C27 2069  -0.153   4.281   8.527 -0.2826 -0.5382  0.3660
   28CHL1  H27A 2070  -0.213   4.324   8.444 -0.1960  1.8254  1.4522
   28CHL1  H27B 2071  -0.145   4.174   8.496  1.1226 -0.5436  0.6518
   28CHL1  H27C 2072  -0.204   4.296   8.625  1.4231 -1.0169  1.3760
   29CHL1    C3 2073   1.348   0.454   6.641  0.1668  0.0358 -0.2434
   29CHL1    H3 2074   1.431   0.527   6.642 -0.1788  0.4394 -0.4917
   29CHL1    O3 2075   1.320   0.399   6.514 -0.0759  0.0071  0.0346
   29CHL1   H3' 2076   1.387   0.330   6.511 -1.1919 -1.3778  3.0972
   29CHL1    C4 2077   1.375   0.330   6.734  0.2362 -0.2414  0.1981
   29CHL1   H4A 2078   1.296   0.253   6.723 -0.5438  0.6629 -0.7579
   29CHL1   H4B 2079   1.461   0.284   6.682 -0.7069 -1.6410 -0.1885
   29CHL1    C5 2080   1.384   0.357   6.883  0.4778  0.6584 -0.1196
   29CHL1    C6 2081   1.496   0.337   6.960  0.7629 -0.7673 -0.3941
   29CHL1    H6 2082   1.585   0.288   6.919 -0.2211 -0.6782 -2.7686
   29CHL1    C7 2083   1.495   0.376   7.109  0.0952 -0.3334  0.9473
   29CHL1   H7A 2084   1.550   0.287   7.147  2.0977 -0.0948 -1.1923
   29CHL1   H7B 2085   1.552   0.469   7.129  0.8830 -0.1927 -1.5494
   29CHL1    C8 2086   1.356   0.383   7.171  0.6271  0.2753  0.1495
   29CHL1    H8 2087   1.305   0.284   7.170 -1.7662  1.4235 -0.8050
   29CHL1   C14 2088   1.358   0.434   7.316 -0.2916  0.4264  0.2687
   29CHL1   H14 2089   1.409   0.533   7.311 -0.8354  0.7021 -0.0025
   29CHL1   C15 2090   1.445   0.367   7.420  0.0576 -0.6189  0.3434
   29CHL1  H15A 2091   1.459   0.259   7.400 -0.5030 -1.2598  2.9937
   29CHL1  H15B 2092   1.545   0.417   7.413 -0.0176 -0.3390  1.0808
   29CHL1   C16 2093   1.377   0.388   7.555 -0.5856  0.1992  0.0180
   29CHL1  H16A 2094   1.327   0.292   7.583 -0.8138 -0.1736 -1.5854
   29CHL1  H16B 2095   1.457   0.397   7.632 -1.5243 -1.9477  1.3694
   29CHL1   C17 2096   1.267   0.495   7.531 -0.8551  0.2469  0.4570
   29CHL1   H17 2097   1.321   0.592   7.523 -0.0908 -0.1150  1.1206
   29CHL1   C13 2098   1.226   0.460   7.383 -0.2044 -0.2990 -0.1864
   29CHL1   C18 2099   1.145   0.334   7.388  0.7054 -0.2406 -0.0610
   29CHL1  H18A 2100   1.167   0.259   7.467 -1.2195 -2.2887 -1.3295
   29CHL1  H18B 2101   1.039   0.354   7.413  0.3358 -3.1577  1.0836
   29CHL1  H18C 2102   1.149   0.276   7.293  0.5325 -1.8887  0.8995
   29CHL1   C12 2103   1.151   0.571   7.300 -0.5839  0.3861 -0.2894
   29CHL1  H12A 2104   1.053   0.595   7.345 -0.7068 -0.5725 -0.0227
   29CHL1  H12B 2105   1.212   0.663   7.312 -0.0192 -0.1229  0.8575
   29CHL1   C11 2106   1.138   0.526   7.156  0.3040  0.0911  0.1647
   29CHL1  H11A 2107   1.069   0.440   7.161  0.0618  0.1080 -2.1393
   29CHL1  H11B 2108   1.092   0.593   7.081  1.4660 -0.7472 -1.3586
   29CHL1    C9 2109   1.268   0.481   7.088 -0.3016  0.4131  0.7616
   29CHL1    H9 2110   1.331   0.572   7.086  1.7228 -0.9198  0.7157
   29CHL1   C10 2111   1.258   0.426   6.933  1.0972  0.1773  0.5783
   29CHL1   C19 2112   1.123   0.335   6.920 -0.2372 -0.2318  0.0680
   29CHL1  H19A 2113   1.105   0.301   6.816 -0.6245  2.7814 -0.9206
   29CHL1  H19B 2114   1.130   0.249   6.990 -2.8153 -0.0358  0.6939
   29CHL1  H19C 2115   1.033   0.396   6.944 -0.4915 -0.5085 -0.1680
   29CHL1    C1 2116   1.233   0.554   6.844 -0.0964  0.2336 -0.6071
   29CHL1   H1A 2117   1.128   0.585   6.863 -0.0326  0.3410 -0.4299
   29CHL1   H1B 2118   1.305   0.635   6.870 -0.3139  0.5562 -0.9871
   29CHL1    C2 2119   1.220   0.528   6.693 -0.8701  0.4422  0.5457
   29CHL1   H2A 2120   1.212   0.620   6.630 -3.5931 -1.7436 -2.6839
   29CHL1   H2B 2121   1.129   0.470   6.671 -0.5352  0.3803 -0.8334
   29CHL1   C20 2122   1.151   0.505   7.638 -0.5822  0.3048 -0.4671
   29CHL1   H20 2123   1.066   0.438   7.611 -2.0542  3.2155 -3.8453
   29CHL1   C21 2124   1.090   0.642   7.637 -0.2424  0.0862 -0.8763
   29CHL1  H21A 2125   1.021   0.650   7.551 -0.8805  0.0960 -0.3638
   29CHL1  H21B 2126   1.170   0.718   7.622  0.1422 -0.3860 -1.2663
   29CHL1  H21C 2127   1.030   0.683   7.720 -0.2332 -1.3490 -0.1124
   29CHL1   C22 2128   1.208   0.480   7.787  0.2283 -0.2753  0.6870
   29CHL1  H22A 2129   1.260   0.383   7.772 -1.4897 -1.3815  1.5533
   29CHL1  H22B 2130   1.276   0.559   7.823  0.1511  0.0855  0.0456
   29CHL1   C23 2131   1.101   0.441   7.889 -0.2571  0.4956 -0.4722
   29CHL1  H23A 2132   1.027   0.522   7.909 -1.2547 -1.0862  3.1592
   29CHL1  H23B 2133   1.045   0.351   7.857  3.6757 -1.9966 -0.9739
   29CHL1   C24 2134   1.175   0.401   8.018 -0.0654 -0.4568 -1.0911
   29CHL1  H24A 2135   1.110   0.338   8.081 -1.1846  0.6987 -1.0586
   29CHL1  H24B 2136   1.255   0.330   7.986  0.2064 -0.4029 -0.5417
   29CHL1   C25 2137   1.235   0.507   8.111 -0.0821  0.3687 -0.2569
   29CHL1   H25 2138   1.314   0.560   8.054  0.7622  0.2476  0.7863
   29CHL1   C26 2139   1.132   0.610   8.167 -0.0928  0.2478 -0.2437
   29CHL1  H26A 2140   1.084   0.571   8.259 -0.8331 -2.3415 -1.6322
   29CHL1  H26B 2141   1.187   0.700   8.201  1.6105 -0.5027 -0.9093
   29CHL1  H26C 2142   1.056   0.635   8.090 -1.7698  1.8373  1.7938
   29CHL1   C27 2143   1.294   0.447   8.240  0.3170 -0.1899  0.8709
   29CHL1  H27A 2144   1.220   0.392   8.300 -0.6147  1.4761  1.3190
   29CHL1  H27B 2145   1.373   0.372   8.218 -1.1597 -1.1442 -1.5398
   29CHL1  H27C 2146   1.333   0.524   8.310  0.3397 -0.0429  0.6975
   30CHL1    C3 2147   6.450   0.244   7.135 -1.0937  0.1303  0.2233
   30CHL1    H3 2148   6.344   0.238   7.166 -1.8100  0.3254 -2.0264
   30CHL1    O3 2149   6.449   0.277   6.998  0.4342  0.4170  0.7204
   30CHL1   H3' 2150   6.538   0.287   6.964  0.8162 -1.3426  1.0644
   30CHL1    C4 2151   6.520   0.359   7.215 -0.0768 -0.3521 -0.0056
   30CHL1   H4A 2152   6.625   0.376   7.184  0.1820  1.4727  1.7544
   30CHL1   H4B 2153   6.472   0.454   7.182  1.4882  0.4707  0.0295
   30CHL1    C5 2154   6.524   0.334   7.364 -0.4301  0.8477  0.3109
   30CHL1    C6 2155   6.471   0.418   7.449  0.5388 -0.2713 -0.6021
   30CHL1    H6 2156   6.408   0.501   7.414 -2.3949 -2.5668 -1.2002
   30CHL1    C7 2157   6.458   0.395   7.598 -0.0070 -0.5516  0.1484
   30CHL1   H7A 2158   6.469   0.489   7.655 -1.7669 -0.3044  0.1346
   30CHL1   H7B 2159   6.357   0.349   7.610 -0.2951  0.0969  0.2415
   30CHL1    C8 2160   6.548   0.282   7.647 -0.0381 -0.5991 -0.3964
   30CHL1    H8 2161   6.653   0.318   7.653 -0.5784  1.0024 -0.1987
   30CHL1   C14 2162   6.495   0.238   7.778  0.2148 -0.4483 -0.1354
   30CHL1   H14 2163   6.401   0.182   7.755 -2.2515  2.5273  1.9286
   30CHL1   C15 2164   6.442   0.336   7.883 -1.0913 -0.3724  0.4855
   30CHL1  H15A 2165   6.506   0.427   7.875 -0.0798 -1.2267 -2.3026
   30CHL1  H15B 2166   6.340   0.364   7.849 -1.1501 -1.6061 -0.3955
   30CHL1   C16 2167   6.445   0.270   8.019  0.5960  0.2645  0.4563
   30CHL1  H16A 2168   6.502   0.316   8.102  0.0243  0.3859  0.7824
   30CHL1  H16B 2169   6.342   0.248   8.052  0.4471 -0.0335 -0.1881
   30CHL1   C17 2170   6.509   0.128   7.988 -0.4794  0.6954  0.2451
   30CHL1   H17 2171   6.429   0.052   7.977 -0.6285  1.1001 -1.7231
   30CHL1   C13 2172   6.584   0.138   7.857 -0.1159  0.5858  0.2993
   30CHL1   C18 2173   6.720   0.214   7.888  0.0451  0.9144  1.2594
   30CHL1  H18A 2174   6.767   0.172   7.980  1.3578  0.6138  0.4739
   30CHL1  H18B 2175   6.787   0.190   7.802  0.1694 -1.5341  1.9670
   30CHL1  H18C 2176   6.710   0.324   7.895  0.2052  1.2995 -2.5105
   30CHL1   C12 2177   6.597   0.015   7.768 -0.4230 -0.3816  0.2107
   30CHL1  H12A 2178   6.660  -0.069   7.805  0.6446  0.5763  0.6479
   30CHL1  H12B 2179   6.490  -0.010   7.752 -0.1989 -2.4554  1.5747
   30CHL1   C11 2180   6.641   0.046   7.620 -0.4104  0.5096 -0.0698
   30CHL1  H11A 2181   6.749   0.070   7.625 -0.5124  1.0413 -0.3890
   30CHL1  H11B 2182   6.642  -0.047   7.560  0.9491  0.6787 -0.3392
   30CHL1    C9 2183   6.550   0.157   7.559  0.1342 -0.0120  0.4633
   30CHL1    H9 2184   6.448   0.113   7.559  0.0940  0.0556 -0.3059
   30CHL1   C10 2185   6.580   0.193   7.410  0.3076  0.3880  0.9063
   30CHL1   C19 2186   6.733   0.207   7.390  0.0096 -0.0913 -0.2141
   30CHL1  H19A 2187   6.768   0.247   7.293 -0.9007  1.2431 -0.0219
   30CHL1  H19B 2188   6.786   0.262   7.471 -2.9525 -0.7336  2.3433
   30CHL1  H19C 2189   6.787   0.110   7.402 -1.0222 -0.8333 -1.3915
   30CHL1    C1 2190   6.525   0.082   7.312 -0.3927  0.2598  0.2147
   30CHL1   H1A 2191   6.581  -0.012   7.330  0.3657  0.0668 -2.6242
   30CHL1   H1B 2192   6.416   0.072   7.330 -0.7625 -0.1242 -1.9203
   30CHL1    C2 2193   6.529   0.115   7.161 -0.5477  0.0087 -0.0781
   30CHL1   H2A 2194   6.491   0.023   7.112  0.2687  0.0196 -0.7480
   30CHL1   H2B 2195   6.633   0.134   7.128 -0.7244  3.5484  0.9924
   30CHL1   C20 2196   6.584   0.079   8.114  0.0176 -0.1683  0.3242
   30CHL1   H20 2197   6.648   0.167   8.135  1.4841 -0.4360 -2.5559
   30CHL1   C21 2198   6.671  -0.042   8.095  0.4018  0.0408  0.6471
   30CHL1  H21A 2199   6.754  -0.028   8.022 -0.1083 -1.2331 -0.2113
   30CHL1  H21B 2200   6.605  -0.124   8.061  0.4284  1.3889 -3.0665
   30CHL1  H21C 2201   6.721  -0.075   8.189  1.1680 -1.4762 -0.2502
   30CHL1   C22 2202   6.498   0.056   8.239  0.8179 -0.4228 -0.2987
   30CHL1  H22A 2203   6.414   0.129   8.246  1.9712  0.8821  0.2142
   30CHL1  H22B 2204   6.444  -0.040   8.224  0.2297 -0.3227  1.0433
   30CHL1   C23 2205   6.567   0.044   8.374 -0.1308  0.2266  0.0022
   30CHL1  H23A 2206   6.640  -0.040   8.367  1.1664  1.1466  1.8045
   30CHL1  H23B 2207   6.626   0.130   8.413 -0.5512 -0.2287  1.7135
   30CHL1   C24 2208   6.457   0.004   8.476 -0.1375  0.9571  0.1502
   30CHL1  H24A 2209   6.379   0.083   8.488 -0.3708  0.7213  0.2161
   30CHL1  H24B 2210   6.399  -0.080   8.433  0.2285  1.3130 -1.0507
   30CHL1   C25 2211   6.508  -0.033   8.615  0.4349  0.1073 -0.4803
   30CHL1   H25 2212   6.586  -0.107   8.589 -0.5663 -0.2848 -2.6279
   30CHL1   C26 2213   6.578   0.083   8.685  0.1544  0.2909  0.2437
   30CHL1  H26A 2214   6.656   0.121   8.616  0.7052  0.4464  0.9418
   30CHL1  H26B 2215   6.503   0.163   8.702 -0.6172 -0.7221  1.8179
   30CHL1  H26C 2216   6.619   0.048   8.782  0.5666 -0.8537 -0.3310
   30CHL1   C27 2217   6.389  -0.094   8.695 -0.0909  0.3508 -0.5446
   30CHL1  H27A 2218   6.326  -0.009   8.728  0.6541  0.4822  0.6299
   30CHL1  H27B 2219   6.315  -0.150   8.635 -0.0344  0.0148 -0.3045
   30CHL1  H27C 2220   6.425  -0.142   8.789 -1.0220  1.6457  0.5187
   31CHL1    C3 2221   5.719   1.772   6.605 -0.3158  0.6899 -0.2444
   31CHL1    H3 2222   5.684   1.869   6.647 -1.7679 -0.2640  0.8500
   31CHL1    O3 2223   5.650   1.749   6.481  0.5566 -0.0300 -0.0951
   31CHL1   H3' 2224   5.663   1.654   6.479  2.5066  0.0494  2.8709
   31CHL1    C4 2225   5.872   1.758   6.591 -0.4389  0.9634  0.5083
   31CHL1   H4A 2226   5.910   1.661   6.552 -1.2467  1.4431 -1.5831
   31CHL1   H4B 2227   5.905   1.820   6.505  2.9487 -0.4896  0.6051
   31CHL1    C5 2228   5.936   1.796   6.724 -0.3920  0.0765 -0.0487
   31CHL1    C6 2229   6.020   1.900   6.727 -1.0793 -0.2120  0.0353
   31CHL1    H6 2230   6.052   1.954   6.637 -1.2631  2.0416  1.2484
   31CHL1    C7 2231   6.083   1.964   6.853 -0.4377 -0.9162  0.0150
   31CHL1   H7A 2232   6.190   1.985   6.832 -0.7219  0.5696 -0.0497
   31CHL1   H7B 2233   6.040   2.061   6.886 -2.5828 -2.5702  2.3986
   31CHL1    C8 2234   6.057   1.874   6.973 -0.8555 -0.3826 -0.1765
   31CHL1    H8 2235   6.132   1.793   6.965  0.8732  1.2009 -0.5222
   31CHL1   C14 2236   6.093   1.944   7.108  0.6377 -0.1114 -0.2662
   31CHL1   H14 2237   6.023   2.031   7.103  1.2474  0.3224 -2.3606
   31CHL1   C15 2238   6.233   1.999   7.120 -1.0218  0.4851 -0.3074
   31CHL1  H15A 2239   6.306   1.916   7.109  0.9932  2.0348  0.7228
   31CHL1  H15B 2240   6.263   2.073   7.043 -0.4210  2.3000  1.5856
   31CHL1   C16 2241   6.234   2.044   7.264 -0.3976  0.1222 -0.2573
   31CHL1  H16A 2242   6.331   2.041   7.318 -2.3421 -0.8940  3.5852
   31CHL1  H16B 2243   6.187   2.144   7.259 -0.8353 -0.1279 -1.3425
   31CHL1   C17 2244   6.125   1.961   7.342 -0.2647 -0.1277  0.1043
   31CHL1   H17 2245   6.049   2.037   7.371 -0.9368 -1.0060  0.7012
   31CHL1   C13 2246   6.065   1.860   7.235  0.0586  1.0185 -0.0302
   31CHL1   C18 2247   6.157   1.737   7.235 -0.0879  0.1315 -0.0077
   31CHL1  H18A 2248   6.267   1.757   7.236  0.3463 -2.0444  0.6792
   31CHL1  H18B 2249   6.144   1.664   7.317  2.2170  0.3805  0.6625
   31CHL1  H18C 2250   6.148   1.681   7.139 -0.5712  1.9196 -1.0474
   31CHL1   C12 2251   5.910   1.824   7.235 -0.2003 -0.7864  0.6772
   31CHL1  H12A 2252   5.884   1.768   7.327 -2.3545  2.3333  2.1709
   31CHL1  H12B 2253   5.842   1.912   7.227 -0.5905 -1.1599 -0.2849
   31CHL1   C11 2254   5.874   1.751   7.107  0.4877  0.8142 -0.3573
   31CHL1  H11A 2255   5.932   1.656   7.113 -0.5091  0.2117  0.1249
   31CHL1  H11B 2256   5.764   1.732   7.110  0.7275 -0.6476  0.9599
   31CHL1    C9 2257   5.909   1.821   6.974  0.3216  0.1480 -0.1609
   31CHL1    H9 2258   5.843   1.911   6.973 -0.3167 -0.3104  0.1977
   31CHL1   C10 2259   5.879   1.733   6.852 -0.2492  0.0096 -0.2166
   31CHL1   C19 2260   5.950   1.595   6.863  0.0676 -0.3739  0.0233
   31CHL1  H19A 2261   5.914   1.544   6.955 -1.6278  0.1355 -0.3238
   31CHL1  H19B 2262   5.926   1.542   6.768 -0.2062 -0.6506  0.2468
   31CHL1  H19C 2263   6.061   1.604   6.864  0.0300  0.7479 -1.6107
   31CHL1    C1 2264   5.723   1.716   6.848 -0.0108  0.6152  0.4956
   31CHL1   H1A 2265   5.690   1.636   6.917  1.7163 -0.8697 -0.3073
   31CHL1   H1B 2266   5.674   1.811   6.877 -1.5300 -0.2076  0.7712
   31CHL1    C2 2267   5.667   1.676   6.710  0.5422  0.2037  1.0166
   31CHL1   H2A 2268   5.556   1.682   6.716  0.4850 -1.1363  1.8993
   31CHL1   H2B 2269   5.700   1.571   6.693  0.3963  0.3726 -0.4619
   31CHL1   C20 2270   6.165   1.899   7.472  0.0610  0.9919  0.4820
   31CHL1   H20 2271   6.248   1.826   7.459 -0.8623  0.0342 -0.2255
   31CHL1   C21 2272   6.050   1.818   7.538  0.1057 -0.3187  0.3571
   31CHL1  H21A 2273   5.947   1.856   7.519 -0.0995 -0.6976  0.6978
   31CHL1  H21B 2274   6.057   1.813   7.649  1.4823 -4.0042  0.2178
   31CHL1  H21C 2275   6.056   1.718   7.490  2.9755 -0.0334 -0.0573
   31CHL1   C22 2276   6.220   1.993   7.580  0.4965 -0.0788 -0.0592
   31CHL1  H22A 2277   6.290   2.071   7.540  0.5753 -0.6584 -1.0796
   31CHL1  H22B 2278   6.138   2.054   7.624  1.7476  1.6344  0.0402
   31CHL1   C23 2279   6.309   1.920   7.684 -0.1608  0.7674 -0.5262
   31CHL1  H23A 2280   6.270   1.836   7.745  3.2218  0.6651  1.7983
   31CHL1  H23B 2281   6.386   1.867   7.624  0.6350 -0.1433  1.2413
   31CHL1   C24 2282   6.383   2.018   7.780  0.1266  0.0916 -0.3338
   31CHL1  H24A 2283   6.414   2.107   7.720 -1.3263  0.5719 -0.4292
   31CHL1  H24B 2284   6.316   2.049   7.862 -1.1620 -1.3492 -0.7950
   31CHL1   C25 2285   6.510   1.950   7.843  0.9709 -0.1101  0.5419
   31CHL1   H25 2286   6.549   1.898   7.752  0.1093 -0.5349  0.4014
   31CHL1   C26 2287   6.607   2.049   7.908  0.5915  1.3106  0.5555
   31CHL1  H26A 2288   6.658   2.113   7.833  1.7643 -0.6165 -0.3765
   31CHL1  H26B 2289   6.552   2.120   7.973 -1.3121 -0.2597  0.7581
   31CHL1  H26C 2290   6.695   1.994   7.949  0.3578 -1.2218 -2.0380
   31CHL1   C27 2291   6.478   1.842   7.947  0.5078  0.2451  0.3891
   31CHL1  H27A 2292   6.576   1.805   7.981 -0.7565 -1.6088  2.2381
   31CHL1  H27B 2293   6.415   1.767   7.893 -0.2853  2.4473 -1.9393
   31CHL1  H27C 2294   6.429   1.889   8.035  1.2277 -1.0277  1.5081
   32CHL1    C3 2295   0.655   0.677   6.655  0.3395 -0.4390 -0.1813
   32CHL1    H3 2296   0.570   0.606   6.649  0.3762 -0.5451  0.4923
   32CHL1    O3 2297   0.685   0.713   6.520 -0.0803  0.5378 -0.1043
   32CHL1   H3' 2298   0.601   0.728   6.475 -1.3924 -1.3369  1.5320
   32CHL1    C4 2299   0.608   0.802   6.727 -0.2379 -0.1564 -0.1078
   32CHL1   H4A 2300   0.698   0.868   6.720  0.4851 -1.0380  0.6169
   32CHL1   H4B 2301   0.523   0.844   6.669  1.4005  0.0353 -2.5404
   32CHL1    C5 2302   0.575   0.776   6.874 -0.3953 -0.3346 -1.2465
   32CHL1    C6 2303   0.459   0.813   6.934 -0.8105  0.0833 -1.3903
   32CHL1    H6 2304   0.387   0.858   6.864 -1.4439  1.3978  0.0604
   32CHL1    C7 2305   0.428   0.795   7.081  0.6613  0.9717  0.4396
   32CHL1   H7A 2306   0.372   0.882   7.121  2.3650  1.2629  2.3594
   32CHL1   H7B 2307   0.359   0.708   7.090  2.0709 -0.1250  1.0297
   32CHL1    C8 2308   0.552   0.767   7.163  0.2472 -0.1010 -0.0865
   32CHL1    H8 2309   0.615   0.858   7.158  1.5433 -0.9503  0.0366
   32CHL1   C14 2310   0.521   0.733   7.306 -0.0722 -0.4245 -0.3625
   32CHL1   H14 2311   0.463   0.638   7.312  0.7462 -0.8431  1.2777
   32CHL1   C15 2312   0.425   0.834   7.375 -0.5677  0.4750  0.2967
   32CHL1  H15A 2313   0.469   0.936   7.376  0.4800  0.0459  1.3889
   32CHL1  H15B 2314   0.321   0.833   7.337 -1.1095  2.6089  1.5552
   32CHL1   C16 2315   0.426   0.782   7.518 -0.6421  0.0453  0.0452
   32CHL1  H16A 2316   0.450   0.864   7.589 -0.5022  1.4376 -1.5614
   32CHL1  H16B 2317   0.337   0.724   7.549  0.0201 -0.8802  0.2758
   32CHL1   C17 2318   0.547   0.681   7.533 -0.1608  1.1223  0.0016
   32CHL1   H17 2319   0.502   0.579   7.523  1.0192  0.5236  0.6130
   32CHL1   C13 2320   0.633   0.698   7.410  0.1667  0.2025  0.1251
   32CHL1   C18 2321   0.723   0.826   7.431  0.0354 -0.0135  0.1721
   32CHL1  H18A 2322   0.661   0.906   7.474 -1.6544 -1.8697  1.3706
   32CHL1  H18B 2323   0.809   0.799   7.496 -1.0606 -0.0953  1.6382
   32CHL1  H18C 2324   0.753   0.868   7.332 -0.3507  0.6426  0.3271
   32CHL1   C12 2325   0.710   0.585   7.344  0.6705  0.7758 -0.1247
   32CHL1  H12A 2326   0.796   0.563   7.411  2.1140  2.1142 -1.4444
   32CHL1  H12B 2327   0.645   0.495   7.334  2.4860 -0.4449 -1.6654
   32CHL1   C11 2328   0.761   0.614   7.200 -0.5486 -0.1035 -0.4946
   32CHL1  H11A 2329   0.837   0.694   7.196 -0.3447 -0.3397 -2.3712
   32CHL1  H11B 2330   0.804   0.515   7.174  0.4437  0.3487 -0.6024
   32CHL1    C9 2331   0.642   0.653   7.096  0.3102 -0.2260 -0.0551
   32CHL1    H9 2332   0.583   0.560   7.081  0.5277 -0.6618  1.6209
   32CHL1   C10 2333   0.688   0.702   6.955 -1.0478  0.3842  0.7468
   32CHL1   C19 2334   0.815   0.794   6.971  0.0053  0.0570 -0.0842
   32CHL1  H19A 2335   0.798   0.877   7.043 -0.4370  1.2508 -1.4929
   32CHL1  H19B 2336   0.902   0.732   7.000  0.4636  0.2641 -0.9686
   32CHL1  H19C 2337   0.852   0.848   6.881  1.5267  0.3537  0.6896
   32CHL1    C1 2338   0.732   0.574   6.867 -0.3089  0.2143 -0.2245
   32CHL1   H1A 2339   0.815   0.520   6.919 -0.5529  0.2349  0.1897
   32CHL1   H1B 2340   0.651   0.499   6.868 -0.1092 -0.0044 -0.2628
   32CHL1    C2 2341   0.774   0.600   6.723 -0.0416 -0.7530 -0.4479
   32CHL1   H2A 2342   0.794   0.505   6.669 -0.9289 -0.5383 -1.1722
   32CHL1   H2B 2343   0.864   0.664   6.713 -1.5313  1.8606  1.6036
   32CHL1   C20 2344   0.615   0.676   7.674  0.4857  0.1305  0.1774
   32CHL1   H20 2345   0.676   0.769   7.676  0.9267  0.0238 -2.9395
   32CHL1   C21 2346   0.709   0.560   7.682  0.0716 -0.2623 -0.6149
   32CHL1  H21A 2347   0.765   0.547   7.777 -1.2620  0.9606  0.3849
   32CHL1  H21B 2348   0.783   0.571   7.600 -0.7048  4.0112 -1.0076
   32CHL1  H21C 2349   0.649   0.471   7.655 -1.1348  0.5436 -0.6930
   32CHL1   C22 2350   0.519   0.672   7.793 -0.1584  0.6275  1.0465
   32CHL1  H22A 2351   0.431   0.735   7.767  1.4960  1.7612 -2.4391
   32CHL1  H22B 2352   0.471   0.572   7.790  0.4956  0.2995  1.3817
   32CHL1   C23 2353   0.574   0.703   7.929 -0.4687 -0.6254  0.7396
   32CHL1  H23A 2354   0.673   0.653   7.934  0.9153  1.7928 -0.4582
   32CHL1  H23B 2355   0.602   0.811   7.936  0.3328 -0.8116  0.5188
   32CHL1   C24 2356   0.473   0.679   8.041  0.4477  0.2158 -0.5757
   32CHL1  H24A 2357   0.396   0.758   8.054  0.0504 -0.2214 -0.2627
   32CHL1  H24B 2358   0.411   0.587   8.031 -2.8563  2.2155 -0.0108
   32CHL1   C25 2359   0.547   0.662   8.179 -0.3873 -0.5144  0.6168
   32CHL1   H25 2360   0.609   0.571   8.169  0.6696  0.3026 -0.6252
   32CHL1   C26 2361   0.649   0.771   8.205  0.2441 -0.5487 -0.0071
   32CHL1  H26A 2362   0.707   0.791   8.112 -2.0878 -1.1874 -1.7087
   32CHL1  H26B 2363   0.596   0.858   8.251 -0.1955 -0.2239 -1.0975
   32CHL1  H26C 2364   0.719   0.730   8.281  5.3225 -0.3539 -3.9921
   32CHL1   C27 2365   0.446   0.635   8.294 -0.5778  0.4046  0.2512
   32CHL1  H27A 2366   0.391   0.542   8.267  0.5214 -0.2106  0.0551
   32CHL1  H27B 2367   0.507   0.611   8.384  0.1128 -1.0750 -0.5726
   32CHL1  H27C 2368   0.385   0.723   8.323 -0.7502  0.3130  0.1662
   33CHL1    C3 2369   1.434   0.974   6.738 -0.4476 -0.2402  1.0141
   33CHL1    H3 2370   1.499   0.891   6.774  0.6919  0.1999  0.0566
   33CHL1    O3 2371   1.426   0.966   6.597 -0.0858  0.2526 -0.0732
   33CHL1   H3' 2372   1.434   1.058   6.568  1.4156 -0.3230 -1.6855
   33CHL1    C4 2373   1.296   0.969   6.803 -0.1799 -0.5506 -0.1230
   33CHL1   H4A 2374   1.237   1.049   6.752 -3.6404 -1.7868  1.6021
   33CHL1   H4B 2375   1.250   0.871   6.777  0.9641 -0.7883 -1.3431
   33CHL1    C5 2376   1.309   0.998   6.951 -0.1830 -0.5621  0.5341
   33CHL1    C6 2377   1.262   0.910   7.043 -0.8194  0.8428  0.0141
   33CHL1    H6 2378   1.225   0.811   7.016  2.6724 -0.4752 -0.3806
   33CHL1    C7 2379   1.254   0.919   7.191  0.1060  0.3961 -0.2391
   33CHL1   H7A 2380   1.153   0.905   7.236 -0.6634  2.9220 -0.9943
   33CHL1   H7B 2381   1.315   0.843   7.245  3.7353  3.0555 -0.1850
   33CHL1    C8 2382   1.281   1.069   7.234  0.2134  0.4140 -0.5607
   33CHL1    H8 2383   1.192   1.128   7.202 -0.1002  0.8697  1.0508
   33CHL1   C14 2384   1.298   1.079   7.384 -0.8846 -1.0209  0.7173
   33CHL1   H14 2385   1.379   1.008   7.408  1.9052  1.1224 -1.6293
   33CHL1   C15 2386   1.187   1.040   7.474 -1.1577 -0.0729 -0.6616
   33CHL1  H15A 2387   1.098   1.097   7.439 -1.3604  1.4185  2.0172
   33CHL1  H15B 2388   1.162   0.932   7.481  0.1699 -0.3867 -0.4324
   33CHL1   C16 2389   1.245   1.086   7.610 -0.1626  0.4094  0.3515
   33CHL1  H16A 2390   1.163   1.114   7.680 -0.6931  1.7318 -0.7327
   33CHL1  H16B 2391   1.301   0.998   7.647 -0.9375 -0.1018  0.3156
   33CHL1   C17 2392   1.347   1.200   7.576 -0.7069 -0.2265  0.2295
   33CHL1   H17 2393   1.449   1.159   7.593  0.3678  0.8639 -2.7878
   33CHL1   C13 2394   1.337   1.225   7.423  1.2341  0.0613  0.0621
   33CHL1   C18 2395   1.227   1.326   7.391 -0.3229 -0.1451 -1.1625
   33CHL1  H18A 2396   1.133   1.301   7.444  0.2327 -1.0182 -0.5732
   33CHL1  H18B 2397   1.258   1.430   7.416  2.1377 -1.1541  0.2751
   33CHL1  H18C 2398   1.214   1.326   7.281  0.0467 -2.9374 -1.2828
   33CHL1   C12 2399   1.477   1.250   7.356  0.2802 -0.7306 -0.1710
   33CHL1  H12A 2400   1.521   1.342   7.400 -1.0431  0.3686 -1.0996
   33CHL1  H12B 2401   1.546   1.168   7.386  0.1393 -0.4688  0.9113
   33CHL1   C11 2402   1.463   1.258   7.201 -0.2940  0.1743  0.3164
   33CHL1  H11A 2403   1.403   1.348   7.176 -0.4291 -0.1058 -0.4042
   33CHL1  H11B 2404   1.561   1.275   7.153 -0.9025 -0.4759 -1.2345
   33CHL1    C9 2405   1.401   1.123   7.151  0.0593  0.4137 -0.9648
   33CHL1    H9 2406   1.480   1.047   7.168  0.3004  1.0163  0.7731
   33CHL1   C10 2407   1.382   1.122   6.998  0.4104 -0.0096 -0.4076
   33CHL1   C19 2408   1.288   1.241   6.956  0.1526  0.0996 -0.4493
   33CHL1  H19A 2409   1.345   1.332   6.984  2.4294 -0.9064 -1.5509
   33CHL1  H19B 2410   1.276   1.236   6.846  0.7549 -2.4685 -0.4751
   33CHL1  H19C 2411   1.191   1.230   7.008 -0.5493  1.4155 -1.4372
   33CHL1    C1 2412   1.518   1.143   6.922  0.5737 -0.5455  0.1694
   33CHL1   H1A 2413   1.535   1.253   6.920 -1.6254 -0.1458  1.3150
   33CHL1   H1B 2414   1.601   1.091   6.976 -0.2617 -0.2199  1.8349
   33CHL1    C2 2415   1.506   1.109   6.767  0.0626  0.6143  0.4056
   33CHL1   H2A 2416   1.605   1.125   6.719 -0.5484  1.4137 -0.6391
   33CHL1   H2B 2417   1.437   1.186   6.728  0.4801  1.7124  1.7903
   33CHL1   C20 2418   1.323   1.308   7.685  0.5418 -0.1888 -0.3571
   33CHL1   H20 2419   1.218   1.342   7.669  1.1916  1.4225 -1.5653
   33CHL1   C21 2420   1.412   1.426   7.639 -0.4093 -0.6076 -0.1121
   33CHL1  H21A 2421   1.521   1.403   7.643 -0.1878  0.2460 -1.0091
   33CHL1  H21B 2422   1.390   1.514   7.704  1.4361  0.1511 -0.4611
   33CHL1  H21C 2423   1.392   1.458   7.535 -2.2118  2.1638  0.9652
   33CHL1   C22 2424   1.346   1.272   7.830  0.4940  0.4372  0.0109
   33CHL1  H22A 2425   1.305   1.170   7.850  0.9576  0.6650  2.4918
   33CHL1  H22B 2426   1.456   1.275   7.845  0.5470 -0.6698 -0.1002
   33CHL1   C23 2427   1.278   1.375   7.921  0.4225 -0.2316 -0.2628
   33CHL1  H23A 2428   1.322   1.475   7.897  1.9745 -0.1309  2.6215
   33CHL1  H23B 2429   1.172   1.385   7.891  0.1710  3.4249  1.2910
   33CHL1   C24 2430   1.283   1.343   8.078 -0.3808 -0.7293  0.3531
   33CHL1  H24A 2431   1.258   1.237   8.095  0.0504 -0.9065 -0.0982
   33CHL1  H24B 2432   1.386   1.363   8.117  0.9794 -2.1423 -2.2357
   33CHL1   C25 2433   1.201   1.435   8.169 -0.2939  0.2748  0.1658
   33CHL1   H25 2434   1.237   1.540   8.168  1.3058 -0.2100  1.2790
   33CHL1   C26 2435   1.054   1.444   8.141 -0.4185  0.3540  0.3524
   33CHL1  H26A 2436   1.018   1.527   8.207  0.2903 -0.1759  1.4355
   33CHL1  H26B 2437   1.040   1.477   8.036 -1.3660  0.3054  0.4544
   33CHL1  H26C 2438   1.007   1.345   8.159 -0.3895  0.2837  0.0444
   33CHL1   C27 2439   1.223   1.382   8.317  0.5116  0.5017 -0.6178
   33CHL1  H27A 2440   1.317   1.428   8.354  2.3545 -1.6517 -2.2572
   33CHL1  H27B 2441   1.144   1.424   8.383  0.5262 -0.7712  0.2623
   33CHL1  H27C 2442   1.218   1.271   8.316 -2.0082  0.5327  0.6885
   34CHL1    C3 2443   1.695   5.554   6.947 -0.1661 -0.3347  0.0641
   34CHL1    H3 2444   1.790   5.507   6.981  0.3613  0.4967 -0.2321
   34CHL1    O3 2445   1.699   5.558   6.807  0.1019 -0.6391  1.1544
   34CHL1   H3' 2446   1.698   5.466   6.781 -1.8439 -0.2552 -0.4337
   34CHL1    C4 2447   1.582   5.467   6.997 -0.3987  0.1076 -0.0424
   34CHL1   H4A 2448   1.490   5.477   6.937 -0.6797  1.0584  0.5276
   34CHL1   H4B 2449   1.602   5.364   6.960  0.7476  0.5675 -0.7488
   34CHL1    C5 2450   1.559   5.474   7.149 -0.6902  0.1657 -0.0592
   34CHL1    C6 2451   1.554   5.367   7.233  0.0794  0.3040 -0.1209
   34CHL1    H6 2452   1.570   5.273   7.179  2.0509  1.4429 -1.6634
   34CHL1    C7 2453   1.519   5.359   7.382 -0.0680 -0.1870 -0.5039
   34CHL1   H7A 2454   1.432   5.294   7.405 -0.9486  1.0518 -0.2465
   34CHL1   H7B 2455   1.606   5.331   7.445 -0.8756 -1.7912 -0.0423
   34CHL1    C8 2456   1.468   5.500   7.426 -0.0153  0.0780  0.2494
   34CHL1    H8 2457   1.365   5.505   7.386  0.6006 -1.2262 -1.6591
   34CHL1   C14 2458   1.467   5.518   7.577  0.4029  0.0086 -0.6653
   34CHL1   H14 2459   1.571   5.526   7.615 -0.5613  1.7910  1.8893
   34CHL1   C15 2460   1.391   5.408   7.663 -0.3321  0.2840 -0.4948
   34CHL1  H15A 2461   1.300   5.378   7.607 -0.9705  0.6495  0.3133
   34CHL1  H15B 2462   1.461   5.324   7.681 -1.4199 -0.6479 -0.4861
   34CHL1   C16 2463   1.357   5.482   7.792  0.0559  1.0658 -0.3607
   34CHL1  H16A 2464   1.248   5.496   7.813  0.2447 -2.0282  3.9544
   34CHL1  H16B 2465   1.394   5.418   7.874 -1.9103  2.2012  1.5149
   34CHL1   C17 2466   1.419   5.621   7.788 -0.0922  0.0766 -0.5586
   34CHL1   H17 2467   1.524   5.610   7.825  0.5176 -1.7083 -2.5952
   34CHL1   C13 2468   1.424   5.653   7.635  0.3369 -0.2524  0.4331
   34CHL1   C18 2469   1.280   5.698   7.589  0.4487  0.3149 -0.1892
   34CHL1  H18A 2470   1.203   5.626   7.623 -0.6483  1.7884  0.5395
   34CHL1  H18B 2471   1.258   5.798   7.632  0.4385 -0.2705  1.2254
   34CHL1  H18C 2472   1.276   5.699   7.478  0.3657  1.5576 -0.1878
   34CHL1   C12 2473   1.533   5.746   7.591 -0.2934 -0.3647  0.6886
   34CHL1  H12A 2474   1.509   5.849   7.625  2.2635 -0.1717  2.1654
   34CHL1  H12B 2475   1.634   5.722   7.630  0.7100  1.5623 -0.6198
   34CHL1   C11 2476   1.547   5.750   7.438  0.7276 -0.3885 -0.1228
   34CHL1  H11A 2477   1.459   5.807   7.399  0.0978 -0.8714  0.5570
   34CHL1  H11B 2478   1.628   5.811   7.392 -0.6988  0.5466 -1.5200
   34CHL1    C9 2479   1.558   5.613   7.363 -0.1273 -0.3095  0.6812
   34CHL1    H9 2480   1.665   5.586   7.382  0.1031  1.2330  1.8091
   34CHL1   C10 2481   1.548   5.617   7.209  0.0816 -0.2843 -0.1443
   34CHL1   C19 2482   1.417   5.683   7.170  0.1730 -0.9379  0.3570
   34CHL1  H19A 2483   1.416   5.785   7.213  1.0066 -0.4393 -0.7895
   34CHL1  H19B 2484   1.411   5.700   7.061  2.9095  0.6901  0.3911
   34CHL1  H19C 2485   1.329   5.628   7.211 -0.4651  0.0075  0.2799
   34CHL1    C1 2486   1.668   5.700   7.151  0.2164  0.3621  0.3222
   34CHL1   H1A 2487   1.665   5.807   7.182  1.4486 -0.1171  2.2921
   34CHL1   H1B 2488   1.762   5.655   7.187  0.1694 -1.2290 -1.3899
   34CHL1    C2 2489   1.691   5.696   7.000  0.0216  0.5830  0.1736
   34CHL1   H2A 2490   1.782   5.757   6.981 -0.7298  1.8406  0.4849
   34CHL1   H2B 2491   1.606   5.748   6.953 -0.7301 -0.3381  0.4846
   34CHL1   C20 2492   1.353   5.714   7.881 -0.2486 -0.1845  0.3631
   34CHL1   H20 2493   1.251   5.732   7.841  1.1833  3.2280 -2.3383
   34CHL1   C21 2494   1.409   5.858   7.874  0.4297 -0.3233  0.3314
   34CHL1  H21A 2495   1.374   5.912   7.783 -1.1068 -2.1073 -0.2086
   34CHL1  H21B 2496   1.519   5.847   7.866  0.3680 -0.4979 -0.3680
   34CHL1  H21C 2497   1.379   5.911   7.967 -0.9738 -0.8419  0.2066
   34CHL1   C22 2498   1.334   5.666   8.027 -0.4223 -0.6046  0.4163
   34CHL1  H22A 2499   1.269   5.737   8.082 -0.4645  1.1910 -1.8020
   34CHL1  H22B 2500   1.278   5.570   8.028 -3.8118  1.1433  4.1464
   34CHL1   C23 2501   1.473   5.644   8.102  0.0597  0.2181  0.4581
   34CHL1  H23A 2502   1.532   5.568   8.047  0.7226  0.3861  0.9297
   34CHL1  H23B 2503   1.529   5.740   8.095  1.4752 -0.6314 -0.2335
   34CHL1   C24 2504   1.463   5.599   8.249 -0.2039  0.2547 -0.0120
   34CHL1  H24A 2505   1.403   5.506   8.254 -2.1162  1.5261  2.1026
   34CHL1  H24B 2506   1.562   5.569   8.291 -0.5778 -3.2449 -1.2609
   34CHL1   C25 2507   1.403   5.692   8.351 -0.0883  0.1202 -0.5853
   34CHL1   H25 2508   1.301   5.722   8.319  0.8323  2.4027 -1.6258
   34CHL1   C26 2509   1.397   5.626   8.488 -0.1669  0.2261  0.5062
   34CHL1  H26A 2510   1.323   5.544   8.494 -1.6834  1.6156  1.4136
   34CHL1  H26B 2511   1.501   5.600   8.520  0.0305  0.3271 -0.0290
   34CHL1  H26C 2512   1.365   5.697   8.567 -0.4998 -0.4125  0.9539
   34CHL1   C27 2513   1.484   5.824   8.358 -0.1085  0.1505  0.1783
   34CHL1  H27A 2514   1.453   5.892   8.276 -2.2923 -1.3823 -0.3693
   34CHL1  H27B 2515   1.466   5.879   8.453 -0.4851  0.7578 -0.2348
   34CHL1  H27C 2516   1.593   5.813   8.341 -0.3593 -1.4605 -0.6186
   35CHL1    C3 2517   6.125   6.620   7.200 -1.1969  0.2095 -0.2271
   35CHL1    H3 2518   6.016   6.641   7.212 -1.0243  1.0950 -0.1355
   35CHL1    O3 2519   6.165   6.611   7.067  0.9627 -0.1007  0.5769
   35CHL1   H3' 2520   6.261   6.608   7.071  0.9238 -2.0517  0.9161
   35CHL1    C4 2521   6.214   6.719   7.275  0.2994 -0.3177 -0.2141
   35CHL1   H4A 2522   6.317   6.700   7.239 -0.0279  1.9551 -2.6569
   35CHL1   H4B 2523   6.209   6.821   7.233  1.1627 -0.1509  0.0707
   35CHL1    C5 2524   6.200   6.716   7.427  0.1219  0.6426 -0.4745
   35CHL1    C6 2525   6.171   6.826   7.493 -0.4028 -0.8644  0.3714
   35CHL1    H6 2526   6.162   6.926   7.447 -1.0901 -0.8057  0.6152
   35CHL1    C7 2527   6.149   6.834   7.645  0.1857 -0.6484 -0.3047
   35CHL1   H7A 2528   6.201   6.920   7.692  0.2361 -0.1874 -1.1777
   35CHL1   H7B 2529   6.041   6.842   7.670  0.6663 -1.1474  2.1183
   35CHL1    C8 2530   6.184   6.698   7.715  0.1917 -1.0311 -0.3669
   35CHL1    H8 2531   6.295   6.692   7.716  0.2522 -2.4410 -3.5029
   35CHL1   C14 2532   6.125   6.676   7.858 -0.3069 -0.0176  0.2869
   35CHL1   H14 2533   6.019   6.642   7.846  0.3528 -2.2371  0.2416
   35CHL1   C15 2534   6.123   6.793   7.950  0.4700  0.3686 -0.1264
   35CHL1  H15A 2535   6.224   6.838   7.953  0.9610 -0.6483 -0.9843
   35CHL1  H15B 2536   6.052   6.868   7.908  1.1472  1.6225  0.8860
   35CHL1   C16 2537   6.089   6.740   8.084 -0.5287 -0.6291 -0.2191
   35CHL1  H16A 2538   6.165   6.774   8.157  0.4728 -1.2580 -0.9398
   35CHL1  H16B 2539   5.984   6.754   8.117 -0.2142 -2.8640  1.9823
   35CHL1   C17 2540   6.112   6.586   8.083 -0.1438 -0.0099  0.8188
   35CHL1   H17 2541   6.008   6.547   8.071 -1.2480  2.9770 -0.2519
   35CHL1   C13 2542   6.183   6.564   7.945  0.2880 -0.4792  0.0579
   35CHL1   C18 2543   6.339   6.580   7.957  0.1303  0.1656  0.0698
   35CHL1  H18A 2544   6.384   6.582   7.856 -1.2034  1.5544 -0.5141
   35CHL1  H18B 2545   6.359   6.680   8.001  2.1246  0.9687 -2.4023
   35CHL1  H18C 2546   6.394   6.505   8.019  0.9934 -1.2048 -2.2413
   35CHL1   C12 2547   6.149   6.434   7.871 -0.1298 -0.5699  0.1693
   35CHL1  H12A 2548   6.178   6.338   7.919 -0.2740 -0.8990 -0.3868
   35CHL1  H12B 2549   6.038   6.432   7.874 -0.1424  0.4944  1.0860
   35CHL1   C11 2550   6.189   6.436   7.722  1.3401  0.4379  0.0369
   35CHL1  H11A 2551   6.298   6.417   7.728  1.2712  0.1469  0.3726
   35CHL1  H11B 2552   6.143   6.348   7.672  0.0896  0.1569  1.5990
   35CHL1    C9 2553   6.157   6.566   7.638  0.3871  0.2744 -1.0176
   35CHL1    H9 2554   6.046   6.568   7.636  0.3544  2.1675 -0.2791
   35CHL1   C10 2555   6.204   6.571   7.491  0.4090  1.4109 -0.1548
   35CHL1   C19 2556   6.356   6.534   7.484 -0.1847  0.0429 -0.0999
   35CHL1  H19A 2557   6.413   6.595   7.557  1.3379 -2.9519  1.4189
   35CHL1  H19B 2558   6.374   6.426   7.505 -2.8464 -0.6367 -0.8388
   35CHL1  H19C 2559   6.400   6.537   7.382  2.3909 -2.3583  0.8186
   35CHL1    C1 2560   6.129   6.472   7.408  0.1425 -0.9386  0.4351
   35CHL1   H1A 2561   6.143   6.365   7.436 -1.5024 -0.9711  1.2902
   35CHL1   H1B 2562   6.022   6.500   7.414  0.4116  0.6851 -1.4013
   35CHL1    C2 2563   6.157   6.484   7.259 -0.1247 -0.6279 -0.6437
   35CHL1   H2A 2564   6.089   6.406   7.219 -0.2763 -0.2146 -1.2076
   35CHL1   H2B 2565   6.266   6.463   7.252  0.3675  1.5277 -0.1625
   35CHL1   C20 2566   6.177   6.531   8.207 -0.4846 -0.2252 -0.0743
   35CHL1   H20 2567   6.284   6.559   8.192 -1.7110  3.3153 -4.1582
   35CHL1   C21 2568   6.181   6.371   8.217  0.1353  0.5426 -0.7022
   35CHL1  H21A 2569   6.251   6.336   8.138  2.1334  0.3713  1.0708
   35CHL1  H21B 2570   6.078   6.332   8.203  0.6550 -0.4791 -1.8927
   35CHL1  H21C 2571   6.220   6.335   8.315 -1.6815 -0.0663 -0.1618
   35CHL1   C22 2572   6.135   6.600   8.343  0.1566 -0.2764  0.0440
   35CHL1  H22A 2573   6.195   6.544   8.418  0.0726  1.2593  1.3062
   35CHL1  H22B 2574   6.168   6.706   8.342 -0.4224 -0.0834 -1.1856
   35CHL1   C23 2575   5.986   6.586   8.381 -0.0099  0.2295 -0.2578
   35CHL1  H23A 2576   5.926   6.638   8.304  0.7513  1.8577  0.1998
   35CHL1  H23B 2577   5.951   6.483   8.360  2.0236 -0.2319 -1.6826
   35CHL1   C24 2578   5.949   6.637   8.523  0.3109 -0.6100 -0.0538
   35CHL1  H24A 2579   5.989   6.741   8.523 -1.3297  0.0871  1.5813
   35CHL1  H24B 2580   5.841   6.660   8.536  0.9013  1.9936  1.0156
   35CHL1   C25 2581   6.000   6.549   8.637 -0.0958 -0.3894  0.6032
   35CHL1   H25 2582   6.107   6.524   8.619 -0.4729 -1.1578 -0.7238
   35CHL1   C26 2583   5.989   6.609   8.776 -0.9241 -0.7330 -0.2771
   35CHL1  H26A 2584   6.002   6.534   8.857  2.3472  0.9517  0.9437
   35CHL1  H26B 2585   6.078   6.674   8.787 -2.3104  1.0071  1.7164
   35CHL1  H26C 2586   5.896   6.669   8.788 -0.0783  0.2821  1.6748
   35CHL1   C27 2587   5.920   6.418   8.628  0.1965 -0.1982 -0.7170
   35CHL1  H27A 2588   5.816   6.456   8.628  0.7789  1.5462  0.4840
   35CHL1  H27B 2589   5.931   6.348   8.714 -2.3996  0.9403  0.6551
   35CHL1  H27C 2590   5.947   6.364   8.535 -1.5986 -0.2739 -1.2254
   36CHL1    C3 2591   5.931   1.064   6.890  0.3601 -0.5946 -0.6587
   36CHL1    H3 2592   6.017   0.997   6.912  1.3874  0.6367 -0.8186
   36CHL1    O3 2593   5.887   1.029   6.763 -0.3323 -0.3488  0.1958
   36CHL1   H3' 2594   5.889   0.933   6.760 -0.9080 -0.5124  2.6693
   36CHL1    C4 2595   5.812   1.049   6.988  0.3965 -0.0779 -0.4774
   36CHL1   H4A 2596   5.734   1.122   6.959  1.2777  0.5173 -1.4398
   36CHL1   H4B 2597   5.764   0.949   6.987  2.4950 -1.1597 -0.3282
   36CHL1    C5 2598   5.863   1.079   7.135  0.8052 -0.6617 -0.0380
   36CHL1    C6 2599   5.862   0.985   7.233 -0.6577  0.5458  0.6952
   36CHL1    H6 2600   5.829   0.884   7.207  0.3055  0.0222  1.4439
   36CHL1    C7 2601   5.899   0.999   7.376 -0.2581  0.6216  0.3439
   36CHL1   H7A 2602   5.825   0.954   7.446 -0.2174 -0.3564 -0.2212
   36CHL1   H7B 2603   5.997   0.950   7.394 -0.3459  0.7739  1.2628
   36CHL1    C8 2604   5.916   1.146   7.399  0.0351 -0.3155 -0.2198
   36CHL1    H8 2605   5.817   1.197   7.405  1.1275  1.8921 -0.1593
   36CHL1   C14 2606   5.985   1.171   7.531  0.0284 -0.0304 -0.6048
   36CHL1   H14 2607   6.084   1.122   7.520  0.7171  1.3101 -0.5848
   36CHL1   C15 2608   5.924   1.110   7.658  0.0987 -0.7654  0.0278
   36CHL1  H15A 2609   5.814   1.106   7.673  0.2255 -1.5103  0.8376
   36CHL1  H15B 2610   5.937   1.000   7.659 -2.5520 -1.1606 -0.2335
   36CHL1   C16 2611   5.992   1.184   7.775 -0.0499 -0.3464  0.3076
   36CHL1  H16A 2612   5.923   1.236   7.845 -0.6102  1.1072 -1.2714
   36CHL1  H16B 2613   6.047   1.106   7.832 -1.1367 -1.2657  0.1117
   36CHL1   C17 2614   6.082   1.287   7.705 -0.2500 -0.4878 -0.1914
   36CHL1   H17 2615   6.183   1.243   7.688  0.1556  0.9193 -1.7949
   36CHL1   C13 2616   6.018   1.318   7.570  0.2128 -0.2106  0.0161
   36CHL1   C18 2617   5.883   1.399   7.604 -0.3993  0.5888  0.2311
   36CHL1  H18A 2618   5.807   1.395   7.523 -0.3770  0.8210  0.2000
   36CHL1  H18B 2619   5.838   1.378   7.703  2.0612 -0.5519  1.2040
   36CHL1  H18C 2620   5.906   1.507   7.610  0.6659  0.3916 -0.0137
   36CHL1   C12 2621   6.097   1.398   7.457  0.3446 -0.0313 -0.6746
   36CHL1  H12A 2622   6.111   1.508   7.466  0.0851 -0.1206  1.1796
   36CHL1  H12B 2623   6.198   1.352   7.457  0.3184 -0.1564  1.1881
   36CHL1   C11 2624   6.024   1.376   7.323 -0.1610 -1.2553 -0.3214
   36CHL1  H11A 2625   5.927   1.426   7.345  1.2851  1.2764  0.7070
   36CHL1  H11B 2626   6.064   1.425   7.232 -0.5924 -1.7561 -0.7825
   36CHL1    C9 2627   5.993   1.226   7.288  0.9727  0.2023  0.1241
   36CHL1    H9 2628   6.089   1.172   7.281 -0.1245 -1.6526 -1.8621
   36CHL1   C10 2629   5.916   1.220   7.150 -0.0560 -0.2345 -0.2198
   36CHL1   C19 2630   5.796   1.317   7.146  0.3292 -0.3417  0.2882
   36CHL1  H19A 2631   5.829   1.423   7.139 -1.5449  0.3401  1.2038
   36CHL1  H19B 2632   5.727   1.303   7.060  0.8330  0.5735 -0.2818
   36CHL1  H19C 2633   5.734   1.311   7.238 -0.4875 -2.3041 -0.3405
   36CHL1    C1 2634   6.026   1.241   7.036  0.1995  0.6560 -0.1671
   36CHL1   H1A 2635   6.065   1.345   7.036  0.5180  0.5396 -0.6385
   36CHL1   H1B 2636   6.114   1.178   7.062 -2.4584 -3.3917 -0.0424
   36CHL1    C2 2637   5.978   1.210   6.893  0.1613  0.0968  0.0978
   36CHL1   H2A 2638   6.057   1.234   6.818 -1.4395  2.6439 -0.9127
   36CHL1   H2B 2639   5.894   1.281   6.876  1.5420  1.6298 -0.6338
   36CHL1   C20 2640   6.100   1.414   7.794  0.3220  0.1756  0.2032
   36CHL1   H20 2641   6.010   1.480   7.797 -1.3240 -1.9778  0.7803
   36CHL1   C21 2642   6.208   1.504   7.732  0.1763 -0.3197  0.0993
   36CHL1  H21A 2643   6.175   1.556   7.639 -0.5883  3.8561  2.4624
   36CHL1  H21B 2644   6.295   1.443   7.700 -1.4627 -2.3508 -0.8160
   36CHL1  H21C 2645   6.238   1.593   7.791  0.2287  0.3962 -0.9672
   36CHL1   C22 2646   6.129   1.379   7.945 -0.1135  0.1209  0.3692
   36CHL1  H22A 2647   6.143   1.481   7.988  0.2453  0.4171 -0.4292
   36CHL1  H22B 2648   6.050   1.323   7.999 -0.5633  0.6399  0.2649
   36CHL1   C23 2649   6.257   1.299   7.968 -0.0552  0.2056  0.0938
   36CHL1  H23A 2650   6.234   1.197   7.929 -1.6256  0.8197 -0.6540
   36CHL1  H23B 2651   6.335   1.338   7.900  0.1428 -1.0022 -0.4125
   36CHL1   C24 2652   6.300   1.295   8.117  0.1326  0.2698  0.2791
   36CHL1  H24A 2653   6.396   1.240   8.128  1.6321  2.5594 -0.5027
   36CHL1  H24B 2654   6.332   1.400   8.138  1.2972 -0.4979  2.7425
   36CHL1   C25 2655   6.198   1.248   8.224  0.3589 -0.0958 -0.0350
   36CHL1   H25 2656   6.103   1.305   8.218 -0.2211 -1.1112 -0.9064
   36CHL1   C26 2657   6.145   1.106   8.201 -0.0703 -0.7330  0.2809
   36CHL1  H26A 2658   6.216   1.028   8.237 -0.8516 -1.6403 -0.0893
   36CHL1  H26B 2659   6.051   1.094   8.258 -1.8241  4.1450 -1.1261
   36CHL1  H26C 2660   6.115   1.083   8.096 -0.5933 -0.8614  0.4565
   36CHL1   C27 2661   6.266   1.264   8.360 -0.3036  0.0031  0.1699
   36CHL1  H27A 2662   6.194   1.261   8.444 -2.1731 -3.1338 -1.3309
   36CHL1  H27B 2663   6.344   1.188   8.381 -1.2248 -0.7161  1.0586
   36CHL1  H27C 2664   6.328   1.356   8.365  1.2081 -1.0519  1.8035
   37CHL1    C3 2665   2.751   6.646   6.699  0.1527 -0.7956 -0.3539
   37CHL1    H3 2666   2.661   6.709   6.682  0.6341  0.2603  0.8181
   37CHL1    O3 2667   2.809   6.618   6.570 -0.4511 -0.4459  0.1831
   37CHL1   H3' 2668   2.809   6.699   6.520 -0.3021 -1.5878 -1.7659
   37CHL1    C4 2669   2.856   6.717   6.788  0.6001 -0.4533  0.7514
   37CHL1   H4A 2670   2.952   6.664   6.772  1.5279  1.2139  0.6496
   37CHL1   H4B 2671   2.867   6.814   6.736  0.8081 -1.3545 -0.9718
   37CHL1    C5 2672   2.823   6.737   6.937 -0.0357  0.0667  0.1363
   37CHL1    C6 2673   2.832   6.855   6.998  0.0935  0.1095 -0.6044
   37CHL1    H6 2674   2.872   6.937   6.936 -1.3566  0.1803 -1.4740
   37CHL1    C7 2675   2.800   6.882   7.144 -0.1626  0.6461 -0.4237
   37CHL1   H7A 2676   2.881   6.949   7.182  0.9974 -0.3048 -1.1340
   37CHL1   H7B 2677   2.702   6.933   7.145  0.3928  1.7585  0.5850
   37CHL1    C8 2678   2.793   6.750   7.223 -0.3581 -0.3094  0.0874
   37CHL1    H8 2679   2.895   6.707   7.231 -0.6390 -0.7191  1.7418
   37CHL1   C14 2680   2.741   6.774   7.366 -0.0755 -0.7847  0.9611
   37CHL1   H14 2681   2.641   6.821   7.359 -0.0825 -0.7904  1.0262
   37CHL1   C15 2682   2.826   6.858   7.457  0.3733  0.1585 -0.7308
   37CHL1  H15A 2683   2.931   6.822   7.458 -0.0586 -1.5690  3.7590
   37CHL1  H15B 2684   2.814   6.961   7.419 -2.2922  0.3179  0.3152
   37CHL1   C16 2685   2.765   6.828   7.597  0.0897  0.0770  0.2267
   37CHL1  H16A 2686   2.852   6.816   7.665  0.7260  1.9475 -0.1928
   37CHL1  H16B 2687   2.707   6.917   7.630  0.7782  0.8169 -0.5117
   37CHL1   C17 2688   2.668   6.705   7.584  0.3112 -0.1328  0.0902
   37CHL1   H17 2689   2.567   6.747   7.564  0.6926  0.3912 -0.7955
   37CHL1   C13 2690   2.711   6.647   7.448 -0.6209 -0.3184 -0.2161
   37CHL1   C18 2691   2.842   6.562   7.468  0.5714 -0.2553 -1.0486
   37CHL1  H18A 2692   2.928   6.617   7.511 -0.3612  0.6537 -0.2907
   37CHL1  H18B 2693   2.830   6.483   7.544  0.1878  0.6087 -0.1965
   37CHL1  H18C 2694   2.876   6.510   7.375  1.3068 -1.2426 -0.2487
   37CHL1   C12 2695   2.597   6.569   7.371  0.1638 -1.1716 -0.4215
   37CHL1  H12A 2696   2.562   6.481   7.429 -0.8981  0.6088  1.8124
   37CHL1  H12B 2697   2.510   6.638   7.368 -0.8353 -2.3202  0.9015
   37CHL1   C11 2698   2.662   6.531   7.228  0.2318  0.2548 -0.0886
   37CHL1  H11A 2699   2.738   6.453   7.249  0.5763  0.8558  1.0305
   37CHL1  H11B 2700   2.579   6.479   7.177 -1.5077  1.0894  1.7333
   37CHL1    C9 2701   2.706   6.650   7.152 -0.1280  0.9435  0.0782
   37CHL1    H9 2702   2.608   6.701   7.137 -1.2532 -1.3552 -1.0352
   37CHL1   C10 2703   2.762   6.616   7.005 -0.6439  0.1600  0.2281
   37CHL1   C19 2704   2.880   6.513   7.017  0.3226 -0.1361 -0.5615
   37CHL1  H19A 2705   2.839   6.415   7.049 -2.0419  1.3926  1.5030
   37CHL1  H19B 2706   2.938   6.498   6.924  0.5163  0.4259 -0.5347
   37CHL1  H19C 2707   2.961   6.553   7.082  0.5189 -2.0217  0.4430
   37CHL1    C1 2708   2.657   6.559   6.910  0.1579 -0.1698 -0.4334
   37CHL1   H1A 2709   2.619   6.466   6.958  0.1235  0.1694  0.2100
   37CHL1   H1B 2710   2.569   6.626   6.901  0.4849  0.0981 -1.9666
   37CHL1    C2 2711   2.702   6.519   6.765  0.3170  0.8243  0.0128
   37CHL1   H2A 2712   2.620   6.470   6.708  1.0803 -1.5171  0.7860
   37CHL1   H2B 2713   2.786   6.448   6.776 -2.1348 -2.2026  0.7806
   37CHL1   C20 2714   2.653   6.611   7.700  0.4984 -0.3553  0.2689
   37CHL1   H20 2715   2.648   6.510   7.656  0.3559  0.5556 -1.9101
   37CHL1   C21 2716   2.510   6.635   7.762 -0.7761  0.1939  0.2119
   37CHL1  H21A 2717   2.484   6.579   7.854  0.9087 -1.2226 -0.1241
   37CHL1  H21B 2718   2.436   6.608   7.684  0.8062 -1.6565 -0.7579
   37CHL1  H21C 2719   2.498   6.744   7.781 -3.5696 -0.2070  1.1173
   37CHL1   C22 2720   2.763   6.627   7.809 -0.1951 -0.4142 -0.6189
   37CHL1  H22A 2721   2.856   6.613   7.750 -1.4538  0.1003 -2.8396
   37CHL1  H22B 2722   2.763   6.730   7.852  1.2499 -1.4082  1.9127
   37CHL1   C23 2723   2.752   6.533   7.932  0.2530 -0.4114 -0.5815
   37CHL1  H23A 2724   2.841   6.550   7.997 -1.5538 -0.4394  2.0303
   37CHL1  H23B 2725   2.662   6.560   7.990 -0.8996  1.9892 -3.2378
   37CHL1   C24 2726   2.756   6.381   7.886  0.0888 -0.0621 -0.2832
   37CHL1  H24A 2727   2.661   6.348   7.838 -1.7458  2.0594  1.6359
   37CHL1  H24B 2728   2.841   6.368   7.816  1.7765  0.5670  1.5716
   37CHL1   C25 2729   2.766   6.284   8.006 -0.1213 -0.3186 -0.6476
   37CHL1   H25 2730   2.771   6.188   7.949 -0.2281 -0.7764  0.1038
   37CHL1   C26 2731   2.898   6.299   8.086  0.5269 -0.1037  0.0545
   37CHL1  H26A 2732   2.983   6.323   8.019  0.4476 -1.7336 -0.6992
   37CHL1  H26B 2733   2.894   6.373   8.169  1.7020 -0.6694  0.6465
   37CHL1  H26C 2734   2.925   6.204   8.137  0.7809  0.7927  1.6739
   37CHL1   C27 2735   2.655   6.280   8.100  0.7423 -0.0270 -0.2495
   37CHL1  H27A 2736   2.658   6.196   8.172  2.4945  1.4284  1.5114
   37CHL1  H27B 2737   2.659   6.368   8.169  1.6687 -0.9995  0.9703
   37CHL1  H27C 2738   2.556   6.261   8.054  0.7055  0.4834 -0.3955
   38CHL1    C3 2739   6.407   2.887   6.646 -0.6866 -0.0101 -0.4082
   38CHL1    H3 2740   6.304   2.928   6.651 -1.3015 -1.5882  3.2363
   38CHL1    O3 2741   6.451   2.864   6.512 -0.4591 -0.2978  0.4352
   38CHL1   H3' 2742   6.539   2.827   6.519 -0.2346 -0.0110 -0.6408
   38CHL1    C4 2743   6.505   2.989   6.723  0.4123  0.0881  0.0658
   38CHL1   H4A 2744   6.606   2.944   6.724  0.1994 -0.3954  1.2346
   38CHL1   H4B 2745   6.497   3.083   6.664 -3.2374 -0.5042 -0.6455
   38CHL1    C5 2746   6.464   3.011   6.869  0.6129  0.4557  0.9090
   38CHL1    C6 2747   6.424   3.132   6.918  0.6878 -0.3384  0.0220
   38CHL1    H6 2748   6.425   3.219   6.851 -0.5822  0.3861  0.9141
   38CHL1    C7 2749   6.390   3.154   7.060  0.6397  0.1956 -0.6055
   38CHL1   H7A 2750   6.452   3.241   7.090  0.8683  0.3093 -1.3721
   38CHL1   H7B 2751   6.283   3.185   7.057  0.3839 -0.6719 -0.7441
   38CHL1    C8 2752   6.402   3.035   7.152  0.3837 -0.0569  0.3185
   38CHL1    H8 2753   6.512   3.041   7.166  0.1295  0.3064  2.4570
   38CHL1   C14 2754   6.325   3.052   7.282 -0.4648 -0.5667 -0.1344
   38CHL1   H14 2755   6.216   3.060   7.266 -0.7403 -2.8113  0.3078
   38CHL1   C15 2756   6.357   3.174   7.373  0.2276  0.2644 -0.1349
   38CHL1  H15A 2757   6.468   3.171   7.383  0.0294 -1.6020  2.8465
   38CHL1  H15B 2758   6.307   3.269   7.345  1.1142  0.7743 -0.0053
   38CHL1   C16 2759   6.306   3.132   7.508  0.4562  0.5672  0.2059
   38CHL1  H16A 2760   6.390   3.170   7.570  1.8898  0.5864 -1.6469
   38CHL1  H16B 2761   6.212   3.181   7.540 -0.2515 -0.6558  0.0674
   38CHL1   C17 2762   6.279   2.978   7.503  0.2910 -0.1335 -0.3531
   38CHL1   H17 2763   6.169   2.966   7.492  0.3237  0.3752 -1.3554
   38CHL1   C13 2764   6.345   2.931   7.376 -0.2566 -0.4971  0.0692
   38CHL1   C18 2765   6.504   2.909   7.403  0.0648  0.1977  0.1668
   38CHL1  H18A 2766   6.566   2.907   7.311 -1.6877  1.7962 -1.1255
   38CHL1  H18B 2767   6.544   2.996   7.460 -0.7482  1.6445 -1.4008
   38CHL1  H18C 2768   6.502   2.822   7.472 -3.1043 -0.8654 -1.0683
   38CHL1   C12 2769   6.276   2.816   7.296  0.3637 -0.1643  0.5116
   38CHL1  H12A 2770   6.269   2.727   7.362  1.9047 -1.4279 -0.9583
   38CHL1  H12B 2771   6.170   2.847   7.283  1.0975  1.8151 -1.4853
   38CHL1   C11 2772   6.335   2.783   7.165  0.1470  0.2005 -0.0554
   38CHL1  H11A 2773   6.431   2.729   7.178 -0.0503 -0.4474 -1.1079
   38CHL1  H11B 2774   6.268   2.718   7.104 -0.3679  1.0264 -0.3831
   38CHL1    C9 2775   6.360   2.905   7.078  0.5348  0.7108  0.1000
   38CHL1    H9 2776   6.257   2.924   7.039 -0.1879  2.2941  2.5877
   38CHL1   C10 2777   6.443   2.877   6.950  0.2475 -0.8461 -0.2284
   38CHL1   C19 2778   6.582   2.828   6.994 -0.5480  0.2414 -0.2062
   38CHL1  H19A 2779   6.569   2.736   7.056 -0.1075  0.5789  0.3895
   38CHL1  H19B 2780   6.657   2.813   6.913  0.3705  0.8156  0.5311
   38CHL1  H19C 2781   6.622   2.899   7.069 -1.1968  1.7989 -1.2914
   38CHL1    C1 2782   6.371   2.767   6.866 -0.2475  0.9253  0.0626
   38CHL1   H1A 2783   6.375   2.669   6.917  2.3473  0.1637 -1.4182
   38CHL1   H1B 2784   6.266   2.800   6.850 -0.9060 -1.0797 -0.0451
   38CHL1    C2 2785   6.416   2.746   6.716  0.0663 -0.5190 -0.3970
   38CHL1   H2A 2786   6.341   2.676   6.673 -0.2404 -0.5626  0.1827
   38CHL1   H2B 2787   6.521   2.709   6.718  2.7507  5.7208 -2.2347
   38CHL1   C20 2788   6.312   2.910   7.640 -0.3912  0.7588  0.5190
   38CHL1   H20 2789   6.423   2.910   7.645 -0.3039 -1.4132 -0.6258
   38CHL1   C21 2790   6.291   2.760   7.637 -0.0637 -0.0142 -0.3787
   38CHL1  H21A 2791   6.182   2.735   7.639 -0.1032  0.1616 -0.3386
   38CHL1  H21B 2792   6.329   2.715   7.732  0.1974  1.5924  0.3051
   38CHL1  H21C 2793   6.346   2.703   7.560 -0.6447 -0.1979 -0.6645
   38CHL1   C22 2794   6.252   2.986   7.757 -0.1586  0.3391 -0.4612
   38CHL1  H22A 2795   6.309   3.080   7.767  0.7102 -0.2730  0.5993
   38CHL1  H22B 2796   6.150   3.022   7.731 -0.4233  0.7851  1.1270
   38CHL1   C23 2797   6.254   2.915   7.892  0.0673 -0.5809 -0.3404
   38CHL1  H23A 2798   6.181   2.831   7.893 -1.1456  0.4215  1.8317
   38CHL1  H23B 2799   6.360   2.886   7.911 -0.4729 -1.9729  0.7674
   38CHL1   C24 2800   6.213   3.007   8.011  0.2170  0.3607 -0.2335
   38CHL1  H24A 2801   6.271   3.101   7.998  2.5862 -0.7806  1.2060
   38CHL1  H24B 2802   6.106   3.036   8.013  0.2260  0.4173 -0.5665
   38CHL1   C25 2803   6.254   2.952   8.150  0.1840  0.1734 -0.0674
   38CHL1   H25 2804   6.204   2.853   8.160  0.2061  0.2669  1.1302
   38CHL1   C26 2805   6.403   2.925   8.175 -0.5818  0.4103  0.5295
   38CHL1  H26A 2806   6.422   2.927   8.284 -0.7482 -1.2277  0.6081
   38CHL1  H26B 2807   6.448   2.828   8.144 -0.3420  0.4604  0.7237
   38CHL1  H26C 2808   6.460   3.003   8.120 -0.2050 -0.5571 -0.5041
   38CHL1   C27 2809   6.191   3.053   8.247 -0.1376 -0.0517  0.0518
   38CHL1  H27A 2810   6.239   3.153   8.233 -2.3470  0.9176 -1.1847
   38CHL1  H27B 2811   6.083   3.071   8.229  0.0023  0.2923 -0.4587
   38CHL1  H27C 2812   6.210   3.017   8.350  0.0666 -1.6057 -0.5026
   39CHL1    C3 2813   4.661   1.120   6.765  0.7475  0.2929  0.4816
   39CHL1    H3 2814   4.583   1.182   6.815  0.6187 -0.2283  0.9316
   39CHL1    O3 2815   4.619   1.081   6.637 -0.2591  0.5546 -0.6030
   39CHL1   H3' 2816   4.681   1.011   6.619 -2.6264 -2.2261  1.2295
   39CHL1    C4 2817   4.795   1.199   6.755  0.0763  0.8657  0.0156
   39CHL1   H4A 2818   4.875   1.129   6.723  0.0712  0.0290  1.7362
   39CHL1   H4B 2819   4.782   1.280   6.681 -0.2758  1.6560  0.9159
   39CHL1    C5 2820   4.827   1.248   6.894  0.1854 -0.2086 -0.0737
   39CHL1    C6 2821   4.842   1.377   6.916 -0.3136 -0.1727  0.3102
   39CHL1    H6 2822   4.823   1.447   6.834  2.1883  0.7355  0.3960
   39CHL1    C7 2823   4.883   1.437   7.052 -0.0243 -0.2499 -0.1454
   39CHL1   H7A 2824   4.962   1.515   7.044  0.6177 -0.8840 -0.1329
   39CHL1   H7B 2825   4.785   1.473   7.090  0.0943  0.4967 -0.5340
   39CHL1    C8 2826   4.924   1.332   7.165 -0.5241 -0.4349 -0.4760
   39CHL1    H8 2827   5.034   1.316   7.156  0.1511  2.9535  0.2247
   39CHL1   C14 2828   4.901   1.393   7.310 -0.8343  0.6682  0.2043
   39CHL1   H14 2829   4.791   1.404   7.327 -1.0892 -1.7288  0.4992
   39CHL1   C15 2830   4.971   1.527   7.335 -0.3604 -0.0250  0.1572
   39CHL1  H15A 2831   5.075   1.536   7.297 -1.3424  0.0436 -2.7153
   39CHL1  H15B 2832   4.916   1.614   7.294  2.0134  1.9156  0.8029
   39CHL1   C16 2833   4.955   1.541   7.490  0.5660  0.7917  0.0971
   39CHL1  H16A 2834   5.054   1.578   7.526  1.5470 -0.3195 -1.3484
   39CHL1  H16B 2835   4.879   1.616   7.522  1.2597  0.9961  1.3520
   39CHL1   C17 2836   4.900   1.398   7.542 -0.5822 -0.3201  0.1918
   39CHL1   H17 2837   4.789   1.411   7.545 -0.6690 -0.8440 -0.5034
   39CHL1   C13 2838   4.932   1.301   7.425 -0.0106 -0.1320 -0.1326
   39CHL1   C18 2839   5.082   1.271   7.430 -0.1366 -0.0151 -0.5625
   39CHL1  H18A 2840   5.109   1.174   7.478  1.8737  0.5947 -0.3633
   39CHL1  H18B 2841   5.126   1.262   7.328 -0.1164 -1.1402 -0.4666
   39CHL1  H18C 2842   5.148   1.348   7.476  1.6573 -1.4289 -0.6506
   39CHL1   C12 2843   4.838   1.180   7.403  0.0559  0.3434  0.4549
   39CHL1  H12A 2844   4.849   1.102   7.482 -0.0021  1.6799  1.8480
   39CHL1  H12B 2845   4.733   1.214   7.417 -0.6950 -1.6350 -0.0792
   39CHL1   C11 2846   4.852   1.105   7.267 -0.2997 -1.0307 -0.2002
   39CHL1  H11A 2847   4.957   1.070   7.256  0.2600  0.6237 -0.3517
   39CHL1  H11B 2848   4.787   1.016   7.257  1.6197 -2.3899 -1.2248
   39CHL1    C9 2849   4.838   1.207   7.149  0.8246  0.6286  0.2585
   39CHL1    H9 2850   4.730   1.232   7.152  0.8791  0.9553 -0.2895
   39CHL1   C10 2851   4.845   1.141   7.010  0.2722 -0.0425  0.5799
   39CHL1   C19 2852   4.980   1.074   6.984 -0.3020  0.8259 -0.4444
   39CHL1  H19A 2853   4.999   0.992   7.056  0.3359  0.9217 -0.5011
   39CHL1  H19B 2854   4.974   1.017   6.889 -2.2814 -1.2197  0.8104
   39CHL1  H19C 2855   5.066   1.143   6.997  0.3761  0.0906 -1.0095
   39CHL1    C1 2856   4.725   1.042   6.990  0.2133  0.1422  0.1948
   39CHL1   H1A 2857   4.734   0.949   7.051 -0.9893 -0.8489 -1.0694
   39CHL1   H1B 2858   4.635   1.091   7.033  0.9631  1.2854  0.5077
   39CHL1    C2 2859   4.689   0.990   6.848 -0.0624 -0.0253 -0.0512
   39CHL1   H2A 2860   4.604   0.919   6.859  0.6975 -0.9838 -0.2774
   39CHL1   H2B 2861   4.762   0.928   6.791 -0.0150  0.0630 -0.0864
   39CHL1   C20 2862   4.948   1.371   7.686 -0.3443 -0.5623  0.4669
   39CHL1   H20 2863   5.059   1.377   7.679 -0.3379  0.2767  1.0501
   39CHL1   C21 2864   4.896   1.232   7.736 -0.1758 -0.8430 -0.3053
   39CHL1  H21A 2865   4.948   1.154   7.675  1.0996 -0.5626  0.3882
   39CHL1  H21B 2866   4.786   1.233   7.721 -0.2529  0.9726  0.2196
   39CHL1  H21C 2867   4.918   1.225   7.844  0.5775 -2.5786 -0.5336
   39CHL1   C22 2868   4.918   1.493   7.784  0.7297 -0.4142 -0.4905
   39CHL1  H22A 2869   4.971   1.465   7.877  0.1236  0.5768  0.1721
   39CHL1  H22B 2870   4.957   1.593   7.754  0.8930 -0.3452 -0.0551
   39CHL1   C23 2871   4.766   1.510   7.820 -0.0355  0.7272  0.6005
   39CHL1  H23A 2872   4.708   1.524   7.727 -0.7952  0.9349  1.1020
   39CHL1  H23B 2873   4.722   1.417   7.862  0.4770  0.2956  0.1846
   39CHL1   C24 2874   4.732   1.618   7.926  0.0486  0.2801 -0.5133
   39CHL1  H24A 2875   4.790   1.623   8.020 -1.4097 -1.2892  0.5386
   39CHL1  H24B 2876   4.753   1.714   7.874  1.9249  0.3633  0.3317
   39CHL1   C25 2877   4.579   1.631   7.964 -0.6598 -0.2918 -0.1251
   39CHL1   H25 2878   4.557   1.539   8.022  1.4717 -1.0163 -0.3740
   39CHL1   C26 2879   4.547   1.741   8.070 -0.0046 -0.3518  0.3644
   39CHL1  H26A 2880   4.576   1.691   8.165  1.4459  1.6972  1.0718
   39CHL1  H26B 2881   4.607   1.833   8.054  0.3810 -0.5632  0.5724
   39CHL1  H26C 2882   4.437   1.754   8.068  0.2545  2.2151 -1.1978
   39CHL1   C27 2883   4.479   1.646   7.851  0.3942  0.1665 -0.0345
   39CHL1  H27A 2884   4.377   1.618   7.885  0.0611  0.5426 -0.6934
   39CHL1  H27B 2885   4.473   1.748   7.806 -1.3129  0.2392  0.2758
   39CHL1  H27C 2886   4.505   1.588   7.759  0.8102  1.7944 -0.9910
   40CHL1    C3 2887   2.690   6.006   6.740  0.2169  0.2010 -0.3927
   40CHL1    H3 2888   2.592   5.956   6.758  0.2683 -0.0155 -0.6942
   40CHL1    O3 2889   2.700   6.030   6.602  0.1496 -0.4016 -0.3684
   40CHL1   H3' 2890   2.794   6.035   6.584  0.5662 -0.7853  1.5138
   40CHL1    C4 2891   2.691   6.137   6.820 -0.4045 -0.4151  0.2228
   40CHL1   H4A 2892   2.782   6.192   6.786 -1.5181  1.4236  0.0410
   40CHL1   H4B 2893   2.608   6.197   6.776 -0.1078 -0.0124  0.1992
   40CHL1    C5 2894   2.673   6.120   6.972  0.5881 -0.6614 -0.4703
   40CHL1    C6 2895   2.563   6.163   7.039 -0.0481  0.1402  0.0058
   40CHL1    H6 2896   2.487   6.214   6.978  0.3625  2.1169  1.0605
   40CHL1    C7 2897   2.549   6.144   7.187  1.4504  0.2465  0.9850
   40CHL1   H7A 2898   2.509   6.236   7.236  0.0381 -0.2404  0.8005
   40CHL1   H7B 2899   2.475   6.062   7.198  1.1305  0.4820  0.6486
   40CHL1    C8 2900   2.684   6.096   7.257  0.5265  0.7778 -0.5868
   40CHL1    H8 2901   2.760   6.177   7.269 -1.1607  2.2688  0.6521
   40CHL1   C14 2902   2.644   6.028   7.390  0.5301  0.1196  0.4722
   40CHL1   H14 2903   2.576   5.943   7.366 -1.1021  1.7449 -1.0613
   40CHL1   C15 2904   2.548   6.112   7.490  0.0570  0.1395  0.5654
   40CHL1  H15A 2905   2.578   6.219   7.493  2.0158 -0.2762 -1.7973
   40CHL1  H15B 2906   2.443   6.088   7.462 -0.0940 -0.2815  1.4496
   40CHL1   C16 2907   2.584   6.059   7.624 -0.0612 -0.1081  0.3173
   40CHL1  H16A 2908   2.612   6.130   7.704 -2.1885 -1.1600  2.0952
   40CHL1  H16B 2909   2.491   6.016   7.665 -0.4450  1.0439  0.6840
   40CHL1   C17 2910   2.695   5.946   7.607  0.0257  0.5449  0.3844
   40CHL1   H17 2911   2.640   5.853   7.579  1.4162 -0.1466 -0.1059
   40CHL1   C13 2912   2.768   5.980   7.473 -0.1932  0.0263  0.1925
   40CHL1   C18 2913   2.866   6.102   7.499 -0.0589  0.1682 -0.0561
   40CHL1  H18A 2914   2.919   6.140   7.410  1.6306 -0.1737  0.7681
   40CHL1  H18B 2915   2.811   6.187   7.546 -0.2390  0.1388 -0.2136
   40CHL1  H18C 2916   2.946   6.075   7.571 -1.7368 -0.9722  1.4917
   40CHL1   C12 2917   2.837   5.867   7.388 -1.0378 -0.0228 -0.2018
   40CHL1  H12A 2918   2.932   5.838   7.438 -1.4949  0.2831  0.8708
   40CHL1  H12B 2919   2.766   5.782   7.378 -0.3127 -0.6372 -0.2385
   40CHL1   C11 2920   2.872   5.922   7.251 -0.0899 -0.2267 -0.5976
   40CHL1  H11A 2921   2.944   6.005   7.267 -1.1321  0.3179  1.4381
   40CHL1  H11B 2922   2.924   5.846   7.188  0.8294 -0.6260  0.6131
   40CHL1    C9 2923   2.751   5.984   7.175 -0.7481 -0.6184 -0.3059
   40CHL1    H9 2924   2.668   5.910   7.171 -0.4294 -1.2213  2.3092
   40CHL1   C10 2925   2.780   6.027   7.031 -0.3320 -0.1231  0.4337
   40CHL1   C19 2926   2.909   6.114   7.029 -1.2920  0.7458 -0.6740
   40CHL1  H19A 2927   2.991   6.049   7.066 -0.9078  1.5461 -0.0733
   40CHL1  H19B 2928   2.934   6.145   6.926 -0.7381  1.5019 -0.3215
   40CHL1  H19C 2929   2.903   6.202   7.097 -1.1900 -0.9871  1.7014
   40CHL1    C1 2930   2.807   5.898   6.950  0.4208 -0.2550  0.3814
   40CHL1   H1A 2931   2.901   5.850   6.983  0.2602 -1.1944 -0.4637
   40CHL1   H1B 2932   2.723   5.830   6.977  1.0605 -0.4011  2.1043
   40CHL1    C2 2933   2.806   5.927   6.796 -0.9118  0.1850  0.4635
   40CHL1   H2A 2934   2.818   5.834   6.736  0.2895  0.0387  0.9231
   40CHL1   H2B 2935   2.903   5.979   6.784 -1.4920  1.6532  1.7488
   40CHL1   C20 2936   2.767   5.928   7.738 -0.2881  0.4173  0.8978
   40CHL1   H20 2937   2.802   6.028   7.772  1.4763 -0.3427  1.4913
   40CHL1   C21 2938   2.889   5.842   7.701 -0.4863  0.2905 -0.3911
   40CHL1  H21A 2939   2.852   5.753   7.647 -0.1465 -2.6348  3.7380
   40CHL1  H21B 2940   2.936   5.806   7.795 -2.2493 -0.8299  0.1029
   40CHL1  H21C 2941   2.973   5.893   7.649  0.7377 -0.8962  0.3739
   40CHL1   C22 2942   2.691   5.852   7.857 -0.5382 -0.4902  0.6014
   40CHL1  H22A 2943   2.597   5.909   7.871 -0.5631 -0.3047 -0.2610
   40CHL1  H22B 2944   2.670   5.746   7.832  0.0873 -0.4722 -0.0598
   40CHL1   C23 2945   2.775   5.856   7.990  0.7507 -0.5287 -0.0824
   40CHL1  H23A 2946   2.849   5.774   7.974  1.3900  0.0249 -0.0210
   40CHL1  H23B 2947   2.823   5.955   8.005  0.9104 -0.7965  1.4205
   40CHL1   C24 2948   2.693   5.807   8.109  0.3249 -0.3424  0.0474
   40CHL1  H24A 2949   2.600   5.867   8.112 -0.0724 -0.4204 -4.6509
   40CHL1  H24B 2950   2.651   5.704   8.111 -0.5013 -0.0075  0.0693
   40CHL1   C25 2951   2.766   5.841   8.241  0.3895 -0.4329  0.1878
   40CHL1   H25 2952   2.796   5.947   8.245  2.2688 -0.9615  1.2517
   40CHL1   C26 2953   2.678   5.793   8.357  0.6701 -0.1485 -0.2689
   40CHL1  H26A 2954   2.668   5.685   8.377  0.5640 -0.0625  0.1777
   40CHL1  H26B 2955   2.717   5.830   8.455 -0.0834 -1.4622  0.5496
   40CHL1  H26C 2956   2.576   5.837   8.354 -0.2398 -2.1669 -0.2813
   40CHL1   C27 2957   2.894   5.756   8.255  0.2551 -0.5147 -0.1864
   40CHL1  H27A 2958   2.877   5.656   8.209 -2.6537 -1.3960  2.4623
   40CHL1  H27B 2959   2.974   5.802   8.194 -0.3247  1.3967  0.4176
   40CHL1  H27C 2960   2.937   5.745   8.357  0.6402 -2.3523 -0.5032
   41CHL1    C3 2961   3.250   5.761   6.760  0.5740 -0.6262 -0.6684
   41CHL1    H3 2962   3.353   5.802   6.773 -0.2327  0.8014  1.6542
   41CHL1    O3 2963   3.202   5.772   6.625 -0.7248  0.5253 -0.1548
   41CHL1   H3' 2964   3.121   5.721   6.617 -1.0069  0.9841 -0.2950
   41CHL1    C4 2965   3.249   5.610   6.812  0.0601  0.2563 -0.1516
   41CHL1   H4A 2966   3.146   5.571   6.806  0.1293  0.3376 -2.4423
   41CHL1   H4B 2967   3.322   5.571   6.738  2.8348  0.8323  2.0834
   41CHL1    C5 2968   3.294   5.589   6.957 -0.0265 -0.1276  0.6391
   41CHL1    C6 2969   3.397   5.507   6.980  0.5962 -0.0022  0.0357
   41CHL1    H6 2970   3.447   5.461   6.894  0.5964  2.1663 -1.1939
   41CHL1    C7 2971   3.454   5.492   7.119 -0.3881  0.1539  0.0295
   41CHL1   H7A 2972   3.501   5.394   7.143  0.7264  1.0341  1.6542
   41CHL1   H7B 2973   3.536   5.567   7.129  1.7117 -1.7179 -1.7993
   41CHL1    C8 2974   3.352   5.530   7.232 -0.3360  0.0319 -0.6814
   41CHL1    H8 2975   3.274   5.451   7.229  0.2560 -0.5643 -0.6833
   41CHL1   C14 2976   3.418   5.539   7.372 -0.3022  1.1796 -0.0330
   41CHL1   H14 2977   3.487   5.626   7.371 -0.7591  1.5477 -0.3824
   41CHL1   C15 2978   3.492   5.411   7.429  0.5086  0.5920  0.2217
   41CHL1  H15A 2979   3.443   5.317   7.395 -0.3207  0.4696  1.6816
   41CHL1  H15B 2980   3.600   5.410   7.401  0.3285  4.0572 -1.1043
   41CHL1   C16 2981   3.479   5.425   7.583 -0.1541  0.1330 -0.1420
   41CHL1  H16A 2982   3.418   5.337   7.612 -0.4367  0.5129  0.4413
   41CHL1  H16B 2983   3.577   5.436   7.635 -0.9378  2.7194  0.9501
   41CHL1   C17 2984   3.392   5.560   7.610 -0.0322  0.0295 -0.9926
   41CHL1   H17 2985   3.471   5.637   7.623 -0.7631  0.8766 -1.4483
   41CHL1   C13 2986   3.320   5.579   7.481 -0.4985 -0.2059  0.2975
   41CHL1   C18 2987   3.196   5.488   7.490 -0.4219  0.2067  0.0225
   41CHL1  H18A 2988   3.143   5.501   7.393 -2.6237 -0.6149  1.0297
   41CHL1  H18B 2989   3.222   5.382   7.512 -0.4524  0.4073  1.0677
   41CHL1  H18C 2990   3.122   5.517   7.568  0.1144 -0.3469  0.7607
   41CHL1   C12 2991   3.283   5.724   7.442  0.3443  0.0425 -0.4623
   41CHL1  H12A 2992   3.208   5.760   7.516  0.6390 -0.3596  0.0414
   41CHL1  H12B 2993   3.372   5.789   7.442 -0.1008  0.6993 -2.2497
   41CHL1   C11 2994   3.216   5.734   7.303 -0.0195  0.4144 -0.2273
   41CHL1  H11A 2995   3.116   5.686   7.311  1.1444 -2.1041  0.2862
   41CHL1  H11B 2996   3.206   5.842   7.277  0.0105 -0.0201 -2.2798
   41CHL1    C9 2997   3.294   5.673   7.194 -0.1023  0.3623 -0.1013
   41CHL1    H9 2998   3.385   5.735   7.179  0.2718  0.2343  1.4031
   41CHL1   C10 2999   3.213   5.665   7.061 -0.9127 -0.1782 -0.2522
   41CHL1   C19 3000   3.072   5.596   7.078 -0.6437  0.7124 -0.0342
   41CHL1  H19A 3001   3.049   5.528   6.993  0.0754  0.0803  0.2699
   41CHL1  H19B 3002   3.078   5.528   7.166 -0.8444  0.2078 -0.4069
   41CHL1  H19C 3003   2.993   5.673   7.091 -0.8538  0.5674 -0.4152
   41CHL1    C1 3004   3.204   5.808   7.001 -0.0403  0.1177  0.2836
   41CHL1   H1A 3005   3.149   5.875   7.071  0.7088 -1.1493  2.1578
   41CHL1   H1B 3006   3.307   5.847   7.009  1.5649 -3.0788 -2.3694
   41CHL1    C2 3007   3.161   5.837   6.857 -0.2440 -0.0777 -0.9976
   41CHL1   H2A 3008   3.149   5.945   6.835 -1.0139 -0.3778 -2.1495
   41CHL1   H2B 3009   3.060   5.793   6.844 -2.0428  3.2762  0.4574
   41CHL1   C20 3010   3.314   5.547   7.747 -1.2845 -0.2733 -0.1875
   41CHL1   H20 3011   3.244   5.461   7.739 -0.1117 -1.1588 -1.3425
   41CHL1   C21 3012   3.239   5.681   7.779  0.1221 -0.0351  0.0435
   41CHL1  H21A 3013   3.176   5.675   7.870 -0.2311 -0.2389 -0.2120
   41CHL1  H21B 3014   3.172   5.712   7.695  0.6372 -0.0054 -0.3584
   41CHL1  H21C 3015   3.312   5.761   7.802  0.5796 -0.4722  0.1136
   41CHL1   C22 3016   3.414   5.519   7.865  0.5531  0.3704  0.3504
   41CHL1  H22A 3017   3.453   5.417   7.846 -3.3674 -1.4200  0.8869
   41CHL1  H22B 3018   3.493   5.597   7.869  0.8546  0.0577  0.5590
   41CHL1   C23 3019   3.347   5.516   8.001 -0.3702  0.9921 -0.0545
   41CHL1  H23A 3020   3.301   5.614   8.026 -1.3921  1.3811 -3.1259
   41CHL1  H23B 3021   3.268   5.438   7.999  1.3803 -0.8781  0.4847
   41CHL1   C24 3022   3.452   5.479   8.114  1.1831  0.0946 -1.1518
   41CHL1  H24A 3023   3.503   5.388   8.076 -0.5696 -0.2847 -2.7652
   41CHL1  H24B 3024   3.523   5.561   8.136  0.1494 -0.1863  4.7621
   41CHL1   C25 3025   3.382   5.449   8.250  0.2890 -0.2872  0.4860
   41CHL1   H25 3026   3.464   5.414   8.315  1.5106  0.3984 -0.6287
   41CHL1   C26 3027   3.317   5.579   8.303 -0.2540  0.2760 -0.1550
   41CHL1  H26A 3028   3.399   5.653   8.313  1.4267 -1.4883 -0.2570
   41CHL1  H26B 3029   3.249   5.622   8.228  1.6962  1.5412 -1.2751
   41CHL1  H26C 3030   3.267   5.564   8.402 -1.7565  0.1454 -0.9112
   41CHL1   C27 3031   3.286   5.330   8.245  0.6116  0.3140  0.5294
   41CHL1  H27A 3032   3.244   5.305   8.345  0.1525  1.7178  0.7185
   41CHL1  H27B 3033   3.199   5.357   8.181  0.9202 -0.1119 -0.0698
   41CHL1  H27C 3034   3.342   5.247   8.198  1.9919  0.8093  1.2361
   42CHL1    C3 3035   4.320   2.580   6.887  0.1243 -0.4994 -0.0617
   42CHL1    H3 3036   4.338   2.471   6.903 -0.3112 -0.8980 -2.0160
   42CHL1    O3 3037   4.332   2.585   6.748  0.5309 -0.7228  0.7048
   42CHL1   H3' 3038   4.335   2.680   6.734  0.4158 -0.8536 -0.2708
   42CHL1    C4 3039   4.179   2.639   6.923 -0.1251  0.3273  0.2230
   42CHL1   H4A 3040   4.166   2.744   6.892 -1.0478 -0.1140 -0.9427
   42CHL1   H4B 3041   4.104   2.579   6.868  2.0271 -1.8352 -0.5716
   42CHL1    C5 3042   4.164   2.634   7.070  0.3200  0.4008 -0.3020
   42CHL1    C6 3043   4.069   2.559   7.122 -0.1082  0.3311  0.0662
   42CHL1    H6 3044   4.001   2.494   7.066 -0.6219 -0.1442  1.2147
   42CHL1    C7 3045   4.036   2.550   7.274 -0.3875 -0.4374  0.2519
   42CHL1   H7A 3046   3.929   2.567   7.298 -0.6485 -0.5884 -0.7888
   42CHL1   H7B 3047   4.056   2.448   7.313 -2.8855 -0.3757  1.9317
   42CHL1    C8 3048   4.126   2.647   7.364 -0.0282 -0.6389  0.6366
   42CHL1    H8 3049   4.079   2.747   7.352 -0.0137 -0.9413 -2.9283
   42CHL1   C14 3050   4.136   2.605   7.509  0.4782  0.1780 -0.2048
   42CHL1   H14 3051   4.196   2.512   7.495  0.4739  0.2932 -1.0679
   42CHL1   C15 3052   4.003   2.568   7.588 -0.2286 -0.2087  0.2296
   42CHL1  H15A 3053   3.931   2.651   7.573  1.2451  1.7193  2.9423
   42CHL1  H15B 3054   3.966   2.472   7.547 -0.6473  0.2040 -0.3647
   42CHL1   C16 3055   4.053   2.579   7.735 -0.1339 -0.2955 -0.0092
   42CHL1  H16A 3056   3.981   2.634   7.800  0.9726  2.2447 -0.7978
   42CHL1  H16B 3057   4.045   2.477   7.779 -1.0825  0.5618  1.9490
   42CHL1   C17 3058   4.209   2.616   7.727  0.0706 -0.0509  0.0057
   42CHL1   H17 3059   4.263   2.521   7.704 -1.0540 -0.3665 -1.4753
   42CHL1   C13 3060   4.222   2.696   7.603  0.3630  0.2470 -0.7497
   42CHL1   C18 3061   4.160   2.833   7.628 -0.7755 -0.7507  0.3006
   42CHL1  H18A 3062   4.094   2.844   7.717 -0.0291  2.8855  0.5566
   42CHL1  H18B 3063   4.245   2.903   7.644 -0.2882 -0.9319 -1.3893
   42CHL1  H18C 3064   4.112   2.864   7.533 -2.3324 -2.1542  0.5670
   42CHL1   C12 3065   4.360   2.704   7.539  0.1271  0.4528 -0.2312
   42CHL1  H12A 3066   4.425   2.778   7.589  1.1494  0.2575 -1.2269
   42CHL1  H12B 3067   4.410   2.605   7.549  0.4580  0.7947  2.1588
   42CHL1   C11 3068   4.357   2.752   7.393 -0.0793  0.4256 -0.3496
   42CHL1  H11A 3069   4.320   2.856   7.396 -0.6685  0.1940  1.6252
   42CHL1  H11B 3070   4.463   2.746   7.361  0.2587 -0.3681  0.8361
   42CHL1    C9 3071   4.265   2.661   7.308 -0.2218 -0.4602  0.3158
   42CHL1    H9 3072   4.314   2.561   7.301 -0.0587 -0.6997  3.5270
   42CHL1   C10 3073   4.272   2.704   7.161  0.4063 -0.7632  0.9179
   42CHL1   C19 3074   4.239   2.860   7.144 -0.1653 -0.2563 -0.3789
   42CHL1  H19A 3075   4.141   2.883   7.192  0.4527  0.5735  0.5226
   42CHL1  H19B 3076   4.324   2.913   7.192  0.5741 -1.0361 -0.8017
   42CHL1  H19C 3077   4.244   2.883   7.035 -3.2836  1.7079 -0.2470
   42CHL1    C1 3078   4.418   2.672   7.106 -0.2461  0.3603 -0.7235
   42CHL1   H1A 3079   4.494   2.744   7.143  1.8672 -1.9217 -0.3814
   42CHL1   H1B 3080   4.446   2.570   7.138 -1.7067  0.2162  0.2313
   42CHL1    C2 3081   4.422   2.668   6.944 -0.6741 -0.4243  0.2822
   42CHL1   H2A 3082   4.519   2.644   6.895  0.1202 -0.3624  1.7617
   42CHL1   H2B 3083   4.412   2.773   6.909  3.8466 -0.4729 -1.7949
   42CHL1   C20 3084   4.267   2.668   7.866  0.4665 -0.2402  0.2140
   42CHL1   H20 3085   4.209   2.755   7.904  0.8491  1.0323 -1.9043
   42CHL1   C21 3086   4.418   2.705   7.867  0.7746 -0.1933  0.4956
   42CHL1  H21A 3087   4.429   2.790   7.797  0.2644 -0.8634 -0.4345
   42CHL1  H21B 3088   4.473   2.617   7.827 -0.8962 -0.3712 -1.6741
   42CHL1  H21C 3089   4.456   2.728   7.968 -1.3208  0.2883  1.2175
   42CHL1   C22 3090   4.239   2.556   7.976  0.2805 -0.4941 -0.4318
   42CHL1  H22A 3091   4.137   2.516   7.963  0.4918 -0.5485 -2.1639
   42CHL1  H22B 3092   4.312   2.472   7.964  0.1479 -0.6311 -0.2801
   42CHL1   C23 3093   4.232   2.606   8.123  0.1862  0.0252 -0.4987
   42CHL1  H23A 3094   4.330   2.654   8.146  0.5211 -1.1745  0.7620
   42CHL1  H23B 3095   4.157   2.687   8.126 -0.4719 -0.5584 -0.9124
   42CHL1   C24 3096   4.187   2.490   8.219 -0.5471 -0.1582 -0.7160
   42CHL1  H24A 3097   4.096   2.436   8.185 -0.0934 -1.3921 -0.0629
   42CHL1  H24B 3098   4.265   2.411   8.228  0.3730  0.9432  2.6929
   42CHL1   C25 3099   4.170   2.543   8.369  0.0616  0.5035 -0.4466
   42CHL1   H25 3100   4.103   2.632   8.373 -1.9547 -0.9705  1.3218
   42CHL1   C26 3101   4.105   2.424   8.451 -0.1367 -0.2290  0.2156
   42CHL1  H26A 3102   4.099   2.462   8.555  1.6435  0.0064  0.2686
   42CHL1  H26B 3103   4.004   2.401   8.410  0.0506 -0.3754 -0.1692
   42CHL1  H26C 3104   4.163   2.330   8.457  0.6302  0.3546  3.4454
   42CHL1   C27 3105   4.303   2.586   8.430  0.0154  0.2714  0.0795
   42CHL1  H27A 3106   4.287   2.632   8.530  0.0407  0.6571 -0.0926
   42CHL1  H27B 3107   4.353   2.657   8.361 -0.4342 -0.9734 -1.5804
   42CHL1  H27C 3108   4.371   2.499   8.439 -1.7845 -1.1268  0.7425
   43CHL1    C3 3109   3.724   0.127   6.737  0.8060 -0.1215  0.4969
   43CHL1    H3 3110   3.669   0.032   6.743 -0.9414  0.8171 -0.0126
   43CHL1    O3 3111   3.724   0.172   6.602 -0.0101  0.2678 -0.1726
   43CHL1   H3' 3112   3.686   0.096   6.558 -0.7611  1.5193 -1.7808
   43CHL1    C4 3113   3.651   0.218   6.836  0.0671  0.7010 -0.7027
   43CHL1   H4A 3114   3.697   0.319   6.825  1.7076  0.1594  0.7715
   43CHL1   H4B 3115   3.547   0.204   6.800 -0.0088 -2.9311  0.5221
   43CHL1    C5 3116   3.666   0.191   6.984  0.2567 -1.0137 -0.4224
   43CHL1    C6 3117   3.561   0.169   7.064  0.0443  0.5109  0.1606
   43CHL1    H6 3118   3.459   0.177   7.023 -0.2397  0.0566  0.7584
   43CHL1    C7 3119   3.566   0.127   7.211 -0.1098 -0.1645  0.1794
   43CHL1   H7A 3120   3.490   0.187   7.267 -0.9436 -1.2455  0.2517
   43CHL1   H7B 3121   3.546   0.018   7.210  1.8009 -0.5524 -1.0038
   43CHL1    C8 3122   3.700   0.161   7.276 -1.6176 -0.5266 -0.3138
   43CHL1    H8 3123   3.715   0.271   7.280 -4.2163  0.0038 -2.3773
   43CHL1   C14 3124   3.720   0.107   7.424  0.0097 -0.2387  0.2859
   43CHL1   H14 3125   3.697  -0.001   7.418 -2.6923  0.2603  0.3998
   43CHL1   C15 3126   3.619   0.154   7.529 -0.1851  0.8182  0.7157
   43CHL1  H15A 3127   3.618   0.265   7.524 -0.5117  0.8005  0.3279
   43CHL1  H15B 3128   3.520   0.104   7.519  0.6499 -0.6924 -0.3988
   43CHL1   C16 3129   3.692   0.123   7.662 -0.0855  0.5672  0.3583
   43CHL1  H16A 3130   3.688   0.219   7.717  2.4909  0.7463  0.3606
   43CHL1  H16B 3131   3.648   0.041   7.724 -0.7094  0.2568 -0.4820
   43CHL1   C17 3132   3.844   0.089   7.632  0.8681 -0.4939  0.5175
   43CHL1   H17 3133   3.847  -0.021   7.618 -1.5116 -0.3068 -2.1144
   43CHL1   C13 3134   3.860   0.131   7.485 -0.6238  0.2738  0.0004
   43CHL1   C18 3135   3.901   0.279   7.483 -0.1121 -0.2421 -0.1096
   43CHL1  H18A 3136   3.997   0.290   7.538  0.2284  0.5208 -0.8426
   43CHL1  H18B 3137   3.908   0.327   7.383  0.6386 -1.2608 -0.5543
   43CHL1  H18C 3138   3.823   0.333   7.541  0.8156 -0.1208  1.0763
   43CHL1   C12 3139   3.956   0.048   7.399 -0.1592 -0.0065  0.9138
   43CHL1  H12A 3140   4.054   0.079   7.442 -0.0928  1.7801 -0.4018
   43CHL1  H12B 3141   3.943  -0.061   7.419 -1.4503  0.3042  1.8698
   43CHL1   C11 3142   3.954   0.091   7.252 -0.3075 -0.1236  0.2437
   43CHL1  H11A 3143   3.988   0.196   7.246 -1.0221  0.1048  0.2004
   43CHL1  H11B 3144   4.013   0.018   7.192  0.0785  0.5604 -0.2208
   43CHL1    C9 3145   3.812   0.106   7.183 -1.6247  0.3642 -0.1154
   43CHL1    H9 3146   3.785  -0.001   7.171 -0.4203 -0.3429  2.6085
   43CHL1   C10 3147   3.809   0.170   7.040 -0.1182 -0.1317 -0.8248
   43CHL1   C19 3148   3.872   0.310   7.043 -0.6360 -0.6818  0.3277
   43CHL1  H19A 3149   3.972   0.304   7.091 -0.1425 -2.2033 -0.8201
   43CHL1  H19B 3150   3.897   0.354   6.944 -2.4539 -0.6346 -0.1359
   43CHL1  H19C 3151   3.821   0.389   7.102  0.0606  1.4536 -1.7705
   43CHL1    C1 3152   3.887   0.079   6.932 -0.4470 -0.2939 -0.4641
   43CHL1   H1A 3153   3.995   0.084   6.957 -1.1312 -1.5505  3.2935
   43CHL1   H1B 3154   3.858  -0.027   6.947  0.2009 -0.2853  1.0786
   43CHL1    C2 3155   3.864   0.122   6.783 -0.2731  0.0664  0.3162
   43CHL1   H2A 3156   3.916   0.057   6.709  0.1697 -0.6467  1.2347
   43CHL1   H2B 3157   3.906   0.224   6.773  1.3522 -0.6636 -0.8859
   43CHL1   C20 3158   3.936   0.133   7.745  0.1616  0.5605  1.2597
   43CHL1   H20 3159   3.953   0.243   7.741 -0.9365  0.7653  1.8322
   43CHL1   C21 3160   4.079   0.065   7.718  0.5620 -0.4305 -0.4820
   43CHL1  H21A 3161   4.145   0.113   7.793 -0.7444  1.9601 -0.7603
   43CHL1  H21B 3162   4.121   0.087   7.618  1.5139  1.2317  0.2435
   43CHL1  H21C 3163   4.065  -0.045   7.726 -0.4279 -0.5378 -2.7227
   43CHL1   C22 3164   3.890   0.104   7.890 -0.1624  0.2067  0.5532
   43CHL1  H22A 3165   3.795   0.162   7.896 -1.0461 -1.1379  0.1097
   43CHL1  H22B 3166   3.860  -0.003   7.889 -1.1692  0.4428  2.1210
   43CHL1   C23 3167   3.982   0.138   8.010  0.0579 -0.0749 -0.3323
   43CHL1  H23A 3168   4.082   0.092   7.998 -0.2119 -0.9530  0.6668
   43CHL1  H23B 3169   3.991   0.249   8.015 -1.8689  0.0849  1.0732
   43CHL1   C24 3170   3.926   0.098   8.144 -0.2175  0.1529 -0.1132
   43CHL1  H24A 3171   3.830   0.151   8.160 -0.7111 -0.5533 -0.6755
   43CHL1  H24B 3172   3.897  -0.009   8.135 -2.8473  0.7971 -0.0702
   43CHL1   C25 3173   4.005   0.138   8.270 -0.2439 -0.1799  0.2595
   43CHL1   H25 3174   3.956   0.095   8.360  0.4192 -1.5918 -0.0362
   43CHL1   C26 3175   4.147   0.080   8.267  0.1475  0.8539  0.1939
   43CHL1  H26A 3176   4.160  -0.023   8.227 -0.9244  1.0872 -0.7998
   43CHL1  H26B 3177   4.209   0.144   8.200 -0.1761  1.2839  0.3060
   43CHL1  H26C 3178   4.186   0.091   8.371 -0.9188  1.3990  0.5483
   43CHL1   C27 3179   4.011   0.289   8.297  0.1193 -0.2339 -1.1037
   43CHL1  H27A 3180   4.076   0.313   8.384  0.0714  1.2764 -1.4649
   43CHL1  H27B 3181   4.054   0.344   8.211 -1.2049  0.9396 -1.0560
   43CHL1  H27C 3182   3.904   0.318   8.307  0.2905 -0.3478  2.3927
   44CHL1    C3 3183   3.852   6.351   6.782  1.0485  0.7249  0.3792
   44CHL1    H3 3184   3.757   6.295   6.791  1.3212  0.1757 -0.0838
   44CHL1    O3 3185   3.887   6.361   6.642 -0.7191 -0.0913 -0.2448
   44CHL1   H3' 3186   3.926   6.447   6.626 -2.0075  0.7284  0.7938
   44CHL1    C4 3187   3.836   6.492   6.841  0.2632 -1.2250 -0.0525
   44CHL1   H4A 3188   3.931   6.546   6.822 -0.2189 -0.6047 -0.7610
   44CHL1   H4B 3189   3.753   6.549   6.795  0.9243  0.4811  0.7526
   44CHL1    C5 3190   3.819   6.480   6.987  0.0469  0.6299  0.5348
   44CHL1    C6 3191   3.704   6.525   7.043 -0.1920  0.2735  0.2861
   44CHL1    H6 3192   3.638   6.589   6.984 -0.5712 -1.1134 -0.8377
   44CHL1    C7 3193   3.677   6.507   7.192 -0.2443  0.0892 -0.3673
   44CHL1   H7A 3194   3.628   6.603   7.218  0.1179  0.3476 -0.6229
   44CHL1   H7B 3195   3.593   6.437   7.207 -0.1740  0.0866  0.0244
   44CHL1    C8 3196   3.797   6.469   7.283  0.1493 -0.1600 -0.3340
   44CHL1    H8 3197   3.849   6.565   7.304 -1.2804  1.1249 -2.2966
   44CHL1   C14 3198   3.745   6.422   7.416 -0.5425  0.6647  0.3265
   44CHL1   H14 3199   3.680   6.334   7.398 -0.1602  0.2086  1.1135
   44CHL1   C15 3200   3.659   6.522   7.486 -0.6253  0.1129  0.1566
   44CHL1  H15A 3201   3.701   6.625   7.488  2.2702 -0.9766  2.6642
   44CHL1  H15B 3202   3.556   6.519   7.444 -0.5820  1.3070 -0.0930
   44CHL1   C16 3203   3.650   6.465   7.629 -0.5771 -0.0386  0.2657
   44CHL1  H16A 3204   3.686   6.546   7.695  0.2474 -0.5116  0.4186
   44CHL1  H16B 3205   3.549   6.421   7.641  0.4136 -2.5632 -0.0074
   44CHL1   C17 3206   3.761   6.355   7.641 -0.0830  0.4455 -0.2233
   44CHL1   H17 3207   3.718   6.253   7.627 -1.0563  0.8026  0.0908
   44CHL1   C13 3208   3.849   6.378   7.517 -0.2125  0.1222  0.2673
   44CHL1   C18 3209   3.954   6.488   7.540  0.1451 -0.0830 -0.0933
   44CHL1  H18A 3210   4.036   6.465   7.611  0.8613  0.0724 -0.8512
   44CHL1  H18B 3211   4.013   6.523   7.453 -0.0334  0.1371 -0.1270
   44CHL1  H18C 3212   3.907   6.583   7.573 -0.2670  0.0851 -1.1272
   44CHL1   C12 3213   3.921   6.253   7.446  0.1584  0.0971 -0.9409
   44CHL1  H12A 3214   4.006   6.222   7.511  1.1262  3.0267 -0.6882
   44CHL1  H12B 3215   3.848   6.170   7.434 -2.3448  1.9966  0.1762
   44CHL1   C11 3216   3.977   6.286   7.304 -0.0954  0.1187 -0.6916
   44CHL1  H11A 3217   4.064   6.352   7.324 -1.4291  1.4627  0.9265
   44CHL1  H11B 3218   4.018   6.193   7.258  3.2864 -0.5600  3.0942
   44CHL1    C9 3219   3.874   6.358   7.215 -0.2398 -0.3519  0.2338
   44CHL1    H9 3220   3.791   6.285   7.204  0.2953 -0.7941 -1.2088
   44CHL1   C10 3221   3.921   6.388   7.068  0.1699  0.3919 -0.1817
   44CHL1   C19 3222   4.052   6.473   7.069 -0.1410 -0.5728  0.0648
   44CHL1  H19A 3223   4.130   6.405   7.109 -1.0441 -0.5175  2.0272
   44CHL1  H19B 3224   4.094   6.494   6.968 -0.4194 -1.4433 -0.2394
   44CHL1  H19C 3225   4.046   6.560   7.138  1.4771 -0.4270  0.0659
   44CHL1    C1 3226   3.930   6.248   6.998  0.1497 -0.2495 -0.3344
   44CHL1   H1A 3227   4.015   6.195   7.047 -0.9881 -0.3135  1.6464
   44CHL1   H1B 3228   3.844   6.180   7.017  0.2413  0.0803  1.4385
   44CHL1    C2 3229   3.969   6.278   6.856  0.5182  0.1380 -0.0854
   44CHL1   H2A 3230   4.000   6.187   6.801 -2.0037  0.0714 -1.5486
   44CHL1   H2B 3231   4.062   6.338   6.840  0.3806  0.3193 -0.2103
   44CHL1   C20 3232   3.824   6.349   7.777  0.5065 -0.0674 -0.7413
   44CHL1   H20 3233   3.869   6.451   7.783  0.9718 -0.3040 -0.0971
   44CHL1   C21 3234   3.931   6.236   7.779 -0.3477  0.6058 -0.0934
   44CHL1  H21A 3235   3.877   6.140   7.765 -0.1304  0.3983  0.4541
   44CHL1  H21B 3236   3.976   6.226   7.880 -1.3108  1.2907  0.4320
   44CHL1  H21C 3237   4.016   6.257   7.711 -0.0502  1.3123  0.4892
   44CHL1   C22 3238   3.725   6.337   7.898 -0.3179 -0.6467  0.0674
   44CHL1  H22A 3239   3.648   6.416   7.903  0.7642  0.4157  0.5182
   44CHL1  H22B 3240   3.669   6.241   7.892 -0.4110 -0.7315  1.8982
   44CHL1   C23 3241   3.795   6.329   8.039  0.3575  0.7195 -0.1426
   44CHL1  H23A 3242   3.803   6.222   8.065  0.8513  1.3192  2.4443
   44CHL1  H23B 3243   3.900   6.364   8.025  1.7342 -2.3525  1.5133
   44CHL1   C24 3244   3.741   6.408   8.159 -0.6525 -0.1734 -0.1279
   44CHL1  H24A 3245   3.749   6.518   8.145  1.3661 -0.2516 -0.0015
   44CHL1  H24B 3246   3.631   6.400   8.171 -0.8100  1.7466  0.0143
   44CHL1   C25 3247   3.810   6.381   8.290  0.5543  0.5450  0.1959
   44CHL1   H25 3248   3.921   6.383   8.279  0.5543 -1.4755 -0.5213
   44CHL1   C26 3249   3.786   6.503   8.383 -0.5523  0.2998  0.1779
   44CHL1  H26A 3250   3.677   6.498   8.400 -0.6020 -0.1630 -0.2282
   44CHL1  H26B 3251   3.849   6.500   8.474 -0.8641  3.2254  0.5683
   44CHL1  H26C 3252   3.814   6.595   8.327 -0.1711 -0.5206 -1.0324
   44CHL1   C27 3253   3.771   6.240   8.343  0.8365 -0.9339 -0.5333
   44CHL1  H27A 3254   3.807   6.157   8.279  0.5796 -0.6199 -1.0941
   44CHL1  H27B 3255   3.826   6.227   8.438  1.8543  0.4966 -0.9115
   44CHL1  H27C 3256   3.661   6.238   8.360  0.9497 -3.1942  0.3675
   45CHL1    C3 3257   5.210   5.019   6.695 -0.2298  0.6986  0.1128
   45CHL1    H3 3258   5.315   4.991   6.718 -0.5638 -0.5852  0.1661
   45CHL1    O3 3259   5.184   5.031   6.556 -0.2828 -0.4284  0.0776
   45CHL1   H3' 3260   5.090   5.048   6.549 -0.3765 -1.3370 -1.2666
   45CHL1    C4 3261   5.107   4.917   6.758 -0.3725 -0.1902  1.2629
   45CHL1   H4A 3262   5.007   4.966   6.751 -0.2268  0.0411  0.7787
   45CHL1   H4B 3263   5.104   4.820   6.703  1.5738  0.2749  0.2781
   45CHL1    C5 3264   5.116   4.908   6.908  0.2424  0.0651 -0.3450
   45CHL1    C6 3265   5.145   4.786   6.962 -0.4449  0.3101  0.7811
   45CHL1    H6 3266   5.153   4.697   6.897  2.5130  0.8794  0.1872
   45CHL1    C7 3267   5.142   4.767   7.113  0.0552  0.8564 -0.3096
   45CHL1   H7A 3268   5.068   4.689   7.140  0.1039  0.5362 -1.0822
   45CHL1   H7B 3269   5.240   4.728   7.148 -1.3412 -2.0044  0.7725
   45CHL1    C8 3270   5.105   4.888   7.198 -0.3811  0.4329 -0.1566
   45CHL1    H8 3271   4.994   4.883   7.194 -0.3390  0.3109 -2.1099
   45CHL1   C14 3272   5.158   4.870   7.343 -0.4602 -0.0703 -0.4289
   45CHL1   H14 3273   5.269   4.871   7.341 -0.3624  2.8997  0.6993
   45CHL1   C15 3274   5.118   4.743   7.418 -0.3054 -0.0036  0.0978
   45CHL1  H15A 3275   5.013   4.708   7.413  0.0784 -1.0554 -0.9335
   45CHL1  H15B 3276   5.187   4.663   7.383 -0.3329 -0.4262  0.9835
   45CHL1   C16 3277   5.158   4.774   7.563  0.1577 -0.3705 -0.7054
   45CHL1  H16A 3278   5.063   4.772   7.621 -0.2493  1.6964 -1.2325
   45CHL1  H16B 3279   5.244   4.720   7.609  0.3280  1.0542  0.7245
   45CHL1   C17 3280   5.190   4.934   7.570 -0.2821  1.0646 -0.0105
   45CHL1   H17 3281   5.301   4.940   7.566 -0.2237 -0.3563 -1.6773
   45CHL1   C13 3282   5.125   4.987   7.439  0.7328  1.0905 -0.9283
   45CHL1   C18 3283   4.974   4.998   7.461 -0.4753  0.3306  0.2526
   45CHL1  H18A 3284   4.932   5.022   7.361  0.5662  0.2094 -0.2316
   45CHL1  H18B 3285   4.913   4.916   7.505 -0.2237  0.0561  0.1021
   45CHL1  H18C 3286   4.959   5.086   7.526  1.8749  0.5931  0.5296
   45CHL1   C12 3287   5.189   5.110   7.380 -0.5772 -0.4268  0.5303
   45CHL1  H12A 3288   5.161   5.196   7.444 -1.2761 -0.3968  0.1974
   45CHL1  H12B 3289   5.299   5.100   7.373 -0.4381  0.1984  1.5921
   45CHL1   C11 3290   5.141   5.143   7.235  0.1714 -0.6006  0.0510
   45CHL1  H11A 3291   5.033   5.169   7.242  0.1977 -0.9409  2.6402
   45CHL1  H11B 3292   5.196   5.233   7.201 -2.7732  1.3434  0.0910
   45CHL1    C9 3293   5.155   5.018   7.133 -0.0354 -0.2440  0.4678
   45CHL1    H9 3294   5.266   5.010   7.139  0.0678  1.2972  1.2243
   45CHL1   C10 3295   5.111   5.044   6.986  0.8999  0.6480  0.7343
   45CHL1   C19 3296   4.967   5.097   6.991 -0.0087 -0.2366  0.6773
   45CHL1  H19A 3297   4.896   5.032   7.045 -1.9451 -0.4795 -1.9760
   45CHL1  H19B 3298   4.966   5.199   7.035 -2.4870  1.2760 -2.4188
   45CHL1  H19C 3299   4.935   5.112   6.886  1.0117 -1.7645  0.1159
   45CHL1    C1 3300   5.205   5.140   6.907  0.5086 -0.4290 -0.5204
   45CHL1   H1A 3301   5.202   5.236   6.962  1.6979 -0.6659 -0.0106
   45CHL1   H1B 3302   5.311   5.110   6.921  0.2547 -1.3695 -0.5640
   45CHL1    C2 3303   5.184   5.157   6.760 -0.2008  0.5598  0.1115
   45CHL1   H2A 3304   5.256   5.232   6.720 -1.5086  1.6090 -0.3670
   45CHL1   H2B 3305   5.087   5.205   6.738 -0.4971 -0.7870 -1.7842
   45CHL1   C20 3306   5.146   4.991   7.707  0.1871  0.0023 -0.4236
   45CHL1   H20 3307   5.035   4.996   7.711  0.1526 -0.3402 -0.7998
   45CHL1   C21 3308   5.183   5.139   7.714 -0.2853  1.1121 -0.0005
   45CHL1  H21A 3309   5.166   5.180   7.816  0.8352  2.2318 -0.2429
   45CHL1  H21B 3310   5.120   5.190   7.639  1.3774 -0.1255 -2.3763
   45CHL1  H21C 3311   5.287   5.149   7.676  0.4536 -1.0970  1.2639
   45CHL1   C22 3312   5.185   4.915   7.836 -0.3253 -0.2238  0.3584
   45CHL1  H22A 3313   5.130   4.956   7.923  0.2700 -1.0016  1.1183
   45CHL1  H22B 3314   5.155   4.808   7.839 -1.2350  0.0367  3.1946
   45CHL1   C23 3315   5.344   4.919   7.852 -0.2376 -0.2198 -0.2439
   45CHL1  H23A 3316   5.387   4.871   7.762  0.7083 -0.5986  0.3900
   45CHL1  H23B 3317   5.370   5.026   7.865 -0.2762 -0.1364 -0.8514
   45CHL1   C24 3318   5.385   4.848   7.983  0.6734 -0.2152 -0.3036
   45CHL1  H24A 3319   5.379   4.737   7.986  1.6582 -0.2586  1.2562
   45CHL1  H24B 3320   5.494   4.865   7.996  0.5540 -0.6057  1.5664
   45CHL1   C25 3321   5.323   4.909   8.108  0.5253  0.4885 -0.2696
   45CHL1   H25 3322   5.296   5.015   8.091  1.5519  0.7755 -0.2276
   45CHL1   C26 3323   5.209   4.825   8.159  0.4986  0.3455 -0.6569
   45CHL1  H26A 3324   5.239   4.723   8.191 -0.0841  0.5368  0.5646
   45CHL1  H26B 3325   5.157   4.876   8.244  0.5331  2.0421 -1.6050
   45CHL1  H26C 3326   5.129   4.815   8.083  0.2611 -0.8480 -0.2648
   45CHL1   C27 3327   5.413   4.911   8.229  0.2662  0.5114 -0.3051
   45CHL1  H27A 3328   5.454   4.813   8.260  2.5413  1.1649 -1.0132
   45CHL1  H27B 3329   5.496   4.981   8.204 -0.2043  1.4245  0.6243
   45CHL1  H27C 3330   5.358   4.939   8.321 -0.0301 -0.9059 -0.0418
   46CHL1    C3 3331   4.714   5.618   6.930  0.3317 -0.5100 -0.5409
   46CHL1    H3 3332   4.809   5.676   6.937 -0.0417 -0.1145  2.8853
   46CHL1    O3 3333   4.662   5.596   6.808 -0.3706 -0.2308 -0.6612
   46CHL1   H3' 3334   4.688   5.505   6.788  0.1090 -0.4157  0.6949
   46CHL1    C4 3335   4.723   5.485   7.014 -0.1962 -0.0790 -0.0050
   46CHL1   H4A 3336   4.628   5.429   6.995 -0.4829  0.5089 -0.3560
   46CHL1   H4B 3337   4.810   5.436   6.964  2.4054  1.8322  2.3674
   46CHL1    C5 3338   4.752   5.504   7.166 -0.4902  0.1444  0.9782
   46CHL1    C6 3339   4.854   5.446   7.225  0.5863 -0.0978  0.0995
   46CHL1    H6 3340   4.923   5.387   7.164  2.7503  0.3108  2.0233
   46CHL1    C7 3341   4.885   5.454   7.372 -0.5061  0.5661 -0.2164
   46CHL1   H7A 3342   4.914   5.352   7.406 -0.9744  0.0384 -1.3559
   46CHL1   H7B 3343   4.972   5.517   7.402 -0.4651 -0.5499  2.2679
   46CHL1    C8 3344   4.777   5.513   7.453  0.5872  0.0918 -0.0704
   46CHL1    H8 3345   4.691   5.445   7.468 -2.1204  3.1665 -0.6639
   46CHL1   C14 3346   4.820   5.547   7.595 -0.5146  0.6391 -0.4925
   46CHL1   H14 3347   4.908   5.611   7.573  1.9415 -2.9767 -2.0570
   46CHL1   C15 3348   4.864   5.433   7.691 -0.0840  0.3212 -1.3305
   46CHL1  H15A 3349   4.784   5.357   7.707 -1.5523  1.9814 -0.3920
   46CHL1  H15B 3350   4.956   5.379   7.660 -0.1007 -0.4580 -0.0821
   46CHL1   C16 3351   4.889   5.506   7.821  0.3081 -0.1012  0.0696
   46CHL1  H16A 3352   4.882   5.443   7.912 -0.2441 -0.9084 -0.5167
   46CHL1  H16B 3353   4.995   5.539   7.819  0.9518 -2.0618 -0.3229
   46CHL1   C17 3354   4.795   5.631   7.815  0.2089 -0.0731 -0.6063
   46CHL1   H17 3355   4.862   5.718   7.796  0.8005 -0.5821 -0.8988
   46CHL1   C13 3356   4.716   5.625   7.679 -0.0449 -0.2812 -0.4887
   46CHL1   C18 3357   4.594   5.532   7.696 -0.0023  0.1082 -0.2377
   46CHL1  H18A 3358   4.557   5.498   7.597  0.1473 -0.2861 -0.1606
   46CHL1  H18B 3359   4.618   5.444   7.759  1.2663  0.0845 -0.7283
   46CHL1  H18C 3360   4.518   5.587   7.756  0.8652 -1.0794  2.0519
   46CHL1   C12 3361   4.679   5.759   7.608 -0.1036  0.1171 -0.2918
   46CHL1  H12A 3362   4.603   5.825   7.656 -0.6563 -0.5833 -0.1883
   46CHL1  H12B 3363   4.768   5.824   7.594 -1.2438  1.2165 -3.3638
   46CHL1   C11 3364   4.624   5.726   7.466  0.0927 -0.2587  0.1148
   46CHL1  H11A 3365   4.525   5.675   7.478 -0.3268  0.3735 -0.5432
   46CHL1  H11B 3366   4.601   5.826   7.423 -1.8056  1.0291  3.7537
   46CHL1    C9 3367   4.717   5.638   7.379  0.0642 -0.4854 -0.0554
   46CHL1    H9 3368   4.803   5.707   7.362  1.5821 -1.6578  2.2944
   46CHL1   C10 3369   4.656   5.605   7.240  0.3528 -0.0728 -0.2373
   46CHL1   C19 3370   4.523   5.536   7.256  0.2676  0.7146  0.1422
   46CHL1  H19A 3371   4.481   5.501   7.160  1.1344 -0.3601  0.1272
   46CHL1  H19B 3372   4.537   5.441   7.313 -0.0960 -0.6246 -1.9058
   46CHL1  H19C 3373   4.438   5.592   7.300 -2.1834 -2.2046 -0.4754
   46CHL1    C1 3374   4.633   5.736   7.156  0.3518 -0.1923  0.0362
   46CHL1   H1A 3375   4.549   5.789   7.205 -0.3557  0.7028 -2.0544
   46CHL1   H1B 3376   4.728   5.794   7.153  1.9765 -2.7282 -0.4548
   46CHL1    C2 3377   4.603   5.702   7.006  0.7869  0.1902  1.4015
   46CHL1   H2A 3378   4.586   5.794   6.945  0.6862 -0.5805  0.2257
   46CHL1   H2B 3379   4.507   5.646   7.009 -0.0096  1.3906  0.1395
   46CHL1   C20 3380   4.709   5.656   7.942  0.1715 -0.2133  0.9969
   46CHL1   H20 3381   4.637   5.571   7.943  2.1558 -2.0734 -1.1670
   46CHL1   C21 3382   4.629   5.786   7.934  0.1619 -0.6698 -0.7781
   46CHL1  H21A 3383   4.536   5.791   7.873 -1.0180  1.5287  1.0863
   46CHL1  H21B 3384   4.697   5.866   7.899  0.8912 -0.7640  0.3668
   46CHL1  H21C 3385   4.592   5.811   8.035  2.9941 -0.4369  0.3022
   46CHL1   C22 3386   4.792   5.653   8.074  0.2613  0.1732 -0.3212
   46CHL1  H22A 3387   4.723   5.684   8.155  1.1004 -0.1876  0.5428
   46CHL1  H22B 3388   4.819   5.547   8.093 -0.0926  0.3802  1.4240
   46CHL1   C23 3389   4.923   5.741   8.068  0.6356  0.1224  0.7042
   46CHL1  H23A 3390   4.985   5.694   7.989 -3.0675 -3.8541 -0.2063
   46CHL1  H23B 3391   4.903   5.842   8.025 -2.4749 -1.3766 -1.7388
   46CHL1   C24 3392   4.994   5.738   8.201 -0.7262 -0.8897  0.0242
   46CHL1  H24A 3393   4.927   5.765   8.286  0.2758 -1.1584  0.9175
   46CHL1  H24B 3394   5.008   5.632   8.230 -0.2663 -0.3531  1.9120
   46CHL1   C25 3395   5.124   5.826   8.207  0.4807  0.2552 -0.1881
   46CHL1   H25 3396   5.188   5.815   8.117 -0.7424  0.8215 -1.1657
   46CHL1   C26 3397   5.081   5.973   8.197  0.8104 -0.5277 -0.0584
   46CHL1  H26A 3398   4.999   5.978   8.272  1.4406 -0.6820  0.6427
   46CHL1  H26B 3399   5.164   6.033   8.239 -0.0692  0.6135  0.0960
   46CHL1  H26C 3400   5.053   6.000   8.093  3.3527 -0.4499 -0.7768
   46CHL1   C27 3401   5.195   5.801   8.341 -0.4142  0.1562  0.1362
   46CHL1  H27A 3402   5.124   5.797   8.426  1.0634 -0.9391  1.3515
   46CHL1  H27B 3403   5.264   5.715   8.344  3.1767  2.7885  3.5452
   46CHL1  H27C 3404   5.269   5.881   8.363  0.2572 -0.7998  1.4195
   47CHL1    C3 3405   3.920   5.381   6.588  1.3347 -0.3019 -0.5251
   47CHL1    H3 3406   4.025   5.345   6.593  0.9556 -1.3267  0.7392
   47CHL1    O3 3407   3.870   5.388   6.453  0.0297 -0.1290 -0.4327
   47CHL1   H3' 3408   3.937   5.334   6.410  1.1098 -0.6971  1.7930
   47CHL1    C4 3409   3.838   5.274   6.671 -0.1405  0.1948 -0.0046
   47CHL1   H4A 3410   3.731   5.302   6.673  0.6116  3.3646  0.1138
   47CHL1   H4B 3411   3.855   5.185   6.606 -1.1556  1.0575 -1.4966
   47CHL1    C5 3412   3.882   5.263   6.813 -0.0439  0.2761  1.2994
   47CHL1    C6 3413   3.905   5.144   6.869 -0.3986  0.2080 -0.4445
   47CHL1    H6 3414   3.886   5.052   6.812  0.3342 -0.7635  0.8359
   47CHL1    C7 3415   3.949   5.134   7.016  0.2236 -0.4309 -0.7034
   47CHL1   H7A 3416   3.880   5.060   7.064  1.7822 -1.8698 -0.6037
   47CHL1   H7B 3417   4.047   5.081   7.020  0.1255 -0.5578  0.3678
   47CHL1    C8 3418   3.949   5.267   7.092 -0.6970 -0.6979 -0.3453
   47CHL1    H8 3419   3.849   5.279   7.139 -0.2602 -1.1005  0.7037
   47CHL1   C14 3420   4.042   5.254   7.215  0.0396 -0.0795  0.0507
   47CHL1   H14 3421   4.146   5.235   7.181  0.5233 -0.6016  1.7056
   47CHL1   C15 3422   4.015   5.144   7.317  0.5161  0.3667 -0.8001
   47CHL1  H15A 3423   3.909   5.148   7.350  0.4473 -0.2725 -0.9269
   47CHL1  H15B 3424   4.037   5.044   7.274  2.8344  0.8498 -0.8312
   47CHL1   C16 3425   4.102   5.184   7.434 -0.3502  0.3019 -0.0183
   47CHL1  H16A 3426   4.038   5.183   7.525 -0.5258  1.4332 -0.1187
   47CHL1  H16B 3427   4.191   5.118   7.440 -2.3408 -2.5242  0.7177
   47CHL1   C17 3428   4.138   5.332   7.410  0.2601 -0.4335 -0.1479
   47CHL1   H17 3429   4.240   5.344   7.368  0.9270  0.0886  1.5351
   47CHL1   C13 3430   4.048   5.384   7.303 -0.5002 -0.9307 -0.4369
   47CHL1   C18 3431   3.906   5.417   7.372  0.2155 -1.0836  1.2405
   47CHL1  H18A 3432   3.917   5.512   7.428 -0.1801 -0.7568  0.7702
   47CHL1  H18B 3433   3.836   5.430   7.287 -0.1314 -2.1850  1.3447
   47CHL1  H18C 3434   3.872   5.337   7.441 -1.2952 -1.0563  0.5627
   47CHL1   C12 3435   4.095   5.502   7.220 -0.1154 -0.2483  0.9699
   47CHL1  H12A 3436   4.099   5.601   7.271  0.4042  0.5559 -0.5596
   47CHL1  H12B 3437   4.199   5.484   7.185 -0.7212  1.2343 -1.9586
   47CHL1   C11 3438   4.010   5.519   7.092  0.2816 -0.3518 -0.1502
   47CHL1  H11A 3439   3.906   5.538   7.123  0.2693 -2.2146  1.0901
   47CHL1  H11B 3440   4.040   5.612   7.039  1.9225 -0.8244 -0.1240
   47CHL1    C9 3441   4.004   5.383   7.009  0.3021 -0.4671 -0.1418
   47CHL1    H9 3442   4.111   5.366   6.982  0.8955  0.5228  1.4659
   47CHL1   C10 3443   3.910   5.399   6.879  0.3522 -0.0959  0.1553
   47CHL1   C19 3444   3.777   5.453   6.925 -0.7905 -0.0377 -0.0343
   47CHL1  H19A 3445   3.786   5.554   6.968  1.2275 -0.3789  0.4203
   47CHL1  H19B 3446   3.706   5.454   6.839 -2.5629 -1.8073  1.3108
   47CHL1  H19C 3447   3.729   5.382   6.996  0.1932 -0.0315  0.6479
   47CHL1    C1 3448   3.976   5.508   6.784  0.2401  0.4148  0.0580
   47CHL1   H1A 3449   3.964   5.605   6.837 -0.8710  0.5456 -0.3970
   47CHL1   H1B 3450   4.086   5.496   6.780  0.1434 -0.5980  0.0544
   47CHL1    C2 3451   3.915   5.519   6.647 -0.0638 -0.0618 -0.2611
   47CHL1   H2A 3452   3.980   5.591   6.593  1.0612 -0.8077  0.0493
   47CHL1   H2B 3453   3.810   5.551   6.665 -0.0232 -0.1055  0.0751
   47CHL1   C20 3454   4.147   5.409   7.550  0.3786  0.2232 -0.4144
   47CHL1   H20 3455   4.046   5.419   7.595  0.5707  3.7105 -0.4534
   47CHL1   C21 3456   4.202   5.553   7.535  0.5164  0.2654  0.2660
   47CHL1  H21A 3457   4.192   5.595   7.637 -0.1075 -0.8408  0.6719
   47CHL1  H21B 3458   4.135   5.615   7.471  0.6379  0.2784  0.1496
   47CHL1  H21C 3459   4.307   5.546   7.498 -0.3961  1.3597 -2.8629
   47CHL1   C22 3460   4.241   5.339   7.642 -0.2141 -0.9077 -0.2061
   47CHL1  H22A 3461   4.216   5.231   7.640  0.7862 -1.1425 -2.3650
   47CHL1  H22B 3462   4.340   5.339   7.592 -0.7168 -2.4342 -1.2642
   47CHL1   C23 3463   4.251   5.400   7.785 -0.1377  0.0320  0.0452
   47CHL1  H23A 3464   4.312   5.492   7.786 -0.5242  0.2981 -0.3551
   47CHL1  H23B 3465   4.152   5.427   7.828 -0.0352  0.9110 -0.2595
   47CHL1   C24 3466   4.321   5.301   7.879 -0.2013 -0.3300 -0.2924
   47CHL1  H24A 3467   4.279   5.201   7.853  1.8840 -1.1874 -0.6114
   47CHL1  H24B 3468   4.431   5.299   7.861 -0.2314  1.7655 -0.9459
   47CHL1   C25 3469   4.289   5.323   8.032  0.0971  0.2081 -0.3927
   47CHL1   H25 3470   4.179   5.331   8.044  0.0671 -1.3329  0.5579
   47CHL1   C26 3471   4.343   5.213   8.123  0.0173  0.5300 -0.2804
   47CHL1  H26A 3472   4.451   5.222   8.146  0.1130  1.6460 -1.0727
   47CHL1  H26B 3473   4.304   5.226   8.226 -0.1469 -1.7963 -0.0104
   47CHL1  H26C 3474   4.316   5.112   8.087 -0.8562  0.8439 -0.5354
   47CHL1   C27 3475   4.356   5.455   8.078 -0.8642  0.4319 -0.5650
   47CHL1  H27A 3476   4.467   5.443   8.070 -0.5677  1.9804  0.6474
   47CHL1  H27B 3477   4.316   5.540   8.018 -2.3644 -0.3367 -0.6802
   47CHL1  H27C 3478   4.327   5.465   8.185 -2.6345 -0.2642 -0.9549
   48CHL1    C3 3479   0.965   2.273   6.360  0.3064  0.0712  0.4233
   48CHL1    H3 3480   0.908   2.368   6.371  0.1287 -0.1459  1.5344
   48CHL1    O3 3481   0.975   2.240   6.225 -0.2402 -0.4117  0.5033
   48CHL1   H3' 3482   1.029   2.311   6.191 -0.0568 -0.0915  1.4321
   48CHL1    C4 3483   1.111   2.279   6.413 -0.3787  0.8569 -0.4280
   48CHL1   H4A 3484   1.166   2.190   6.375 -1.0469  1.5058 -3.1279
   48CHL1   H4B 3485   1.173   2.360   6.367  0.3834  1.2236  1.1590
   48CHL1    C5 3486   1.113   2.284   6.566 -0.6273 -0.1790 -0.3058
   48CHL1    C6 3487   1.184   2.381   6.628 -0.0624  0.0950 -0.3895
   48CHL1    H6 3488   1.242   2.452   6.567 -0.8150 -1.0821 -2.6130
   48CHL1    C7 3489   1.191   2.385   6.778  0.2596 -0.2848 -0.2287
   48CHL1   H7A 3490   1.296   2.397   6.811  0.8127 -1.9298 -1.2531
   48CHL1   H7B 3491   1.131   2.468   6.821  0.5758 -0.1138 -0.1131
   48CHL1    C8 3492   1.144   2.256   6.856 -0.2851 -0.3029 -0.4882
   48CHL1    H8 3493   1.225   2.181   6.846 -0.4863 -0.4345 -1.1839
   48CHL1   C14 3494   1.116   2.290   7.002 -0.5722 -0.1937  0.2006
   48CHL1   H14 3495   1.032   2.363   6.996 -0.4967 -0.1810 -1.0525
   48CHL1   C15 3496   1.231   2.351   7.084  0.9705  0.4754  0.5957
   48CHL1  H15A 3497   1.323   2.293   7.062  1.4794  1.5582 -0.2066
   48CHL1  H15B 3498   1.272   2.450   7.057  0.5099 -0.0290 -2.1843
   48CHL1   C16 3499   1.186   2.341   7.224 -0.3282  0.0562 -0.4312
   48CHL1  H16A 3500   1.274   2.300   7.278 -0.4403 -0.4348 -0.6120
   48CHL1  H16B 3501   1.158   2.440   7.266 -0.2920 -0.8784  1.9426
   48CHL1   C17 3502   1.056   2.258   7.228  0.5490  0.2329  0.4320
   48CHL1   H17 3503   0.970   2.323   7.199  1.9389  1.1826 -1.9404
   48CHL1   C13 3504   1.061   2.182   7.090 -0.5999 -1.1166  0.0619
   48CHL1   C18 3505   1.160   2.064   7.108 -0.4854  0.1430 -0.2817
   48CHL1  H18A 3506   1.189   2.028   7.007 -1.6443  0.7420 -0.8487
   48CHL1  H18B 3507   1.241   2.089   7.179 -2.4056 -0.7478  2.3712
   48CHL1  H18C 3508   1.112   1.976   7.156 -0.0236  1.0403  1.9393
   48CHL1   C12 3509   0.937   2.123   7.020  0.1562 -0.1375  0.0154
   48CHL1  H12A 3510   0.901   2.026   7.060 -0.8759 -0.2229 -1.0548
   48CHL1  H12B 3511   0.853   2.195   7.028 -1.0060 -1.5608  0.8637
   48CHL1   C11 3512   0.970   2.087   6.872  0.3762 -0.1809 -0.4082
   48CHL1  H11A 3513   1.038   2.000   6.866 -1.3997 -1.6110 -0.6476
   48CHL1  H11B 3514   0.879   2.055   6.817  0.1709 -0.0320 -0.1592
   48CHL1    C9 3515   1.026   2.206   6.792 -0.2224  0.4210 -1.4123
   48CHL1    H9 3516   0.945   2.282   6.801  0.5363  1.1208 -0.2721
   48CHL1   C10 3517   1.031   2.176   6.640  0.4953 -0.8874  1.1151
   48CHL1   C19 3518   1.106   2.043   6.617  0.4624 -0.5005 -0.0063
   48CHL1  H19A 3519   1.054   1.951   6.650 -2.2082  0.1978 -1.8932
   48CHL1  H19B 3520   1.129   2.021   6.511 -3.0178  0.8916 -1.1861
   48CHL1  H19C 3521   1.208   2.045   6.661  1.8448 -3.5665 -2.6394
   48CHL1    C1 3522   0.890   2.179   6.583 -0.4879  1.1849  1.1257
   48CHL1   H1A 3523   0.851   2.090   6.637  0.0353  2.1723  3.2266
   48CHL1   H1B 3524   0.825   2.265   6.609 -1.3810  1.0833 -0.5866
   48CHL1    C2 3525   0.886   2.163   6.428 -0.7415  0.3599 -0.2922
   48CHL1   H2A 3526   0.780   2.167   6.397 -1.0959  0.6849  0.9230
   48CHL1   H2B 3527   0.928   2.061   6.412 -0.6769 -0.4047  3.7257
   48CHL1   C20 3528   1.033   2.187   7.362  0.0602 -0.0402 -1.0109
   48CHL1   H20 3529   1.104   2.102   7.370  1.1384  0.8488 -0.8220
   48CHL1   C21 3530   0.890   2.126   7.374 -0.2730  0.2151  1.0444
   48CHL1  H21A 3531   0.843   2.107   7.275 -1.2300 -0.8833  1.6975
   48CHL1  H21B 3532   0.819   2.197   7.421 -0.9162 -0.1220  0.5897
   48CHL1  H21C 3533   0.885   2.034   7.436  0.3366 -0.2483  0.4259
   48CHL1   C22 3534   1.063   2.281   7.484 -0.5661 -0.5550  0.2589
   48CHL1  H22A 3535   1.171   2.309   7.491 -0.8399  0.1190  2.8590
   48CHL1  H22B 3536   0.991   2.364   7.473 -0.8220 -0.8695 -0.4839
   48CHL1   C23 3537   1.026   2.227   7.622  0.2549  0.6596  0.4420
   48CHL1  H23A 3538   0.917   2.208   7.619  0.4365 -0.6622  1.1521
   48CHL1  H23B 3539   1.088   2.135   7.633  0.3543  0.5722 -0.7278
   48CHL1   C24 3540   1.058   2.327   7.736  0.5559  0.6962  0.3413
   48CHL1  H24A 3541   1.165   2.357   7.731  1.1008 -1.1251  0.1572
   48CHL1  H24B 3542   0.995   2.415   7.713 -1.1927 -1.4606 -4.2657
   48CHL1   C25 3543   1.020   2.262   7.871  0.2801  0.5060 -0.9506
   48CHL1   H25 3544   1.101   2.191   7.898 -1.1658 -0.8794 -0.1370
   48CHL1   C26 3545   1.023   2.376   7.980 -0.1961 -0.0310 -0.1146
   48CHL1  H26A 3546   0.918   2.412   7.981  0.2425  1.3421  2.3199
   48CHL1  H26B 3547   1.061   2.333   8.075  0.0180  0.2167 -0.0878
   48CHL1  H26C 3548   1.084   2.463   7.947 -0.5291  0.6607  1.0288
   48CHL1   C27 3549   0.891   2.186   7.872  0.0952 -0.8970  0.1124
   48CHL1  H27A 3550   0.810   2.253   7.838  0.6635  0.3958  1.1985
   48CHL1  H27B 3551   0.893   2.105   7.795  0.6500  0.7643 -1.7090
   48CHL1  H27C 3552   0.867   2.151   7.974  0.1929  2.6058  1.4700
   49CHL1    C3 3553   5.458   2.918   6.715  0.0654  0.0449  0.8583
   49CHL1    H3 3554   5.568   2.923   6.730  0.4312 -0.4082 -1.3048
   49CHL1    O3 3555   5.423   2.909   6.577  0.0516  0.1874  0.3981
   49CHL1   H3' 3556   5.330   2.885   6.569  0.5645 -1.9539  0.0749
   49CHL1    C4 3557   5.429   2.784   6.773  0.4996  1.1450  0.0594
   49CHL1   H4A 3558   5.326   2.749   6.749  0.7530  0.6664 -0.3387
   49CHL1   H4B 3559   5.500   2.715   6.722 -1.2369  0.2649 -1.2864
   49CHL1    C5 3560   5.447   2.783   6.918  0.2493  0.9718  0.1710
   49CHL1    C6 3561   5.538   2.698   6.976 -0.8720 -0.5230  0.4458
   49CHL1    H6 3562   5.598   2.632   6.912 -0.1205  0.5739 -0.0317
   49CHL1    C7 3563   5.560   2.687   7.122  0.1038  0.2295 -0.7965
   49CHL1   H7A 3564   5.561   2.578   7.146 -0.0245 -0.0226 -1.9011
   49CHL1   H7B 3565   5.659   2.724   7.157 -0.5683 -0.4095  2.0988
   49CHL1    C8 3566   5.444   2.752   7.198  0.7172 -0.0301 -1.3233
   49CHL1    H8 3567   5.356   2.689   7.174 -0.7862  0.7748  1.6074
   49CHL1   C14 3568   5.481   2.749   7.349  0.0400  0.3400 -0.8062
   49CHL1   H14 3569   5.566   2.817   7.371 -0.9546  1.5420 -0.5696
   49CHL1   C15 3570   5.514   2.610   7.410  0.9505  0.8937 -0.1694
   49CHL1  H15A 3571   5.438   2.539   7.372  1.2530  2.7032 -4.9028
   49CHL1  H15B 3572   5.616   2.576   7.384  0.2361  0.0603 -2.1483
   49CHL1   C16 3573   5.497   2.633   7.559  0.3916  0.1552 -0.2662
   49CHL1  H16A 3574   5.437   2.548   7.599 -0.4804  0.2832 -1.2722
   49CHL1  H16B 3575   5.598   2.627   7.606 -0.1802  0.8333  1.0986
   49CHL1   C17 3576   5.423   2.761   7.573  0.8505 -0.6762  0.2811
   49CHL1   H17 3577   5.496   2.842   7.594 -0.6618  0.0886  3.2156
   49CHL1   C13 3578   5.366   2.798   7.432 -0.2103 -0.5089  0.1373
   49CHL1   C18 3579   5.236   2.720   7.405  0.2160  0.2181 -0.1735
   49CHL1  H18A 3580   5.195   2.716   7.302  1.4839 -0.4372 -0.6659
   49CHL1  H18B 3581   5.252   2.615   7.435  0.2580  0.1559 -0.4147
   49CHL1  H18C 3582   5.152   2.765   7.461  0.2169 -0.7887  0.6484
   49CHL1   C12 3583   5.345   2.939   7.397 -0.0341  0.5940 -0.6070
   49CHL1  H12A 3584   5.271   2.993   7.460  0.2637 -2.1836  2.3979
   49CHL1  H12B 3585   5.439   2.995   7.417 -1.2459  1.5202  3.6551
   49CHL1   C11 3586   5.323   2.962   7.243  0.2326  0.2239 -0.3303
   49CHL1  H11A 3587   5.222   2.915   7.232  1.7827 -3.4980 -0.2394
   49CHL1  H11B 3588   5.308   3.071   7.230  1.4481  0.6001  1.1760
   49CHL1    C9 3589   5.418   2.891   7.148  0.0453 -0.1900 -0.2312
   49CHL1    H9 3590   5.514   2.946   7.156  1.1131 -1.9445 -0.4135
   49CHL1   C10 3591   5.373   2.884   7.001  0.5514  0.6954  0.0757
   49CHL1   C19 3592   5.229   2.837   6.998  0.2802 -0.1242  0.4739
   49CHL1  H19A 3593   5.209   2.742   7.051  0.6512 -0.7392 -0.4642
   49CHL1  H19B 3594   5.167   2.915   7.048  1.4050  0.7498  0.5404
   49CHL1  H19C 3595   5.182   2.821   6.898 -0.1003 -0.5134  0.7116
   49CHL1    C1 3596   5.403   3.024   6.936 -0.8110  0.4053  0.0033
   49CHL1   H1A 3597   5.338   3.095   6.992  1.1607  1.2220  1.3934
   49CHL1   H1B 3598   5.511   3.049   6.949 -0.5998 -1.2141  1.7602
   49CHL1    C2 3599   5.386   3.032   6.786  0.3478  1.0118 -0.5699
   49CHL1   H2A 3600   5.416   3.130   6.742 -0.3872  0.3973 -2.5660
   49CHL1   H2B 3601   5.276   3.018   6.779  0.0021  1.1980  2.9814
   49CHL1   C20 3602   5.327   2.755   7.691  0.3474 -0.7463 -0.1755
   49CHL1   H20 3603   5.242   2.685   7.675  0.7837 -1.0872 -1.0841
   49CHL1   C21 3604   5.269   2.895   7.720 -0.7032  0.2407 -0.1358
   49CHL1  H21A 3605   5.346   2.975   7.721 -1.7088  1.2630  1.2516
   49CHL1  H21B 3606   5.208   2.909   7.812 -0.5714 -0.2200  0.0266
   49CHL1  H21C 3607   5.193   2.918   7.642  0.3196 -1.7945 -1.8437
   49CHL1   C22 3608   5.414   2.721   7.824 -0.1674  0.0308 -0.1155
   49CHL1  H22A 3609   5.510   2.671   7.799  0.4378  0.7759  0.6679
   49CHL1  H22B 3610   5.444   2.814   7.877  0.2392 -0.0582 -0.1818
   49CHL1   C23 3611   5.331   2.640   7.926 -0.1425  0.3383  0.0101
   49CHL1  H23A 3612   5.240   2.698   7.949 -1.0018  0.3103 -2.9290
   49CHL1  H23B 3613   5.319   2.542   7.875  0.6830 -0.7297  1.7908
   49CHL1   C24 3614   5.403   2.611   8.061 -0.1641  0.3145  0.4768
   49CHL1  H24A 3615   5.500   2.563   8.039  0.1633  0.8484  0.7298
   49CHL1  H24B 3616   5.425   2.709   8.109  1.9276 -0.0612  0.3683
   49CHL1   C25 3617   5.333   2.512   8.154  0.0191 -0.1716 -0.3093
   49CHL1   H25 3618   5.334   2.407   8.117  0.7626 -0.6775  1.0807
   49CHL1   C26 3619   5.412   2.504   8.285 -0.2473 -0.5723  0.2232
   49CHL1  H26A 3620   5.391   2.603   8.329  1.5728  0.1936 -0.5435
   49CHL1  H26B 3621   5.364   2.433   8.356 -1.8322 -0.1961 -0.4342
   49CHL1  H26C 3622   5.518   2.474   8.278 -0.3847 -0.9607 -0.2782
   49CHL1   C27 3623   5.189   2.565   8.175  0.1305 -0.0938 -0.2835
   49CHL1  H27A 3624   5.131   2.490   8.233  0.0971 -0.0317 -0.2371
   49CHL1  H27B 3625   5.188   2.663   8.227 -0.6988 -0.0508 -0.3562
   49CHL1  H27C 3626   5.133   2.578   8.079  1.2258 -1.0235 -1.0677
   50CHL1    C3 3627   0.045   4.940   6.729 -0.1768 -0.0444 -0.5785
   50CHL1    H3 3628   0.146   4.954   6.774 -1.0159  1.1408  1.0698
   50CHL1    O3 3629   0.041   4.945   6.589  0.3950 -0.2361 -0.4227
   50CHL1   H3' 3630   0.113   4.999   6.558  0.5279  1.0918  2.0203
   50CHL1    C4 3631  -0.022   4.804   6.776  0.3952 -0.7188  0.2505
   50CHL1   H4A 3632  -0.111   4.780   6.716 -0.5977  0.3496  1.2370
   50CHL1   H4B 3633   0.054   4.729   6.747  1.9448  1.0921 -0.6166
   50CHL1    C5 3634  -0.052   4.783   6.922  0.0674 -0.6842 -0.1673
   50CHL1    C6 3635  -0.019   4.674   6.995  0.0672  0.3126 -0.2506
   50CHL1    H6 3636   0.047   4.597   6.952  0.1558  0.6767 -0.7732
   50CHL1    C7 3637  -0.052   4.657   7.145 -0.2126 -0.3760  0.1569
   50CHL1   H7A 3638  -0.107   4.563   7.167 -1.0831  0.0725 -0.0813
   50CHL1   H7B 3639   0.043   4.649   7.203 -0.0354 -1.1870 -0.2214
   50CHL1    C8 3640  -0.132   4.770   7.203 -0.0777 -0.0983 -0.4175
   50CHL1    H8 3641  -0.239   4.760   7.176  0.1059 -0.9151 -0.8505
   50CHL1   C14 3642  -0.114   4.772   7.351 -0.1135 -0.3760 -0.2526
   50CHL1   H14 3643  -0.006   4.783   7.374  0.2310 -0.5859 -1.6817
   50CHL1   C15 3644  -0.162   4.645   7.421  0.1057  0.2366 -0.1873
   50CHL1  H15A 3645  -0.260   4.617   7.379  0.5928 -1.7418 -0.0737
   50CHL1  H15B 3646  -0.095   4.557   7.417 -1.6546 -1.1331 -0.5188
   50CHL1   C16 3647  -0.170   4.685   7.574 -0.0448 -0.7521  0.3475
   50CHL1  H16A 3648  -0.263   4.649   7.623 -1.3506 -0.2344 -1.6342
   50CHL1  H16B 3649  -0.080   4.660   7.634  0.7146  0.8410 -0.0552
   50CHL1   C17 3650  -0.161   4.845   7.570 -0.1077  0.6651 -0.6303
   50CHL1   H17 3651  -0.058   4.878   7.592 -0.8642  2.8121 -0.0938
   50CHL1   C13 3652  -0.187   4.887   7.424  0.2168  0.4866  0.3886
   50CHL1   C18 3653  -0.341   4.882   7.394  0.4889  0.0825 -0.1351
   50CHL1  H18A 3654  -0.385   4.976   7.435  1.4099 -0.5986  2.6609
   50CHL1  H18B 3655  -0.359   4.890   7.285 -2.5007  0.0691  0.2647
   50CHL1  H18C 3656  -0.395   4.792   7.432  2.2891  0.0419  2.6658
   50CHL1   C12 3657  -0.121   5.018   7.365  0.3631  1.0941 -0.4803
   50CHL1  H12A 3658  -0.163   5.100   7.427 -0.2461  2.0889 -2.1400
   50CHL1  H12B 3659  -0.011   5.032   7.372  0.1444  2.5327  0.5083
   50CHL1   C11 3660  -0.155   5.027   7.218  0.2894 -0.3049  0.7326
   50CHL1  H11A 3661  -0.262   5.046   7.196  0.0967 -1.4910  0.5781
   50CHL1  H11B 3662  -0.104   5.118   7.181 -0.0414 -0.8615 -1.2007
   50CHL1    C9 3663  -0.095   4.904   7.142  0.0811  0.7165  0.4477
   50CHL1    H9 3664   0.014   4.913   7.160 -0.0736  0.1954  1.7396
   50CHL1   C10 3665  -0.113   4.906   6.988  0.7359 -0.7009 -0.6767
   50CHL1   C19 3666  -0.263   4.910   6.953  0.1260 -0.1805 -0.2255
   50CHL1  H19A 3667  -0.296   5.016   6.952 -0.1029 -0.2268  0.8155
   50CHL1  H19B 3668  -0.282   4.866   6.852  3.6118  0.7071 -1.3899
   50CHL1  H19C 3669  -0.327   4.859   7.029 -2.0313  2.2489 -0.2856
   50CHL1    C1 3670  -0.040   5.036   6.942  0.1246 -0.1170 -0.1414
   50CHL1   H1A 3671  -0.099   5.124   6.976  1.0868 -0.0263  1.3983
   50CHL1   H1B 3672   0.063   5.043   6.983  0.1827  0.0048 -0.3047
   50CHL1    C2 3673  -0.027   5.063   6.791 -0.7650  0.5012 -0.0847
   50CHL1   H2A 3674   0.041   5.150   6.778 -0.9109  0.9316  1.8050
   50CHL1   H2B 3675  -0.126   5.086   6.748 -1.9703  0.4440  2.4699
   50CHL1   C20 3676  -0.254   4.910   7.676 -0.0917  0.9059  0.7467
   50CHL1   H20 3677  -0.355   4.886   7.636  1.0424 -3.1265 -0.1635
   50CHL1   C21 3678  -0.227   5.056   7.696 -0.6282  0.2862 -0.9239
   50CHL1  H21A 3679  -0.263   5.118   7.611 -2.1540  1.5053  0.5495
   50CHL1  H21B 3680  -0.117   5.070   7.696 -0.4522 -0.8110 -2.7888
   50CHL1  H21C 3681  -0.283   5.102   7.781 -2.6533  1.7797 -2.9457
   50CHL1   C22 3682  -0.257   4.837   7.813 -0.1603  0.0852  0.4562
   50CHL1  H22A 3683  -0.292   4.731   7.805 -1.4148  0.4448  1.0110
   50CHL1  H22B 3684  -0.160   4.832   7.867  0.1620  2.2876  0.1560
   50CHL1   C23 3685  -0.351   4.897   7.920 -0.7495  0.0391 -0.0449
   50CHL1  H23A 3686  -0.290   4.969   7.979  0.0092 -1.5846  1.2187
   50CHL1  H23B 3687  -0.433   4.955   7.872 -0.1160 -0.4717 -1.8456
   50CHL1   C24 3688  -0.409   4.794   8.010  0.3476  0.2136 -0.2354
   50CHL1  H24A 3689  -0.476   4.723   7.957  0.5342  0.3130 -0.6128
   50CHL1  H24B 3690  -0.329   4.730   8.054  1.3362  1.8462  0.4347
   50CHL1   C25 3691  -0.496   4.846   8.128  0.5220 -0.4851  0.2156
   50CHL1   H25 3692  -0.436   4.927   8.175 -0.9653  0.1316  1.1274
   50CHL1   C26 3693  -0.628   4.908   8.079 -0.0504 -0.5853 -0.5125
   50CHL1  H26A 3694  -0.702   4.920   8.161  1.2130  0.0999  0.5673
   50CHL1  H26B 3695  -0.616   5.012   8.042 -0.3745 -0.9005 -1.5431
   50CHL1  H26C 3696  -0.671   4.840   8.002 -1.4556  0.2394 -0.4809
   50CHL1   C27 3697  -0.520   4.732   8.232 -0.6394  0.5582  0.3669
   50CHL1  H27A 3698  -0.587   4.769   8.312 -1.4614  0.5200 -0.2871
   50CHL1  H27B 3699  -0.579   4.649   8.187 -2.6781  0.6573  2.6608
   50CHL1  H27C 3700  -0.419   4.712   8.273 -0.6375  1.0038  0.5879
   51CHL1    C3 3701   6.268   4.139   6.618 -0.5450  0.7367 -0.8322
   51CHL1    H3 3702   6.375   4.122   6.645 -0.9822  2.4413  2.5759
   51CHL1    O3 3703   6.252   4.232   6.508  0.0775  0.5906 -0.1993
   51CHL1   H3' 3704   6.167   4.207   6.471  0.1087 -1.3615  0.8813
   51CHL1    C4 3705   6.204   4.002   6.569 -0.1094 -0.5733 -0.0291
   51CHL1   H4A 3706   6.106   4.015   6.518  0.0920  0.5993 -0.1487
   51CHL1   H4B 3707   6.267   3.971   6.483 -1.1187  1.4505 -1.5809
   51CHL1    C5 3708   6.205   3.914   6.692  0.5234 -0.0402 -0.2469
   51CHL1    C6 3709   6.251   3.791   6.672  0.3132  0.0966 -0.1172
   51CHL1    H6 3710   6.300   3.771   6.575  2.9237 -1.5399  1.4266
   51CHL1    C7 3711   6.252   3.683   6.780 -0.3698  0.4199 -0.4200
   51CHL1   H7A 3712   6.220   3.586   6.736 -1.6763  0.5504  0.1926
   51CHL1   H7B 3713   6.360   3.672   6.803  0.5651  0.2878 -4.1403
   51CHL1    C8 3714   6.158   3.716   6.899 -0.1361  0.7086  0.6734
   51CHL1    H8 3715   6.054   3.705   6.862 -0.8726  0.9877  2.5370
   51CHL1   C14 3716   6.178   3.618   7.019  0.3685 -0.3447  0.2290
   51CHL1   H14 3717   6.286   3.626   7.041  0.5411  0.6606 -0.8929
   51CHL1   C15 3718   6.141   3.471   7.002 -0.4609  0.7809 -0.0802
   51CHL1  H15A 3719   6.051   3.469   6.936  1.1319  1.4191 -2.4331
   51CHL1  H15B 3720   6.213   3.403   6.950 -1.1779 -1.9151  2.1764
   51CHL1   C16 3721   6.109   3.417   7.145  0.7064 -0.0544  0.3351
   51CHL1  H16A 3722   6.010   3.367   7.140  1.2129 -1.0280 -0.5379
   51CHL1  H16B 3723   6.179   3.337   7.178  0.4641  0.4726  2.2062
   51CHL1   C17 3724   6.126   3.540   7.241 -0.7734 -1.0812  1.0082
   51CHL1   H17 3725   6.231   3.546   7.277 -1.1872  0.9166  2.0782
   51CHL1   C13 3726   6.100   3.655   7.143 -0.0726  1.3036 -0.5868
   51CHL1   C18 3727   5.946   3.655   7.104  0.1576 -0.4659 -0.2128
   51CHL1  H18A 3728   5.886   3.694   7.189 -0.6353  0.0563 -0.9938
   51CHL1  H18B 3729   5.926   3.719   7.016  1.7369  0.1029 -0.1920
   51CHL1  H18C 3730   5.906   3.557   7.070  1.9832 -1.4957  0.4561
   51CHL1   C12 3731   6.147   3.799   7.184  0.5834 -0.3908  0.4757
   51CHL1  H12A 3732   6.094   3.824   7.278  0.2961 -1.3480  0.5829
   51CHL1  H12B 3733   6.251   3.786   7.220  0.5579  1.0343  1.1412
   51CHL1   C11 3734   6.134   3.901   7.073  0.2518 -0.2947  0.2238
   51CHL1  H11A 3735   6.027   3.924   7.053  0.6984 -0.3026 -2.4346
   51CHL1  H11B 3736   6.169   3.998   7.115 -0.9945 -1.1100  3.4638
   51CHL1    C9 3737   6.181   3.860   6.932 -0.6092  0.1517  0.4489
   51CHL1    H9 3738   6.290   3.868   6.948 -0.5231 -0.3756  0.1546
   51CHL1   C10 3739   6.140   3.962   6.823 -1.0131  1.7596 -0.6707
   51CHL1   C19 3740   5.986   3.969   6.802 -0.4983 -0.0064  0.0708
   51CHL1  H19A 3741   5.951   3.925   6.706 -1.7428  0.3438  0.3518
   51CHL1  H19B 3742   5.934   3.917   6.885 -1.3813 -2.9605 -2.1328
   51CHL1  H19C 3743   5.959   4.077   6.801  1.4520  0.5841  2.1610
   51CHL1    C1 3744   6.199   4.097   6.862 -0.0488 -0.0325 -0.0650
   51CHL1   H1A 3745   6.138   4.130   6.948 -0.6423 -1.4468  0.0755
   51CHL1   H1B 3746   6.305   4.091   6.895  0.1830  3.3383  0.1775
   51CHL1    C2 3747   6.205   4.201   6.745  0.1568  0.2948  0.1203
   51CHL1   H2A 3748   6.271   4.286   6.774  1.5828 -0.2544 -1.3382
   51CHL1   H2B 3749   6.101   4.232   6.724  0.3938  0.4496 -0.8787
   51CHL1   C20 3750   6.039   3.532   7.369  0.1097 -0.3789 -0.1321
   51CHL1   H20 3751   5.960   3.610   7.358 -0.4557 -1.1456 -2.0003
   51CHL1   C21 3752   6.144   3.562   7.480 -0.3400 -0.2802  0.0921
   51CHL1  H21A 3753   6.098   3.568   7.581 -0.1064  0.4386  0.1592
   51CHL1  H21B 3754   6.183   3.664   7.463  0.0615 -0.0479  2.1316
   51CHL1  H21C 3755   6.232   3.493   7.478 -1.6598 -2.0519  0.4522
   51CHL1   C22 3756   5.965   3.398   7.395 -0.3704  0.3302  0.2137
   51CHL1  H22A 3757   5.900   3.355   7.315 -0.1169 -1.1857  0.7846
   51CHL1  H22B 3758   6.038   3.318   7.418 -0.0207  0.9295  1.2596
   51CHL1   C23 3759   5.877   3.403   7.522 -0.3642  0.3648 -0.3703
   51CHL1  H23A 3760   5.924   3.448   7.612  2.8001  0.3806 -1.9039
   51CHL1  H23B 3761   5.793   3.468   7.492 -0.3772  0.6300  0.2218
   51CHL1   C24 3762   5.814   3.263   7.572 -0.2402  0.4334 -0.8793
   51CHL1  H24A 3763   5.742   3.228   7.494 -1.5624  0.0325  0.4805
   51CHL1  H24B 3764   5.898   3.196   7.598 -1.5416 -0.5099  1.0931
   51CHL1   C25 3765   5.744   3.264   7.703  0.5471 -0.5111 -0.1568
   51CHL1   H25 3766   5.680   3.354   7.697  0.2771 -0.7491 -1.0279
   51CHL1   C26 3767   5.645   3.153   7.729 -0.0385  0.2980 -0.1374
   51CHL1  H26A 3768   5.543   3.169   7.689 -0.6137  1.2789  1.6343
   51CHL1  H26B 3769   5.688   3.052   7.709  0.0906  0.6070 -1.5302
   51CHL1  H26C 3770   5.623   3.152   7.838  0.9100  0.5597  0.0682
   51CHL1   C27 3771   5.843   3.274   7.826 -0.1166  0.5075 -0.4665
   51CHL1  H27A 3772   5.903   3.181   7.826  0.3810  0.6641  3.0646
   51CHL1  H27B 3773   5.918   3.356   7.822  1.3376 -0.5597  2.2088
   51CHL1  H27C 3774   5.789   3.286   7.923 -0.3928  0.3940 -0.6061
   52CHL1    C3 3775   2.882   4.092   6.968 -0.6016  0.2892  0.0128
   52CHL1    H3 3776   2.867   3.983   6.977  2.4932 -0.2751 -0.5877
   52CHL1    O3 3777   2.912   4.118   6.830 -0.1395 -0.1564 -0.1445
   52CHL1   H3' 3778   2.868   4.046   6.784 -0.0919 -0.2876  0.0130
   52CHL1    C4 3779   2.747   4.157   6.999  0.0295 -0.4413 -0.4180
   52CHL1   H4A 3780   2.746   4.259   6.955  0.2363 -0.4642 -0.4776
   52CHL1   H4B 3781   2.685   4.090   6.935 -0.0971 -0.5090 -0.2260
   52CHL1    C5 3782   2.718   4.146   7.156  0.6898  0.4167  0.0637
   52CHL1    C6 3783   2.600   4.095   7.201 -0.1399  0.2950  0.1844
   52CHL1    H6 3784   2.528   4.050   7.132 -0.0238 -1.7038  1.2946
   52CHL1    C7 3785   2.570   4.094   7.348 -0.4702 -0.2263 -0.1626
   52CHL1   H7A 3786   2.461   4.107   7.363 -0.7332  0.3527 -2.2276
   52CHL1   H7B 3787   2.593   3.994   7.392 -1.8632  0.3520  2.0267
   52CHL1    C8 3788   2.657   4.186   7.442 -0.3000  0.3468  0.2705
   52CHL1    H8 3789   2.620   4.290   7.429 -2.3957 -0.3246  0.4136
   52CHL1   C14 3790   2.631   4.145   7.584  0.7569  0.0448  0.3751
   52CHL1   H14 3791   2.649   4.035   7.577  0.3724 -0.0505  0.8240
   52CHL1   C15 3792   2.487   4.156   7.637 -0.3774  0.4265 -0.1337
   52CHL1  H15A 3793   2.435   4.251   7.611 -2.0746 -0.7096 -1.1097
   52CHL1  H15B 3794   2.422   4.073   7.601 -1.9172  0.0891  3.1087
   52CHL1   C16 3795   2.508   4.164   7.787 -0.4037  0.3087  0.5262
   52CHL1  H16A 3796   2.478   4.264   7.827  0.1697  2.2813 -3.4867
   52CHL1  H16B 3797   2.463   4.079   7.842  0.9570 -0.1694  0.9360
   52CHL1   C17 3798   2.664   4.156   7.807 -0.4550  0.2412 -0.3220
   52CHL1   H17 3799   2.675   4.045   7.806  3.6349  0.3456  3.1933
   52CHL1   C13 3800   2.721   4.207   7.683 -0.1253 -0.4698  1.0109
   52CHL1   C18 3801   2.713   4.364   7.682 -0.1824 -0.3256 -0.0443
   52CHL1  H18A 3802   2.736   4.408   7.582  1.7938 -2.3020 -0.5535
   52CHL1  H18B 3803   2.612   4.394   7.715  0.9918  2.0866  1.6671
   52CHL1  H18C 3804   2.791   4.409   7.747  0.4670 -3.4482  1.5095
   52CHL1   C12 3805   2.867   4.177   7.648  0.3474  0.2306 -0.5284
   52CHL1  H12A 3806   2.934   4.227   7.722  3.3807 -1.9727 -1.5540
   52CHL1  H12B 3807   2.882   4.067   7.651  0.8891  0.3117  0.3032
   52CHL1   C11 3808   2.899   4.228   7.501  0.7286 -0.2208 -0.1698
   52CHL1  H11A 3809   2.885   4.338   7.498 -1.5247 -0.4497  0.2165
   52CHL1  H11B 3810   3.005   4.218   7.469  0.7512 -0.0017 -0.1686
   52CHL1    C9 3811   2.803   4.168   7.397  0.0193 -0.4276  1.2154
   52CHL1    H9 3812   2.818   4.058   7.407 -0.4983 -0.4988  1.2200
   52CHL1   C10 3813   2.830   4.202   7.244  0.3118  1.3068 -0.2477
   52CHL1   C19 3814   2.817   4.357   7.231 -0.2605  0.0495 -0.0903
   52CHL1  H19A 3815   2.719   4.401   7.258 -1.0042 -0.5635 -1.6397
   52CHL1  H19B 3816   2.894   4.405   7.295 -1.4619  1.1395  0.5747
   52CHL1  H19C 3817   2.845   4.393   7.129  0.2035 -1.3940 -0.4899
   52CHL1    C1 3818   2.971   4.152   7.202 -0.0516 -0.2162 -0.3488
   52CHL1   H1A 3819   3.047   4.220   7.247 -1.0734  0.5488  0.2755
   52CHL1   H1B 3820   2.992   4.048   7.236 -0.5605 -0.0220  0.5817
   52CHL1    C2 3821   2.992   4.160   7.049  0.2221  0.2694 -0.2168
   52CHL1   H2A 3822   3.080   4.096   7.028  0.9065  0.8171  0.8813
   52CHL1   H2B 3823   3.011   4.264   7.014 -2.0818  0.2733 -1.6498
   52CHL1   C20 3824   2.709   4.212   7.941 -0.4525 -0.0000 -1.0349
   52CHL1   H20 3825   2.747   4.316   7.935  0.6272 -0.3637 -0.8108
   52CHL1   C21 3826   2.835   4.131   7.985 -0.3060  0.4857 -0.6557
   52CHL1  H21A 3827   2.922   4.147   7.917 -0.0421  1.5389 -0.0783
   52CHL1  H21B 3828   2.814   4.022   7.998  2.3569  0.2582  3.4618
   52CHL1  H21C 3829   2.868   4.162   8.086 -0.5489 -1.9000  0.2365
   52CHL1   C22 3830   2.603   4.199   8.054 -0.0682 -0.1620 -0.5867
   52CHL1  H22A 3831   2.505   4.242   8.028  0.2749  0.9419 -0.1382
   52CHL1  H22B 3832   2.597   4.089   8.070  0.2599 -0.1435 -0.3037
   52CHL1   C23 3833   2.649   4.271   8.182  0.4320  0.3791 -0.0628
   52CHL1  H23A 3834   2.713   4.205   8.244 -1.2234 -0.8911  0.3683
   52CHL1  H23B 3835   2.698   4.363   8.144 -1.8565  0.9316 -1.9702
   52CHL1   C24 3836   2.524   4.326   8.263  0.3977 -0.5638  0.0829
   52CHL1  H24A 3837   2.472   4.393   8.192  1.2496 -0.4827 -0.4800
   52CHL1  H24B 3838   2.460   4.239   8.290  1.9609 -1.2436  1.8247
   52CHL1   C25 3839   2.563   4.405   8.388  0.6192 -0.6372  0.0024
   52CHL1   H25 3840   2.611   4.503   8.371 -0.8858  0.0472 -0.5069
   52CHL1   C26 3841   2.433   4.461   8.456 -0.3687  0.3066  0.1799
   52CHL1  H26A 3842   2.385   4.547   8.405  1.4176  1.2513  0.0147
   52CHL1  H26B 3843   2.361   4.377   8.463  2.1172 -2.2294 -2.0126
   52CHL1  H26C 3844   2.447   4.477   8.565 -3.2378  0.8136  0.5479
   52CHL1   C27 3845   2.641   4.318   8.483 -0.4381  0.1666  0.3825
   52CHL1  H27A 3846   2.743   4.286   8.450 -1.0818 -1.1134 -0.4273
   52CHL1  H27B 3847   2.647   4.362   8.585 -2.9093  1.6882 -0.0549
   52CHL1  H27C 3848   2.586   4.222   8.486 -0.0562 -0.0557  0.3945
   53CHL1    C3 3849   3.914   0.895   6.900 -0.6790  0.9284  0.1518
   53CHL1    H3 3850   3.898   1.004   6.911  0.2881  1.2309 -1.2011
   53CHL1    O3 3851   3.903   0.861   6.764 -0.6078 -0.0668 -0.2617
   53CHL1   H3' 3852   3.926   0.767   6.764 -0.7199 -0.0962  0.0207
   53CHL1    C4 3853   4.055   0.845   6.939 -0.7836  0.0232 -0.1798
   53CHL1   H4A 3854   4.072   0.741   6.906 -0.4618  0.0798 -0.1912
   53CHL1   H4B 3855   4.126   0.907   6.881 -2.1059  0.7374 -1.1108
   53CHL1    C5 3856   4.086   0.849   7.082 -0.0269  1.1006 -0.4830
   53CHL1    C6 3857   4.190   0.906   7.142  0.8004  0.2767  0.2764
   53CHL1    H6 3858   4.264   0.954   7.076 -0.3242  0.3102 -0.9860
   53CHL1    C7 3859   4.217   0.903   7.290  0.0796 -0.1705  0.7354
   53CHL1   H7A 3860   4.327   0.896   7.304  0.0446 -1.5746  0.3933
   53CHL1   H7B 3861   4.202   1.006   7.330  3.4965  0.7679 -0.0093
   53CHL1    C8 3862   4.141   0.798   7.368 -0.0166 -0.0054  0.1133
   53CHL1    H8 3863   4.185   0.698   7.347  1.7712  0.4984  1.2590
   53CHL1   C14 3864   4.151   0.823   7.516 -0.9326  0.1796  1.0815
   53CHL1   H14 3865   4.123   0.928   7.537 -2.0919  0.0543  0.2956
   53CHL1   C15 3866   4.300   0.819   7.580  0.3760 -0.6199  0.2980
   53CHL1  H15A 3867   4.336   0.715   7.568 -1.0659 -1.5443  3.1030
   53CHL1  H15B 3868   4.374   0.891   7.538 -1.5461  0.8132 -0.7522
   53CHL1   C16 3869   4.274   0.844   7.725  0.0546 -0.4015 -0.1027
   53CHL1  H16A 3870   4.334   0.762   7.770 -0.6736 -1.7884 -1.5727
   53CHL1  H16B 3871   4.300   0.948   7.755 -0.3004 -0.3872  0.1650
   53CHL1   C17 3872   4.120   0.810   7.746  0.2030 -0.4470 -0.3451
   53CHL1   H17 3873   4.066   0.907   7.753  1.4012  0.1016  2.4763
   53CHL1   C13 3874   4.062   0.745   7.617 -0.3694  0.7798  0.2513
   53CHL1   C18 3875   4.098   0.597   7.615  0.4694 -0.0358 -0.0492
   53CHL1  H18A 3876   4.032   0.543   7.685 -1.3073 -1.3400 -2.5585
   53CHL1  H18B 3877   4.084   0.549   7.515 -0.5500  1.3339 -0.5859
   53CHL1  H18C 3878   4.202   0.577   7.649  0.1227 -0.9239  0.5315
   53CHL1   C12 3879   3.919   0.770   7.574 -0.0293 -0.2006 -0.0067
   53CHL1  H12A 3880   3.851   0.707   7.636 -2.0780 -1.7671 -3.5389
   53CHL1  H12B 3881   3.896   0.876   7.599 -0.2938 -0.5421  1.2403
   53CHL1   C11 3882   3.895   0.740   7.424 -0.2424  0.7095 -0.5577
   53CHL1  H11A 3883   3.910   0.632   7.401 -0.4723  0.7912 -1.0997
   53CHL1  H11B 3884   3.795   0.772   7.388 -0.8818 -2.3353 -1.7777
   53CHL1    C9 3885   3.997   0.809   7.324  0.1435  0.8901  0.1335
   53CHL1    H9 3886   3.985   0.919   7.334  0.7522  0.9969 -0.2666
   53CHL1   C10 3887   3.982   0.782   7.174  0.4159 -0.0186 -0.0542
   53CHL1   C19 3888   3.984   0.634   7.143  0.0253  0.0836 -0.0773
   53CHL1  H19A 3889   3.971   0.610   7.036 -0.1651 -0.3317  0.0359
   53CHL1  H19B 3890   4.082   0.590   7.172  0.6286  1.0655 -0.6046
   53CHL1  H19C 3891   3.916   0.566   7.199  0.3509 -0.7446 -0.6745
   53CHL1    C1 3892   3.842   0.841   7.124  0.2566  0.3943 -0.2756
   53CHL1   H1A 3893   3.762   0.789   7.181 -0.2278  0.1090 -1.1930
   53CHL1   H1B 3894   3.844   0.951   7.141  1.4960  0.5795 -1.4424
   53CHL1    C2 3895   3.807   0.827   6.973 -0.7291 -0.2232 -1.0302
   53CHL1   H2A 3896   3.713   0.880   6.948 -0.4427 -0.1577 -2.0057
   53CHL1   H2B 3897   3.798   0.717   6.958 -0.4279 -0.5026  0.6285
   53CHL1   C20 3898   4.097   0.749   7.886 -0.9286 -0.1275  0.1730
   53CHL1   H20 3899   4.159   0.658   7.903 -0.8122  0.0791  0.8687
   53CHL1   C21 3900   3.947   0.702   7.905  0.0253 -0.1494 -0.1501
   53CHL1  H21A 3901   3.875   0.786   7.898 -1.0236 -0.9137  0.9051
   53CHL1  H21B 3902   3.926   0.647   8.000 -0.1341 -0.9145 -0.6167
   53CHL1  H21C 3903   3.907   0.630   7.831 -3.1938  1.0209  0.2801
   53CHL1   C22 3904   4.143   0.852   7.997 -0.7836  0.1408 -0.4339
   53CHL1  H22A 3905   4.249   0.883   7.986 -1.4346  2.2833 -1.1521
   53CHL1  H22B 3906   4.076   0.940   7.986  1.0055  1.4116 -1.7906
   53CHL1   C23 3907   4.115   0.791   8.140 -1.5366  0.0657 -0.5487
   53CHL1  H23A 3908   4.007   0.784   8.163 -2.1295 -1.6047 -3.3906
   53CHL1  H23B 3909   4.157   0.687   8.142  1.6074  1.2168  1.2901
   53CHL1   C24 3910   4.191   0.881   8.239 -0.4081 -0.1627 -0.2379
   53CHL1  H24A 3911   4.301   0.878   8.223 -0.6568  0.5073 -2.5255
   53CHL1  H24B 3912   4.161   0.985   8.216  0.4036  0.6086  1.8790
   53CHL1   C25 3913   4.172   0.854   8.388  0.3424  0.1473 -0.4170
   53CHL1   H25 3914   4.194   0.749   8.416  0.4603  0.4546  0.6508
   53CHL1   C26 3915   4.259   0.938   8.480 -0.5418 -0.6430 -0.7090
   53CHL1  H26A 3916   4.356   0.930   8.427  1.2985 -1.0001  2.4336
   53CHL1  H26B 3917   4.225   1.043   8.468 -2.3990 -0.7820  2.0664
   53CHL1  H26C 3918   4.262   0.907   8.587  1.3289  1.6079 -0.0273
   53CHL1   C27 3919   4.024   0.883   8.419 -0.1154 -0.1119  0.4829
   53CHL1  H27A 3920   4.008   0.992   8.403 -2.5293 -0.2483  1.5094
   53CHL1  H27B 3921   3.955   0.846   8.340  0.5715  0.9973 -0.6675
   53CHL1  H27C 3922   4.000   0.851   8.522 -0.5750 -1.2127  0.0541
   54CHL1    C3 3923   4.311   1.960   6.742 -0.0285  0.2199 -1.0625
   54CHL1    H3 3924   4.222   2.007   6.695 -1.3200  2.5736  3.2076
   54CHL1    O3 3925   4.418   1.945   6.649 -0.5263  0.2402 -0.3362
   54CHL1   H3' 3926   4.489   1.908   6.702  0.5445  1.6748 -0.6981
   54CHL1    C4 3927   4.356   2.061   6.852  0.1700 -0.5714  0.4228
   54CHL1   H4A 3928   4.453   2.016   6.882  2.2746  0.8372 -3.4888
   54CHL1   H4B 3929   4.382   2.152   6.794 -2.1733 -1.0390 -1.5091
   54CHL1    C5 3930   4.265   2.065   6.968 -0.2252 -0.1990  0.3876
   54CHL1    C6 3931   4.197   2.180   7.008 -0.3426 -0.0472  0.2662
   54CHL1    H6 3932   4.215   2.266   6.942 -3.1339 -0.5291 -1.2812
   54CHL1    C7 3933   4.113   2.187   7.132  0.4862  0.9454 -0.0338
   54CHL1   H7A 3934   4.138   2.274   7.196  0.0518  2.3926 -1.7628
   54CHL1   H7B 3935   4.005   2.194   7.107  0.1553  0.6991  1.2474
   54CHL1    C8 3936   4.132   2.061   7.234 -0.3900  0.5158 -0.7011
   54CHL1    H8 3937   4.235   2.079   7.272  0.1468 -2.3148 -0.5844
   54CHL1   C14 3938   4.035   2.056   7.348  0.4164 -0.1704 -0.5035
   54CHL1   H14 3939   3.935   2.047   7.299  1.0604  0.1601 -1.9202
   54CHL1   C15 3940   4.030   2.178   7.443  0.2196  0.1096  0.0318
   54CHL1  H15A 3941   4.127   2.215   7.483 -0.7152  1.4656  1.1728
   54CHL1  H15B 3942   3.977   2.264   7.398  2.7629  1.9316  0.2868
   54CHL1   C16 3943   3.955   2.128   7.569  0.1129  0.5411  0.0073
   54CHL1  H16A 3944   4.017   2.133   7.661  1.2586  1.4065 -0.7910
   54CHL1  H16B 3945   3.856   2.178   7.575 -0.1769 -0.1342  1.5195
   54CHL1   C17 3946   3.923   1.969   7.539 -0.2544 -0.0430 -0.1111
   54CHL1   H17 3947   3.830   1.971   7.479 -1.8425 -1.1303  2.1680
   54CHL1   C13 3948   4.038   1.933   7.439 -0.2518 -0.1186 -0.4913
   54CHL1   C18 3949   4.165   1.926   7.519  0.4900 -0.0834  0.1173
   54CHL1  H18A 3950   4.180   2.015   7.584 -0.8416 -0.9289  1.6524
   54CHL1  H18B 3951   4.162   1.834   7.581  2.2300 -0.6688 -0.6174
   54CHL1  H18C 3952   4.255   1.918   7.455 -0.5172  1.3530 -1.5848
   54CHL1   C12 3953   4.014   1.812   7.348 -0.2821  0.0444  0.1355
   54CHL1  H12A 3954   4.020   1.724   7.416 -3.3541 -1.5024 -1.3876
   54CHL1  H12B 3955   3.913   1.816   7.303 -0.7238 -0.0172  1.0944
   54CHL1   C11 3956   4.125   1.799   7.236 -0.2774  0.0244 -0.2442
   54CHL1  H11A 3957   4.221   1.796   7.292 -0.1894 -3.5496 -0.3694
   54CHL1  H11B 3958   4.115   1.708   7.173  1.0612  0.3935 -1.0331
   54CHL1    C9 3959   4.128   1.931   7.149 -0.3898 -0.2745 -0.3671
   54CHL1    H9 3960   4.031   1.933   7.094 -0.1541  0.9455 -0.7663
   54CHL1   C10 3961   4.233   1.934   7.043 -0.3689 -0.2024 -0.7888
   54CHL1   C19 3962   4.368   1.878   7.101 -0.4625  0.3951 -0.0827
   54CHL1  H19A 3963   4.399   1.922   7.198  2.3607 -0.7851 -0.3616
   54CHL1  H19B 3964   4.360   1.770   7.121 -1.3872 -0.1905 -3.0263
   54CHL1  H19C 3965   4.452   1.894   7.030 -1.2929  1.5173 -0.8627
   54CHL1    C1 3966   4.186   1.828   6.930 -0.2911 -0.0318  0.2518
   54CHL1   H1A 3967   4.180   1.727   6.976  2.7423 -0.4431  0.0159
   54CHL1   H1B 3968   4.085   1.860   6.897 -0.7115  0.0036  1.5390
   54CHL1    C2 3969   4.280   1.818   6.805  0.1411 -0.1295  0.5125
   54CHL1   H2A 3970   4.227   1.752   6.733 -0.1065 -0.1006  0.6684
   54CHL1   H2B 3971   4.368   1.762   6.845  0.8208  1.6342  1.5663
   54CHL1   C20 3972   3.905   1.883   7.675  0.3602 -0.3878 -0.0029
   54CHL1   H20 3973   4.003   1.858   7.721 -0.6780 -3.9344  0.5362
   54CHL1   C21 3974   3.832   1.754   7.634  0.4404  0.0309 -1.2257
   54CHL1  H21A 3975   3.894   1.687   7.569  0.8377 -0.4076 -0.4160
   54CHL1  H21B 3976   3.734   1.764   7.583 -0.6823  1.0873  1.0011
   54CHL1  H21C 3977   3.815   1.695   7.727 -0.5573  0.1422 -1.3262
   54CHL1   C22 3978   3.824   1.964   7.785  0.3920 -0.1284  0.4448
   54CHL1  H22A 3979   3.873   2.064   7.799  0.8121 -0.3122  0.3091
   54CHL1  H22B 3980   3.719   1.988   7.759  0.4725  2.2075  1.9283
   54CHL1   C23 3981   3.825   1.889   7.915 -0.2155  0.5291  0.6790
   54CHL1  H23A 3982   3.775   1.791   7.899 -2.2995  1.6289  0.0835
   54CHL1  H23B 3983   3.931   1.872   7.943 -0.3390 -0.8422  0.3687
   54CHL1   C24 3984   3.762   1.960   8.035 -0.1938 -0.1937 -0.7155
   54CHL1  H24A 3985   3.777   1.886   8.117 -0.7459 -0.6506 -1.0157
   54CHL1  H24B 3986   3.812   2.057   8.051 -1.4291  0.2346  0.7053
   54CHL1   C25 3987   3.607   1.985   8.028 -0.8061 -0.9845 -0.3399
   54CHL1   H25 3988   3.592   2.041   7.933  0.0115  0.3219  0.2845
   54CHL1   C26 3989   3.532   1.857   8.016  0.4005 -0.1701 -0.0986
   54CHL1  H26A 3990   3.425   1.873   8.040 -0.1919 -0.5659 -2.2454
   54CHL1  H26B 3991   3.531   1.808   7.916 -0.3520 -2.2370  0.8647
   54CHL1  H26C 3992   3.576   1.785   8.089  0.3655  1.1277  1.2566
   54CHL1   C27 3993   3.546   2.079   8.137  0.1070  0.2869  0.3797
   54CHL1  H27A 3994   3.437   2.099   8.132  0.2083  1.2207  1.5005
   54CHL1  H27B 3995   3.555   2.040   8.241 -1.7402 -0.0797  0.4454
   54CHL1  H27C 3996   3.590   2.181   8.134 -3.3862  1.9181 -0.9271
   55CHL1    C3 3997   5.486   4.110   6.754  0.8942 -0.5179  1.3662
   55CHL1    H3 3998   5.383   4.071   6.763  1.5603 -2.3372  1.3588
   55CHL1    O3 3999   5.496   4.158   6.619  0.2854 -0.1702  0.5752
   55CHL1   H3' 4000   5.574   4.215   6.623  0.2311  0.0053 -0.5561
   55CHL1    C4 4001   5.501   4.234   6.846 -0.4160  0.7173  0.0772
   55CHL1   H4A 4002   5.582   4.304   6.820  0.3546 -0.5013 -0.9093
   55CHL1   H4B 4003   5.407   4.290   6.827 -0.5769  2.0297  3.9374
   55CHL1    C5 4004   5.507   4.199   6.992 -0.3826 -0.2738 -0.2162
   55CHL1    C6 4005   5.418   4.241   7.084 -0.8590 -0.4726  0.1336
   55CHL1    H6 4006   5.339   4.314   7.063 -1.3457 -0.8540  0.6257
   55CHL1    C7 4007   5.437   4.205   7.230 -0.1812  0.2717  0.0228
   55CHL1   H7A 4008   5.422   4.288   7.301 -1.9737 -0.5894  0.7282
   55CHL1   H7B 4009   5.366   4.124   7.257 -1.1471  0.9488 -0.4294
   55CHL1    C8 4010   5.580   4.151   7.264 -0.1285  0.0169  0.0290
   55CHL1    H8 4011   5.652   4.236   7.270  0.7604 -0.7574  0.7234
   55CHL1   C14 4012   5.582   4.076   7.402 -0.0408  0.2052 -0.2766
   55CHL1   H14 4013   5.506   3.997   7.382 -0.3520  0.1331  1.0905
   55CHL1   C15 4014   5.527   4.154   7.530 -0.2223  0.3275 -0.5425
   55CHL1  H15A 4015   5.565   4.258   7.533 -1.0629  0.6237  1.2002
   55CHL1  H15B 4016   5.417   4.167   7.536 -0.0907  1.0374  0.4800
   55CHL1   C16 4017   5.584   4.072   7.652 -0.1589 -0.6818  0.3408
   55CHL1  H16A 4018   5.648   4.133   7.718 -0.8086 -0.3614  0.6828
   55CHL1  H16B 4019   5.500   4.028   7.710 -0.4893 -1.1589 -0.4824
   55CHL1   C17 4020   5.669   3.956   7.589  0.0603  0.4108 -0.4019
   55CHL1   H17 4021   5.593   3.877   7.575 -0.1835  0.7193 -0.8424
   55CHL1   C13 4022   5.711   4.009   7.449  0.3684  0.0341 -0.0786
   55CHL1   C18 4023   5.825   4.113   7.455  0.0128  0.2529 -0.6094
   55CHL1  H18A 4024   5.922   4.068   7.485 -0.2754 -0.5933 -0.9227
   55CHL1  H18B 4025   5.840   4.167   7.359  1.0213  1.8274  0.3843
   55CHL1  H18C 4026   5.805   4.183   7.539 -0.2874 -1.1468  0.5304
   55CHL1   C12 4027   5.741   3.904   7.349  0.7357 -0.0226 -0.4498
   55CHL1  H12A 4028   5.840   3.860   7.373  0.6121  0.0204  0.1538
   55CHL1  H12B 4029   5.665   3.824   7.342  0.0113  0.6856 -0.8716
   55CHL1   C11 4030   5.740   3.965   7.213 -0.4798  0.5207  0.1344
   55CHL1  H11A 4031   5.831   4.028   7.209 -0.5191  0.6698  1.2761
   55CHL1  H11B 4032   5.755   3.885   7.137  0.3963  0.5537  0.2616
   55CHL1    C9 4033   5.619   4.046   7.167  0.6336  0.5768  0.3063
   55CHL1    H9 4034   5.535   3.974   7.156  0.9456  0.2319  0.1429
   55CHL1   C10 4035   5.625   4.101   7.021  0.6942  0.9017  0.6276
   55CHL1   C19 4036   5.750   4.185   7.010 -0.4465 -0.7819 -0.5253
   55CHL1  H19A 4037   5.772   4.228   6.910  2.5122  1.3638  0.8803
   55CHL1  H19B 4038   5.761   4.253   7.098 -1.5752 -0.2075 -0.8079
   55CHL1  H19C 4039   5.828   4.107   7.028 -0.1039 -0.1505  0.9061
   55CHL1    C1 4040   5.621   3.979   6.919 -0.3359 -0.2747 -0.5771
   55CHL1   H1A 4041   5.713   3.919   6.930 -1.0727 -0.9444  3.5303
   55CHL1   H1B 4042   5.533   3.921   6.954  0.2436 -1.1797 -0.5827
   55CHL1    C2 4043   5.598   4.018   6.775 -0.2453 -0.2328 -0.9416
   55CHL1   H2A 4044   5.570   3.926   6.718 -0.6316 -0.2222 -0.7695
   55CHL1   H2B 4045   5.692   4.059   6.733 -0.8580 -0.2757 -2.4398
   55CHL1   C20 4046   5.773   3.899   7.686 -0.2226  0.4142 -0.0615
   55CHL1   H20 4047   5.839   3.973   7.735  2.2908 -2.3102  0.9691
   55CHL1   C21 4048   5.868   3.797   7.623  0.6059 -0.4706 -0.2131
   55CHL1  H21A 4049   5.951   3.838   7.563  1.2846 -0.2185  0.8718
   55CHL1  H21B 4050   5.821   3.714   7.565  0.2907 -0.8646  0.5870
   55CHL1  H21C 4051   5.921   3.743   7.705  0.2977 -2.8719 -1.5102
   55CHL1   C22 4052   5.706   3.830   7.815 -0.3989  0.3065  0.0770
   55CHL1  H22A 4053   5.618   3.891   7.844 -0.0120  1.7503 -1.6692
   55CHL1  H22B 4054   5.673   3.725   7.800 -1.2456  0.5213  0.3402
   55CHL1   C23 4055   5.786   3.832   7.950  0.0398  0.3868 -0.2515
   55CHL1  H23A 4056   5.884   3.783   7.929  0.1513  0.0589  0.9511
   55CHL1  H23B 4057   5.814   3.937   7.973  0.5668  0.3698 -0.7820
   55CHL1   C24 4058   5.705   3.766   8.062  0.1136 -0.1914  0.2291
   55CHL1  H24A 4059   5.610   3.821   8.081 -1.8336 -3.4392  0.7159
   55CHL1  H24B 4060   5.659   3.668   8.034 -0.6576 -0.4886  2.3024
   55CHL1   C25 4061   5.774   3.755   8.193  1.0694  0.4998 -0.6879
   55CHL1   H25 4062   5.859   3.683   8.182  0.1574 -0.4244 -1.9750
   55CHL1   C26 4063   5.838   3.889   8.240 -0.3319  0.1525  0.3745
   55CHL1  H26A 4064   5.864   3.875   8.347  0.7152 -0.3624  0.0590
   55CHL1  H26B 4065   5.933   3.913   8.188  0.7652  1.2777  2.7581
   55CHL1  H26C 4066   5.774   3.979   8.231 -0.2066  0.1691 -0.4487
   55CHL1   C27 4067   5.671   3.714   8.302  0.4004 -0.4157 -0.0107
   55CHL1  H27A 4068   5.586   3.785   8.299  0.6589  0.0492  2.2479
   55CHL1  H27B 4069   5.637   3.611   8.275 -0.4425 -0.7155  2.0367
   55CHL1  H27C 4070   5.707   3.726   8.406 -1.1407 -2.5466  0.8364
   56CHL1    C3 4071   2.736   2.906   6.766 -0.0201  0.2645 -0.6061
   56CHL1    H3 4072   2.827   2.960   6.800  0.1119 -0.9130  0.9994
   56CHL1    O3 4073   2.747   2.844   6.641 -0.8250  0.0674  1.3221
   56CHL1   H3' 4074   2.663   2.801   6.621 -0.6040  0.4878 -0.7806
   56CHL1    C4 4075   2.697   2.795   6.870 -0.6747 -0.0576  0.1845
   56CHL1   H4A 4076   2.609   2.732   6.846 -1.3501  0.2423  1.6911
   56CHL1   H4B 4077   2.778   2.719   6.873 -0.8891 -0.4435 -2.0870
   56CHL1    C5 4078   2.674   2.847   7.007  0.0412 -0.0473  0.0330
   56CHL1    C6 4079   2.741   2.792   7.117  0.0062 -0.4961 -0.0631
   56CHL1    H6 4080   2.810   2.709   7.098  0.0598 -0.2861 -0.8553
   56CHL1    C7 4081   2.710   2.839   7.254 -0.4405 -0.0295  0.7972
   56CHL1   H7A 4082   2.712   2.751   7.322  0.8234 -0.7175 -0.0898
   56CHL1   H7B 4083   2.786   2.913   7.285 -1.5657  0.7523  1.7955
   56CHL1    C8 4084   2.572   2.913   7.266  0.0037  0.4289  0.3523
   56CHL1    H8 4085   2.501   2.828   7.256  0.1726  0.4879 -1.9943
   56CHL1   C14 4086   2.562   2.989   7.399  0.5445  0.9524  0.5781
   56CHL1   H14 4087   2.646   3.062   7.393  0.6787  0.6839 -2.1793
   56CHL1   C15 4088   2.575   2.902   7.524 -0.0959 -0.2616  0.0019
   56CHL1  H15A 4089   2.507   2.814   7.519 -1.7103  0.9785 -1.1017
   56CHL1  H15B 4090   2.679   2.870   7.547 -0.2695 -0.3325  0.7208
   56CHL1   C16 4091   2.521   2.994   7.640  0.1609  0.5398 -0.3923
   56CHL1  H16A 4092   2.456   2.933   7.706  1.4695 -0.4993  0.0019
   56CHL1  H16B 4093   2.604   3.016   7.711  0.4762 -0.2019 -0.5175
   56CHL1   C17 4094   2.467   3.125   7.566  0.1511  0.6115  0.0310
   56CHL1   H17 4095   2.560   3.186   7.558  1.3282 -1.2987 -1.8854
   56CHL1   C13 4096   2.442   3.082   7.421  0.2862 -0.8116  0.9510
   56CHL1   C18 4097   2.316   2.990   7.421 -0.0350  0.3165 -0.4751
   56CHL1  H18A 4098   2.299   2.932   7.327  1.2418 -0.7321 -0.0998
   56CHL1  H18B 4099   2.306   2.933   7.516  0.6090 -1.9482 -1.6879
   56CHL1  H18C 4100   2.234   3.064   7.429  0.3592  0.5348  3.1573
   56CHL1   C12 4101   2.438   3.191   7.313  0.1910  0.0755 -0.1011
   56CHL1  H12A 4102   2.341   3.245   7.319 -1.8649 -3.3866  0.2699
   56CHL1  H12B 4103   2.530   3.250   7.334 -0.3243  0.1748  2.1698
   56CHL1   C11 4104   2.442   3.128   7.173 -0.3644 -0.0468  0.1011
   56CHL1  H11A 4105   2.340   3.097   7.142  0.2787 -1.8859 -0.3397
   56CHL1  H11B 4106   2.465   3.213   7.106  1.2699 -0.1070  0.5499
   56CHL1    C9 4107   2.556   3.020   7.152  0.2328 -0.2192 -0.0601
   56CHL1    H9 4108   2.647   3.083   7.150  0.1901 -0.1840 -1.2737
   56CHL1   C10 4109   2.566   2.954   7.007 -0.3357  0.1218 -1.0257
   56CHL1   C19 4110   2.421   2.893   6.980 -0.3862 -0.5789 -0.2245
   56CHL1  H19A 4111   2.414   2.793   7.027  0.5822 -0.6884 -0.2959
   56CHL1  H19B 4112   2.339   2.961   7.012  1.5432  1.4810  0.6337
   56CHL1  H19C 4113   2.402   2.876   6.872 -1.6218 -0.5521 -0.0344
   56CHL1    C1 4114   2.598   3.065   6.904  0.5905 -0.0817  0.3637
   56CHL1   H1A 4115   2.522   3.144   6.888  2.0738  1.0721 -1.3344
   56CHL1   H1B 4116   2.680   3.127   6.947 -1.3981  2.2615  0.9820
   56CHL1    C2 4117   2.620   3.011   6.766 -0.0179 -0.1798  0.1829
   56CHL1   H2A 4118   2.623   3.104   6.705 -2.5141  0.8085  1.3769
   56CHL1   H2B 4119   2.520   2.974   6.734 -0.1936  0.8006 -0.4569
   56CHL1   C20 4120   2.364   3.203   7.640  0.4662  0.0295 -0.0340
   56CHL1   H20 4121   2.263   3.175   7.604 -0.6670  2.5157  0.9567
   56CHL1   C21 4122   2.384   3.350   7.595 -0.1334 -0.3240  0.0104
   56CHL1  H21A 4123   2.478   3.391   7.639 -0.9299 -0.9617  2.4736
   56CHL1  H21B 4124   2.296   3.403   7.638  0.3868 -0.0871  0.8104
   56CHL1  H21C 4125   2.382   3.361   7.485 -1.7790  0.0729  0.0522
   56CHL1   C22 4126   2.356   3.185   7.797  0.6161  0.3203  0.0027
   56CHL1  H22A 4127   2.264   3.238   7.826  0.8039  0.8225 -0.3100
   56CHL1  H22B 4128   2.346   3.076   7.816  1.2691  0.1470 -0.6128
   56CHL1   C23 4129   2.467   3.257   7.872 -0.4803  0.0267 -0.7131
   56CHL1  H23A 4130   2.563   3.206   7.849  0.6525  1.9127 -0.3057
   56CHL1  H23B 4131   2.474   3.364   7.844 -0.5746  0.6842  1.5795
   56CHL1   C24 4132   2.449   3.249   8.031  0.1122  0.1407  0.8588
   56CHL1  H24A 4133   2.382   3.325   8.075 -1.2579  0.5182 -1.7526
   56CHL1  H24B 4134   2.401   3.152   8.054  1.8580 -1.1816 -0.7429
   56CHL1   C25 4135   2.582   3.242   8.111 -0.0276 -0.1182  0.6724
   56CHL1   H25 4136   2.637   3.156   8.069 -0.4206  0.6065 -1.4592
   56CHL1   C26 4137   2.653   3.374   8.114  0.0156 -0.9693  0.5452
   56CHL1  H26A 4138   2.661   3.405   8.008 -1.5116 -1.8815  0.1360
   56CHL1  H26B 4139   2.751   3.368   8.166  0.5518  0.7178 -0.1796
   56CHL1  H26C 4140   2.585   3.449   8.160  0.8060 -0.5958  1.1311
   56CHL1   C27 4141   2.551   3.203   8.252  0.2916 -0.5116  0.0084
   56CHL1  H27A 4142   2.480   3.117   8.254  1.5912 -1.6740 -1.3158
   56CHL1  H27B 4143   2.635   3.155   8.308 -2.0569 -1.0312  3.4092
   56CHL1  H27C 4144   2.511   3.290   8.308  1.5541 -0.8302  1.5038
   57SAPC     N 4145   2.310   0.030  10.893  0.4947 -0.0114  0.2657
   57SAPC   C12 4146   2.440  -0.021  10.830  0.2392 -0.2951  0.3502
   57SAPC  H12A 4147   2.473  -0.102  10.894 -2.6292 -1.3977  0.5538
   57SAPC  H12B 4148   2.514   0.058  10.840  0.7972 -1.0130  2.8476
   57SAPC   C13 4149   2.320   0.046  11.042  0.0410 -0.6348  0.2758
   57SAPC  H13A 4150   2.374   0.138  11.057  0.1093 -0.7011  0.4365
   57SAPC  H13B 4151   2.218   0.061  11.076 -0.8894 -1.1021 -2.0490
   57SAPC  H13C 4152   2.352  -0.045  11.091  1.1569 -0.2652  0.2479
   57SAPC   C14 4153   2.279   0.164  10.829 -0.4603  0.4326 -0.3562
   57SAPC  H14A 4154   2.277   0.151  10.722 -0.3085  0.2803 -0.3405
   57SAPC  H14B 4155   2.186   0.204  10.868 -0.0907 -0.9170  2.1057
   57SAPC  H14C 4156   2.362   0.229  10.848  0.9423 -0.6979 -2.2606
   57SAPC   C15 4157   2.189  -0.062  10.854  0.9979 -0.4506  0.2391
   57SAPC  H15A 4158   2.226  -0.163  10.847 -0.8888 -1.2211  0.7865
   57SAPC  H15B 4159   2.106  -0.049  10.922  0.6152  3.0310 -0.6857
   57SAPC  H15C 4160   2.153  -0.031  10.757  2.9316 -1.7939 -0.9807
   57SAPC   C11 4161   2.439  -0.074  10.686  0.0722 -0.3913  0.2062
   57SAPC  H11A 4162   2.356  -0.148  10.676 -1.0379  1.0818 -2.3528
   57SAPC  H11B 4163   2.534  -0.125  10.660  0.1208 -0.6139  0.7974
   57SAPC     P 4164   2.505   0.127  10.531 -0.4163 -0.3389 -0.1146
   57SAPC   O13 4165   2.439   0.240  10.472  0.2075  0.1371 -0.4508
   57SAPC   O14 4166   2.608   0.144  10.638  0.1197 -0.1036  0.3524
   57SAPC   O12 4167   2.397   0.028  10.596  0.2864 -0.3419 -0.6338
   57SAPC   O11 4168   2.567   0.037  10.420  0.0561 -0.6240 -0.3985
   57SAPC    C1 4169   2.533  -0.097  10.378  0.2845 -0.1602  0.0485
   57SAPC    HA 4170   2.559  -0.180  10.448  2.5993  2.0074  1.9638
   57SAPC    HB 4171   2.423  -0.098  10.361  0.5236  2.4332 -2.3729
   57SAPC    C2 4172   2.606  -0.133  10.242  0.5695 -0.5910  0.0733
   57SAPC    HS 4173   2.574  -0.238  10.224 -0.1780 -0.5358  1.0063
   57SAPC   O21 4174   2.742  -0.130  10.259 -0.1754 -0.1737  0.4120
   57SAPC   C21 4175   2.817  -0.186  10.160  0.2715  0.2903  0.4730
   57SAPC   O22 4176   2.783  -0.278  10.088  0.2843 -0.3197  0.2986
   57SAPC   C22 4177   2.948  -0.120  10.167 -0.2449 -0.0661 -0.4871
   57SAPC   H2R 4178   2.973  -0.087  10.270 -0.6919 -0.5121 -0.2309
   57SAPC   H2S 4179   3.032  -0.187  10.139  0.6681  0.5679  0.6755
   57SAPC    C3 4180   2.561  -0.039  10.124  0.2587  0.1430  0.4199
   57SAPC    HX 4181   2.600   0.061  10.154 -0.1676  0.3158  0.4014
   57SAPC    HY 4182   2.450  -0.038  10.131 -0.0442 -0.4283 -2.7489
   57SAPC   O31 4183   2.610  -0.082   9.997 -0.3702  0.1120 -0.2588
   57SAPC   C31 4184   2.553  -0.172   9.925  0.3350 -0.2512 -0.1208
   57SAPC   O32 4185   2.448  -0.233   9.947  0.4861  0.1997 -0.8671
   57SAPC   C32 4186   2.638  -0.172   9.797 -0.4036  0.1590  0.4006
   57SAPC   H2X 4187   2.713  -0.254   9.803  0.7085  1.1710  0.8417
   57SAPC   H2Y 4188   2.690  -0.075   9.779 -1.7966  0.6567 -1.1767
   57SAPC   C23 4189   2.950   0.013  10.080  0.1371 -0.2647 -0.7488
   57SAPC   H3R 4190   3.047   0.063  10.104  0.0171 -1.1104  1.7676
   57SAPC   H3S 4191   2.870   0.086  10.100  1.5046  1.0634  0.1161
   57SAPC   C24 4192   2.980  -0.018   9.937  0.0266  0.5041 -0.0714
   57SAPC   H4R 4193   2.914  -0.103   9.908 -0.4245  0.9374 -0.3294
   57SAPC   H4S 4194   3.082  -0.062   9.930  0.1461  0.7685  0.0365
   57SAPC   C25 4195   2.956   0.094   9.834  0.0244  0.3680  0.4276
   57SAPC   H5R 4196   2.859   0.145   9.845 -0.2715 -0.1800  0.3813
   57SAPC   C26 4197   3.041   0.132   9.737 -0.2982  0.5212 -0.5917
   57SAPC   H6R 4198   3.007   0.203   9.661  0.5260  3.1636  1.3791
   57SAPC   C27 4199   3.180   0.075   9.713 -0.3508  0.0622  0.1642
   57SAPC   H7R 4200   3.176  -0.035   9.719  0.7725 -0.0357 -0.5208
   57SAPC   H7S 4201   3.241   0.113   9.798 -0.1088 -1.0203  0.4844
   57SAPC   C28 4202   3.242   0.122   9.581 -0.2838  0.2624  0.3030
   57SAPC   H8R 4203   3.323   0.195   9.591 -0.2683  0.2892  0.0033
   57SAPC   C29 4204   3.208   0.080   9.457 -0.1376 -0.1963 -0.1293
   57SAPC   H9R 4205   3.257   0.129   9.372 -1.9432  1.1947 -0.4397
   57SAPC  C210 4206   3.099  -0.011   9.423 -0.1511  0.3445 -0.7288
   57SAPC  H10R 4207   3.056  -0.060   9.513  1.1095  0.3574 -0.0963
   57SAPC  H10S 4208   3.134  -0.098   9.364 -0.3687 -1.2077  1.3217
   57SAPC  C211 4209   2.987   0.062   9.354 -0.2201 -0.0369 -0.0434
   57SAPC  H11R 4210   2.891   0.071   9.407 -0.3036 -2.5114  0.3761
   57SAPC  C212 4211   2.997   0.102   9.222  0.2326 -0.0662 -0.1492
   57SAPC  H12R 4212   2.916   0.155   9.170 -0.4532  0.5889  1.5039
   57SAPC  C213 4213   3.113   0.089   9.127 -0.2959  0.1413  0.8981
   57SAPC  H13R 4214   3.216   0.081   9.169  0.8321 -0.0462 -1.7011
   57SAPC  H13S 4215   3.110   0.171   9.053  1.4889 -0.9444 -0.4697
   57SAPC  C214 4216   3.084  -0.037   9.046 -0.3406 -0.2958  0.1562
   57SAPC  H14R 4217   3.094  -0.132   9.100  0.4001 -0.8185 -0.8433
   57SAPC  C215 4218   3.080  -0.041   8.913 -0.4831 -0.6165  1.1464
   57SAPC  H15R 4219   3.072  -0.139   8.865  2.6012 -0.1631 -0.4943
   57SAPC  C216 4220   3.096   0.075   8.813  0.1573  0.0700  0.1882
   57SAPC  H16R 4221   3.082   0.174   8.861  1.6003 -0.4731  1.8116
   57SAPC  H16S 4222   3.018   0.069   8.734  0.2233  1.6109 -0.0326
   57SAPC  C217 4223   3.227   0.081   8.729 -0.8163 -0.2608 -0.4250
   57SAPC  H17R 4224   3.235  -0.021   8.687 -0.4048  0.2158 -1.5242
   57SAPC  H17S 4225   3.306   0.105   8.803  0.2124  0.5302 -1.7520
   57SAPC  C218 4226   3.220   0.192   8.619 -0.7452  0.8713 -0.1368
   57SAPC  H18R 4227   3.319   0.231   8.589 -0.4242 -1.3284 -2.2160
   57SAPC  H18S 4228   3.152   0.270   8.660 -0.8744  0.4166  0.5303
   57SAPC  C219 4229   3.152   0.143   8.494  0.7384  0.3546 -0.0890
   57SAPC  H19R 4230   3.048   0.108   8.515  0.5547  0.5519 -0.6522
   57SAPC  H19S 4231   3.202   0.050   8.458 -0.1315 -0.2877  0.2928
   57SAPC  C220 4232   3.148   0.254   8.394  0.4630  0.6353 -0.2937
   57SAPC  H20R 4233   3.107   0.215   8.299  1.3066 -2.6158  0.5793
   57SAPC  H20S 4234   3.248   0.300   8.378  1.1723 -0.4018  0.9847
   57SAPC  H20T 4235   3.080   0.337   8.424  0.3630 -0.0422  1.4559
   57SAPC   C33 4236   2.542  -0.202   9.678 -0.0707 -0.0477  0.0515
   57SAPC   H3X 4237   2.438  -0.165   9.690 -0.1595 -0.8024  2.0474
   57SAPC   H3Y 4238   2.529  -0.312   9.675 -0.0800 -0.0871  1.0021
   57SAPC   C34 4239   2.605  -0.154   9.551  0.3467  0.0740 -0.2642
   57SAPC   H4X 4240   2.685  -0.222   9.514  2.1684  2.2293 -0.5783
   57SAPC   H4Y 4241   2.639  -0.048   9.562 -0.8685  0.5225 -0.7203
   57SAPC   C35 4242   2.499  -0.146   9.445 -0.1851 -0.2009  0.2899
   57SAPC   H5X 4243   2.410  -0.084   9.472 -0.1796  0.5006 -1.2123
   57SAPC   H5Y 4244   2.453  -0.246   9.425 -1.6725  0.2011  1.4887
   57SAPC   C36 4245   2.542  -0.098   9.301 -0.4524  0.1024  0.0864
   57SAPC   H6X 4246   2.614  -0.014   9.299  1.7816 -1.6616  1.1935
   57SAPC   H6Y 4247   2.455  -0.058   9.246 -0.7378 -0.6633 -0.0336
   57SAPC   C37 4248   2.608  -0.211   9.215 -0.0185  0.2915  0.4618
   57SAPC   H7X 4249   2.533  -0.284   9.179  0.8631  0.8022 -2.6680
   57SAPC   H7Y 4250   2.697  -0.253   9.267 -0.4494 -0.8668  0.2979
   57SAPC   C38 4251   2.649  -0.166   9.079 -0.9032  0.7172 -0.5243
   57SAPC   H8X 4252   2.743  -0.106   9.086 -1.1674  1.1746 -0.8337
   57SAPC   H8Y 4253   2.569  -0.102   9.037 -0.6288  0.7823 -0.9586
   57SAPC   C39 4254   2.663  -0.292   8.989  0.3421 -0.9720  0.2259
   57SAPC   H9X 4255   2.564  -0.343   8.981 -0.0026 -0.2842  0.0227
   57SAPC   H9Y 4256   2.732  -0.368   9.031  4.2106  2.8912  1.4865
   57SAPC  C310 4257   2.737  -0.250   8.865 -0.4087 -0.9872  0.4481
   57SAPC  H10X 4258   2.835  -0.224   8.911 -0.0189 -2.0261  0.2365
   57SAPC  H10Y 4259   2.692  -0.159   8.821  1.3286 -0.1560  0.3002
   57SAPC  C311 4260   2.759  -0.360   8.755  0.1245 -0.1415 -0.7521
   57SAPC  H11X 4261   2.655  -0.377   8.721  0.2865 -1.9307 -0.4877
   57SAPC  H11Y 4262   2.810  -0.451   8.794  1.1516  0.7621  0.0904
   57SAPC  C312 4263   2.846  -0.312   8.636 -0.3478  0.2829 -0.0073
   57SAPC  H12X 4264   2.835  -0.391   8.558  0.1481 -0.1098  0.3088
   57SAPC  H12Y 4265   2.952  -0.292   8.661 -0.8525  1.0919  1.5811
   57SAPC  C313 4266   2.794  -0.184   8.573  0.4080  0.5109 -0.1255
   57SAPC  H13X 4267   2.805  -0.102   8.646  0.4497  0.9086 -0.5756
   57SAPC  H13Y 4268   2.687  -0.185   8.544 -0.3614 -1.3806  2.4305
   57SAPC  C314 4269   2.875  -0.146   8.452 -0.1657 -0.5686  0.1053
   57SAPC  H14X 4270   2.886  -0.235   8.386 -2.6760 -0.2120 -0.9137
   57SAPC  H14Y 4271   2.976  -0.113   8.487 -0.2766  0.6522 -0.6847
   57SAPC  C315 4272   2.807  -0.045   8.361 -0.0378 -0.9308  0.0299
   57SAPC  H15X 4273   2.865  -0.020   8.270 -2.8467  0.0019 -1.6218
   57SAPC  H15Y 4274   2.784   0.049   8.416  1.3278 -1.3461  1.3796
   57SAPC  C316 4275   2.676  -0.080   8.298  0.2655  0.8135  0.0531
   57SAPC  H16X 4276   2.611  -0.143   8.362  0.1812 -0.2540 -1.0434
   57SAPC  H16Y 4277   2.706  -0.137   8.207 -0.5571  1.4117 -0.5975
   57SAPC  C317 4278   2.599   0.040   8.242  0.8478  0.8115 -0.0838
   57SAPC  H17X 4279   2.670   0.112   8.194 -0.8609  2.2928 -0.4749
   57SAPC  H17Y 4280   2.545   0.106   8.312  0.1190 -1.6527  1.7997
   57SAPC  C318 4281   2.502  -0.018   8.138 -0.4198 -0.0846 -0.6293
   57SAPC  H18X 4282   2.424   0.059   8.117  0.9551  2.1989  1.9370
   57SAPC  H18Y 4283   2.460  -0.111   8.182 -2.6152  1.3447  0.4715
   57SAPC  H18Z 4284   2.560  -0.045   8.047  0.3744  0.7941 -0.4017
   58SAPC     N 4285   6.721   4.606  10.724 -0.8352 -0.0009 -0.3209
   58SAPC   C12 4286   6.707   4.556  10.578  0.5928  0.4367 -0.1440
   58SAPC  H12A 4287   6.671   4.455  10.572  0.0383  0.7022 -2.3802
   58SAPC  H12B 4288   6.806   4.546  10.537  1.1901  2.7917  0.5392
   58SAPC   C13 4289   6.825   4.524  10.786 -0.4026  0.1880 -0.1500
   58SAPC  H13A 4290   6.921   4.517  10.736 -1.6373  1.4793 -2.8802
   58SAPC  H13B 4291   6.829   4.545  10.892  1.7471 -0.3888 -0.0507
   58SAPC  H13C 4292   6.792   4.422  10.776 -0.5974  0.1821  0.5064
   58SAPC   C14 4293   6.780   4.745  10.716 -0.3439  0.0889  0.4359
   58SAPC  H14A 4294   6.865   4.744  10.649 -0.6137 -1.4399  0.0785
   58SAPC  H14B 4295   6.704   4.809  10.675  0.6286  1.4921  0.7736
   58SAPC  H14C 4296   6.808   4.783  10.813 -0.0070 -0.5369  0.5940
   58SAPC   C15 4297   6.606   4.606  10.807  0.7281 -0.2842 -0.3011
   58SAPC  H15A 4298   6.634   4.663  10.895  0.8233 -0.7888 -0.0010
   58SAPC  H15B 4299   6.526   4.655  10.753 -0.8547 -2.0476  0.3292
   58SAPC  H15C 4300   6.580   4.506  10.838  2.0517 -1.0366 -1.5059
   58SAPC   C11 4301   6.629   4.639  10.474 -0.0789 -0.4117  0.9202
   58SAPC  H11A 4302   6.641   4.605  10.369 -3.2732  1.5475 -0.2347
   58SAPC  H11B 4303   6.664   4.745  10.470 -2.1433  0.2943 -2.7030
   58SAPC     P 4304   6.403   4.517  10.464  0.0959  0.3262 -0.0297
   58SAPC   O13 4305   6.479   4.391  10.497  0.1605 -0.9473 -0.1330
   58SAPC   O14 4306   6.267   4.541  10.513  0.4810 -0.1872 -0.1272
   58SAPC   O12 4307   6.486   4.645  10.510 -0.2161 -0.4678  0.7343
   58SAPC   O11 4308   6.400   4.527  10.308 -0.2637  0.4524 -0.3815
   58SAPC    C1 4309   6.360   4.645  10.233 -0.1618  1.4332 -0.2233
   58SAPC    HA 4310   6.383   4.743  10.280 -1.6362  2.3762 -1.3456
   58SAPC    HB 4311   6.402   4.653  10.131  1.2039  1.8798  0.3483
   58SAPC    C2 4312   6.206   4.651  10.202 -0.5882  0.0085  0.0169
   58SAPC    HS 4313   6.157   4.610  10.293 -0.9420  1.1716  0.3665
   58SAPC   O21 4314   6.175   4.566  10.095  0.5613  0.9123 -0.0498
   58SAPC   C21 4315   6.050   4.527  10.090  0.2929 -0.5432  0.0995
   58SAPC   O22 4316   5.965   4.561  10.172  0.2834  0.5308 -0.1156
   58SAPC   C22 4317   6.032   4.432   9.977 -0.0578  0.5651 -0.6931
   58SAPC   H2R 4318   6.130   4.407   9.930 -0.0591  2.4114 -1.7984
   58SAPC   H2S 4319   5.995   4.336  10.017 -0.2427  0.9327  0.0412
   58SAPC    C3 4320   6.156   4.797  10.183  0.3463  0.2545  0.3559
   58SAPC    HX 4321   6.191   4.861  10.266  0.6732 -0.5708  0.8732
   58SAPC    HY 4322   6.045   4.789  10.185  0.3824 -0.2588  0.6717
   58SAPC   O31 4323   6.215   4.851  10.064 -0.7876 -0.0077  0.2160
   58SAPC   C31 4324   6.132   4.920   9.989  0.5830  0.2971  1.1016
   58SAPC   O32 4325   6.031   4.979  10.019  0.1798 -0.2983 -0.2425
   58SAPC   C32 4326   6.188   4.920   9.844 -0.7813 -0.9044 -0.3293
   58SAPC   H2X 4327   6.230   4.819   9.827 -0.4259 -0.6628 -0.8984
   58SAPC   H2Y 4328   6.267   4.998   9.834 -1.6345 -0.0909 -0.8966
   58SAPC   C23 4329   5.909   4.478   9.889 -0.4808 -0.2748  0.5686
   58SAPC   H3R 4330   5.820   4.502   9.951 -0.2708  2.9070 -0.2172
   58SAPC   H3S 4331   5.883   4.381   9.841 -1.7084  0.6260 -0.6341
   58SAPC   C24 4332   5.938   4.586   9.780  0.0824 -0.4142 -0.0071
   58SAPC   H4R 4333   5.953   4.685   9.830 -1.2950 -1.1303  1.9550
   58SAPC   H4S 4334   5.855   4.591   9.707  1.0711 -2.3246 -1.3611
   58SAPC   C25 4335   6.064   4.551   9.700  0.0099  0.1447 -0.1004
   58SAPC   H5R 4336   6.155   4.549   9.761 -0.0981  1.6185  0.1337
   58SAPC   C26 4337   6.066   4.521   9.566  0.4337  0.2065  0.0849
   58SAPC   H6R 4338   6.169   4.497   9.536  0.0351 -1.5096  0.0244
   58SAPC   C27 4339   5.946   4.507   9.481 -0.3036 -0.0439 -0.4689
   58SAPC   H7R 4340   5.919   4.607   9.441 -0.3671  0.1452  0.0435
   58SAPC   H7S 4341   5.862   4.463   9.539 -0.5171  1.0104  0.0482
   58SAPC   C28 4342   5.970   4.395   9.375 -0.1218  0.4724  0.3883
   58SAPC   H8R 4343   5.928   4.297   9.400  1.4831 -0.5042 -0.5638
   58SAPC   C29 4344   6.039   4.400   9.261 -0.8068 -0.4540  0.5855
   58SAPC   H9R 4345   6.024   4.316   9.192 -1.6569  0.3831 -0.2773
   58SAPC  C210 4346   6.125   4.524   9.212 -0.0870 -0.4788 -0.4710
   58SAPC  H10R 4347   6.120   4.603   9.290 -0.2048 -0.3475 -0.6084
   58SAPC  H10S 4348   6.071   4.562   9.122  0.5171  0.3567 -0.4907
   58SAPC  C211 4349   6.267   4.497   9.175  0.2178 -0.7034 -0.1790
   58SAPC  H11R 4350   6.340   4.509   9.257  1.0399 -2.5366 -0.5836
   58SAPC  C212 4351   6.321   4.468   9.056  0.3708  0.0723  0.1347
   58SAPC  H12R 4352   6.431   4.469   9.047  0.4015  0.0123  0.4862
   58SAPC  C213 4353   6.241   4.443   8.931 -0.0302  0.6313 -0.4657
   58SAPC  H13R 4354   6.150   4.387   8.962  0.9732 -0.5453  0.3917
   58SAPC  H13S 4355   6.292   4.364   8.872 -2.1679 -0.1612 -1.3804
   58SAPC  C214 4356   6.205   4.567   8.846  0.0979  0.3572 -0.6787
   58SAPC  H14R 4357   6.209   4.667   8.892  0.5645 -0.4913  1.2203
   58SAPC  C215 4358   6.165   4.549   8.715 -0.1607  0.4095 -0.1903
   58SAPC  H15R 4359   6.129   4.638   8.660 -0.0503  1.2006  0.9857
   58SAPC  C216 4360   6.162   4.421   8.640 -0.4971 -0.3057 -0.1226
   58SAPC  H16R 4361   6.071   4.427   8.578  0.2364  0.9394 -1.1217
   58SAPC  H16S 4362   6.159   4.331   8.706 -0.1390 -0.2801 -0.0669
   58SAPC  C217 4363   6.289   4.409   8.545 -1.0404  0.2365 -0.1119
   58SAPC  H17R 4364   6.382   4.418   8.605 -0.4916  0.0948 -0.9215
   58SAPC  H17S 4365   6.305   4.498   8.481  1.9151 -1.0352 -1.3659
   58SAPC  C218 4366   6.298   4.278   8.466 -0.1393  0.1603 -0.5117
   58SAPC  H18R 4367   6.291   4.199   8.544  1.2341 -0.8950 -1.3923
   58SAPC  H18S 4368   6.394   4.255   8.415 -0.5576 -2.5870 -0.2122
   58SAPC  C219 4369   6.181   4.257   8.372  0.2633 -0.0982  0.3312
   58SAPC  H19R 4370   6.182   4.347   8.308 -0.2575 -1.3507 -1.5204
   58SAPC  H19S 4371   6.080   4.246   8.417 -0.8125 -0.0593 -1.9245
   58SAPC  C220 4372   6.201   4.131   8.284 -0.2657 -0.9203 -0.2371
   58SAPC  H20R 4373   6.112   4.115   8.220 -0.1255 -2.1495 -0.1362
   58SAPC  H20S 4374   6.220   4.037   8.340  1.9060  0.9165  2.4330
   58SAPC  H20T 4375   6.296   4.136   8.226 -0.0594 -1.9716 -0.0043
   58SAPC   C33 4376   6.074   4.932   9.741  0.1211 -0.0106 -0.4325
   58SAPC   H3X 4377   6.030   5.033   9.756 -0.8432 -0.2177 -1.7206
   58SAPC   H3Y 4378   5.992   4.864   9.772 -1.4260  1.4089 -1.2310
   58SAPC   C34 4379   6.119   4.910   9.599  0.4058 -0.0790 -0.1151
   58SAPC   H4X 4380   6.148   4.802   9.599 -0.8174 -0.4347  1.3222
   58SAPC   H4Y 4381   6.208   4.975   9.581  0.6202 -0.3078  0.1101
   58SAPC   C35 4382   6.000   4.921   9.493  0.3479  0.1629 -0.4116
   58SAPC   H5X 4383   5.976   5.028   9.513 -0.7752 -0.3011  0.7650
   58SAPC   H5Y 4384   5.914   4.856   9.518  0.7711  0.1910  1.1936
   58SAPC   C36 4385   6.032   4.903   9.344  0.1090 -0.1578  0.1055
   58SAPC   H6X 4386   5.948   4.938   9.280 -0.1783 -0.0244  0.5559
   58SAPC   H6Y 4387   6.043   4.793   9.326 -1.2322 -0.0746 -1.4261
   58SAPC   C37 4388   6.156   4.986   9.292  0.5613  0.4528 -0.1727
   58SAPC   H7X 4389   6.248   4.941   9.336  0.0571 -1.3108 -0.8584
   58SAPC   H7Y 4390   6.145   5.095   9.310  1.0455  0.1224  2.5589
   58SAPC   C38 4391   6.169   4.962   9.135  0.5369 -0.1061  0.4900
   58SAPC   H8X 4392   6.078   5.010   9.092 -1.1078 -2.1184  1.5395
   58SAPC   H8Y 4393   6.153   4.852   9.125 -2.9316  0.3442 -0.5700
   58SAPC   C39 4394   6.300   5.016   9.078 -0.6608 -0.0253  0.1576
   58SAPC   H9X 4395   6.381   4.980   9.145  0.3290  1.8795  0.0374
   58SAPC   H9Y 4396   6.320   5.125   9.073  0.9360 -0.2839  0.3368
   58SAPC  C310 4397   6.325   4.969   8.928  0.0458 -0.7619  0.7502
   58SAPC  H10X 4398   6.332   4.859   8.936  1.5969 -0.6875  0.6437
   58SAPC  H10Y 4399   6.421   5.015   8.896 -0.6032  1.0828  1.3081
   58SAPC  C311 4400   6.212   5.011   8.829 -0.2373  0.1317 -0.0423
   58SAPC  H11X 4401   6.202   5.122   8.833  0.6630  0.1729  2.1503
   58SAPC  H11Y 4402   6.113   4.967   8.857  1.2578 -2.5194  1.5134
   58SAPC  C312 4403   6.254   4.975   8.683 -0.0776  0.4225  0.1726
   58SAPC  H12X 4404   6.246   4.865   8.685 -0.8584  0.4684 -0.2552
   58SAPC  H12Y 4405   6.353   5.017   8.655  1.5466 -2.4864  1.0775
   58SAPC  C313 4406   6.147   5.032   8.586  0.3027  0.7954 -0.1225
   58SAPC  H13X 4407   6.116   5.129   8.629 -0.1688  0.1263  1.1089
   58SAPC  H13Y 4408   6.053   4.974   8.595 -0.4295  2.1026  1.1696
   58SAPC  C314 4409   6.200   5.054   8.446  0.0659 -0.1391  0.1660
   58SAPC  H14X 4410   6.223   4.960   8.392 -0.7119 -1.1314  1.4812
   58SAPC  H14Y 4411   6.289   5.117   8.467 -1.3581  1.3382  2.2918
   58SAPC  C315 4412   6.100   5.136   8.362  0.5201  0.0864 -0.1605
   58SAPC  H15X 4413   5.995   5.120   8.394  0.2684  0.2719 -0.8861
   58SAPC  H15Y 4414   6.088   5.104   8.256  2.1683  2.9527 -1.3121
   58SAPC  C316 4415   6.125   5.285   8.367  0.4870  0.5112  0.1053
   58SAPC  H16X 4416   6.209   5.305   8.296  1.5579 -0.7782  0.9680
   58SAPC  H16Y 4417   6.159   5.316   8.468  0.2414  0.5816  0.1666
   58SAPC  C317 4418   5.998   5.371   8.333  0.6558  0.3187  0.0183
   58SAPC  H17X 4419   6.014   5.476   8.366  2.4962 -0.4028  1.5897
   58SAPC  H17Y 4420   5.907   5.348   8.394  1.0163 -1.2396 -0.0078
   58SAPC  C318 4421   5.959   5.358   8.183  0.2537 -0.2239  0.9463
   58SAPC  H18X 4422   5.943   5.255   8.146 -1.0241  0.2336  0.1883
   58SAPC  H18Y 4423   6.031   5.401   8.110 -3.3973 -0.1442 -2.9844
   58SAPC  H18Z 4424   5.864   5.413   8.173 -0.7429 -1.8792  1.0109
   59SAPC     N 4425   6.685   6.410  11.206  0.0404 -0.3454  0.4688
   59SAPC   C12 4426   6.795   6.378  11.103  0.4621 -0.4211  0.0358
   59SAPC  H12A 4427   6.887   6.429  11.131  0.1279  0.2237 -0.0246
   59SAPC  H12B 4428   6.764   6.425  11.011 -0.3911  1.5690  1.2782
   59SAPC   C13 4429   6.566   6.325  11.190 -0.0275 -0.0168  0.3383
   59SAPC  H13A 4430   6.510   6.326  11.282  0.1301 -1.5939  0.4742
   59SAPC  H13B 4431   6.502   6.367  11.114 -1.5437  1.9364  2.5361
   59SAPC  H13C 4432   6.583   6.219  11.178 -0.5446  0.1119 -2.0002
   59SAPC   C14 4433   6.747   6.366  11.339 -0.0290 -0.5350  0.4547
   59SAPC  H14A 4434   6.828   6.432  11.366 -0.2716  0.5231 -1.2562
   59SAPC  H14B 4435   6.670   6.374  11.415 -1.3976 -0.9069 -0.8449
   59SAPC  H14C 4436   6.776   6.263  11.334  1.0976 -0.3152  1.8712
   59SAPC   C15 4437   6.644   6.553  11.209 -0.2102  0.4059  0.1409
   59SAPC  H15A 4438   6.725   6.624  11.207  0.1800 -0.0209  0.5441
   59SAPC  H15B 4439   6.574   6.576  11.130  1.6234 -0.3842 -1.8157
   59SAPC  H15C 4440   6.604   6.579  11.306  2.3068 -0.3325  1.4611
   59SAPC   C11 4441   6.832   6.233  11.071  0.4535 -0.6603 -0.3847
   59SAPC  H11A 4442   6.877   6.195  11.166  0.0865 -1.0645 -0.3695
   59SAPC  H11B 4443   6.917   6.231  11.000  0.5352  0.4456 -0.3370
   59SAPC     P 4444   6.738   5.990  11.030  0.4822  0.2845  0.1838
   59SAPC   O13 4445   6.875   5.960  11.060 -0.3419  0.3053  0.3932
   59SAPC   O14 4446   6.645   5.939  11.138  0.1256  0.5369  0.8262
   59SAPC   O12 4447   6.729   6.147  11.018  0.8876  0.3759 -0.4270
   59SAPC   O11 4448   6.690   5.931  10.890 -0.0650 -0.0577  0.1121
   59SAPC    C1 4449   6.787   5.881  10.792 -0.0169 -0.4813  0.0799
   59SAPC    HA 4450   6.889   5.875  10.834 -0.2147 -0.0853  0.6312
   59SAPC    HB 4451   6.753   5.785  10.747  0.1669 -0.7224  0.4484
   59SAPC    C2 4452   6.789   5.981  10.672  0.4545  0.0652  0.3710
   59SAPC    HS 4453   6.860   5.942  10.596  2.4716 -1.5794  2.9210
   59SAPC   O21 4454   6.835   6.107  10.712 -0.2586  0.2953 -0.0277
   59SAPC   C21 4455   6.969   6.124  10.706  0.3176 -0.0134 -0.1432
   59SAPC   O22 4456   7.046   6.029  10.707  0.0275  0.4846  0.0942
   59SAPC   C22 4457   7.004   6.276  10.694 -0.4771  0.3412 -0.9390
   59SAPC   H2R 4458   6.952   6.329  10.777  0.7268  1.3908 -0.8260
   59SAPC   H2S 4459   7.113   6.271  10.717 -0.6806 -0.3944 -0.0736
   59SAPC    C3 4460   6.647   5.991  10.604 -1.1057 -0.8359 -0.5455
   59SAPC    HX 4461   6.574   6.038  10.674 -0.5525  0.8117 -1.0408
   59SAPC    HY 4462   6.614   5.886  10.583 -0.2821 -0.8711 -1.7555
   59SAPC   O31 4463   6.655   6.061  10.474 -0.0086  0.1355  0.5144
   59SAPC   C31 4464   6.636   6.190  10.469 -0.2018 -0.5677 -0.0697
   59SAPC   O32 4465   6.603   6.257  10.569  0.5616 -0.1254  0.2258
   59SAPC   C32 4466   6.640   6.233  10.322  0.4092  0.0386  0.0425
   59SAPC   H2X 4467   6.631   6.137  10.268  1.5542 -2.8412  4.4269
   59SAPC   H2Y 4468   6.737   6.277  10.291  0.4160 -0.8956 -1.3187
   59SAPC   C23 4469   6.965   6.349  10.572  0.4272  0.4720 -0.0965
   59SAPC   H3R 4470   6.971   6.456  10.599 -0.1821  0.3590  0.5060
   59SAPC   H3S 4471   6.859   6.331  10.545  0.1461 -0.0379  1.2795
   59SAPC   C24 4472   7.046   6.311  10.453 -0.4965 -0.5621 -0.3581
   59SAPC   H4R 4473   7.155   6.299  10.470 -0.1161  1.7040 -0.8375
   59SAPC   H4S 4474   7.037   6.397  10.383  0.3742 -0.3246 -0.1999
   59SAPC   C25 4475   6.986   6.187  10.390  0.4596 -0.6111  0.1418
   59SAPC   H5R 4476   6.952   6.102  10.451  2.2771 -0.5404  1.3324
   59SAPC   C26 4477   6.975   6.168  10.258 -0.0205 -1.2412 -0.4081
   59SAPC   H6R 4478   6.927   6.074  10.225 -1.3947 -0.8705  0.4481
   59SAPC   C27 4479   7.029   6.255  10.147  0.0287  0.4258 -0.3157
   59SAPC   H7R 4480   7.121   6.307  10.181  1.5446 -2.6438  0.6289
   59SAPC   H7S 4481   6.943   6.321  10.123 -2.1928 -2.8464 -2.0710
   59SAPC   C28 4482   7.073   6.174  10.023  0.3630 -0.2964 -0.9009
   59SAPC   H8R 4483   7.182   6.161  10.021  0.7490  2.2806 -0.8477
   59SAPC   C29 4484   7.001   6.146   9.908  0.7785 -0.2915 -0.7932
   59SAPC   H9R 4485   7.061   6.099   9.829 -1.4424 -1.3165 -1.9767
   59SAPC  C210 4486   6.863   6.196   9.880  0.8007 -0.4562  0.2449
   59SAPC  H10R 4487   6.792   6.162   9.959  2.0267 -0.1693  1.5165
   59SAPC  H10S 4488   6.833   6.138   9.791 -0.4122  0.0255  0.3207
   59SAPC  C211 4489   6.853   6.347   9.857 -0.9754 -0.0953 -0.1199
   59SAPC  H11R 4490   6.859   6.406   9.950 -0.3668 -0.5631  0.1463
   59SAPC  C212 4491   6.849   6.396   9.735 -1.0670 -0.0229  0.7313
   59SAPC  H12R 4492   6.822   6.502   9.721  1.2802  0.9232  2.5988
   59SAPC  C213 4493   6.859   6.317   9.603  0.3780 -0.6749  0.6956
   59SAPC  H13R 4494   6.787   6.367   9.534  0.9909  1.4492  1.5074
   59SAPC  H13S 4495   6.815   6.215   9.608 -0.8448 -0.3132 -1.5212
   59SAPC  C214 4496   6.991   6.324   9.534 -0.7275  0.3263 -0.2860
   59SAPC  H14R 4497   7.065   6.394   9.574 -0.3035 -0.8967  1.1417
   59SAPC  C215 4498   7.031   6.245   9.433 -0.1557  0.5010  0.5935
   59SAPC  H15R 4499   7.123   6.266   9.376 -1.3312  0.1286 -1.5229
   59SAPC  C216 4500   6.940   6.140   9.365 -0.6906 -0.6712 -0.3521
   59SAPC  H16R 4501   6.849   6.197   9.336  1.1168  2.2848 -0.5549
   59SAPC  H16S 4502   6.910   6.071   9.448  0.9892 -0.3026  0.6012
   59SAPC  C217 4503   6.999   6.070   9.239  1.0459  0.2183 -0.3553
   59SAPC  H17R 4504   7.080   6.014   9.289  0.7700  2.1434  2.4709
   59SAPC  H17S 4505   7.052   6.143   9.175 -0.8203  1.8361 -0.1386
   59SAPC  C218 4506   6.886   5.985   9.170 -0.0293  0.0822  0.4754
   59SAPC  H18R 4507   6.802   6.055   9.150  1.0627  1.0851 -0.7150
   59SAPC  H18S 4508   6.844   5.911   9.242 -0.8076  0.9801  0.9701
   59SAPC  C219 4509   6.927   5.910   9.045  0.3656 -1.1200 -0.4970
   59SAPC  H19R 4510   7.034   5.882   9.059  0.8487  0.7646 -0.0910
   59SAPC  H19S 4511   6.937   5.995   8.973 -2.6159  1.5981  2.0020
   59SAPC  C220 4512   6.826   5.807   8.991  0.1601 -0.1689 -0.3210
   59SAPC  H20R 4513   6.859   5.729   8.919 -0.0377  1.0670 -1.8238
   59SAPC  H20S 4514   6.760   5.869   8.927  1.4366 -0.4604 -2.0132
   59SAPC  H20T 4515   6.765   5.763   9.072  0.0508 -2.2240 -1.4633
   59SAPC   C33 4516   6.523   6.317  10.283  0.3828  0.2057 -0.2690
   59SAPC   H3X 4517   6.514   6.417  10.331  0.9084  0.3382 -0.4395
   59SAPC   H3Y 4518   6.423   6.277  10.310  0.6273 -0.1919  0.0489
   59SAPC   C34 4519   6.527   6.360  10.134  0.5090  0.2360 -0.6570
   59SAPC   H4X 4520   6.620   6.404  10.094  0.0569  0.3093 -1.6449
   59SAPC   H4Y 4521   6.457   6.446  10.123  1.1631  1.2516  2.1581
   59SAPC   C35 4522   6.476   6.254  10.031  0.0509  0.1708 -0.2487
   59SAPC   H5X 4523   6.377   6.220  10.067  0.9674 -1.2518  1.0555
   59SAPC   H5Y 4524   6.547   6.170  10.018 -0.3331  0.0823 -2.0598
   59SAPC   C36 4525   6.458   6.308   9.891 -0.7657  0.5197  0.2868
   59SAPC   H6X 4526   6.553   6.357   9.859 -1.0052 -0.7176 -2.6903
   59SAPC   H6Y 4527   6.379   6.386   9.900 -0.4935  0.6883  1.3310
   59SAPC   C37 4528   6.433   6.196   9.785 -0.3298 -0.8657 -0.2538
   59SAPC   H7X 4529   6.325   6.172   9.798 -0.5148 -0.7234 -1.3801
   59SAPC   H7Y 4530   6.506   6.112   9.792  1.1545  0.4637  1.1075
   59SAPC   C38 4531   6.452   6.252   9.641  0.7442  0.3589  0.1516
   59SAPC   H8X 4532   6.558   6.262   9.607  0.4016 -0.6179 -1.3105
   59SAPC   H8Y 4533   6.414   6.355   9.652  3.5378  1.4426  0.6213
   59SAPC   C39 4534   6.363   6.175   9.536 -0.0252  0.0075  0.3093
   59SAPC   H9X 4535   6.256   6.158   9.559  0.1535 -1.6439  0.0454
   59SAPC   H9Y 4536   6.404   6.079   9.498  0.0391  0.6253 -1.2797
   59SAPC  C310 4537   6.356   6.247   9.397  0.6236 -0.2376 -0.2159
   59SAPC  H10X 4538   6.345   6.356   9.416 -1.3724 -0.0446 -2.1264
   59SAPC  H10Y 4539   6.263   6.217   9.345 -0.2286  0.6808  0.7217
   59SAPC  C311 4540   6.486   6.237   9.317  0.2831 -0.1496  0.5323
   59SAPC  H11X 4541   6.519   6.131   9.323  0.8661  0.0078  0.2695
   59SAPC  H11Y 4542   6.561   6.309   9.355 -0.8563  1.3584 -0.0060
   59SAPC  C312 4543   6.461   6.262   9.167 -0.7449 -0.3774 -0.2740
   59SAPC  H12X 4544   6.434   6.369   9.157 -0.7617 -0.3315  0.2304
   59SAPC  H12Y 4545   6.370   6.207   9.135 -2.3837  2.7585 -1.3585
   59SAPC  C313 4546   6.587   6.245   9.077  0.2172 -0.0375 -0.5962
   59SAPC  H13X 4547   6.617   6.138   9.071 -1.2899 -0.4675 -0.8424
   59SAPC  H13Y 4548   6.675   6.299   9.116  2.1310 -2.3916 -1.3885
   59SAPC  C314 4549   6.551   6.286   8.931 -0.2158 -0.0161 -0.6163
   59SAPC  H14X 4550   6.623   6.351   8.877 -2.3558  1.6816 -1.6025
   59SAPC  H14Y 4551   6.466   6.357   8.940 -0.0107  0.3917 -1.7939
   59SAPC  C315 4552   6.520   6.165   8.842  0.2767 -0.1943 -0.0184
   59SAPC  H15X 4553   6.433   6.113   8.887 -0.8903  2.0664  0.4862
   59SAPC  H15Y 4554   6.617   6.111   8.835  0.9257  1.0768 -1.5728
   59SAPC  C316 4555   6.480   6.204   8.697  0.2911 -0.3302  0.1834
   59SAPC  H16X 4556   6.474   6.117   8.628  2.6051 -1.3290  1.1158
   59SAPC  H16Y 4557   6.556   6.267   8.645 -1.3621  1.5633 -0.0490
   59SAPC  C317 4558   6.351   6.283   8.694  0.0256 -0.1745 -0.3331
   59SAPC  H17X 4559   6.332   6.323   8.593 -2.1614  0.0647  0.1338
   59SAPC  H17Y 4560   6.352   6.372   8.761  3.4751  0.0082 -0.4242
   59SAPC  C318 4561   6.225   6.201   8.734  1.2389  0.0199 -0.0591
   59SAPC  H18X 4562   6.223   6.172   8.842 -3.5579  1.3088  0.4435
   59SAPC  H18Y 4563   6.215   6.106   8.678 -1.3128  0.7344 -0.9791
   59SAPC  H18Z 4564   6.137   6.267   8.717  1.5969  0.5424  0.0836
   60SAPC     N 4565   1.464   4.174  10.430 -0.1816 -0.3275  0.6136
   60SAPC   C12 4566   1.555   4.055  10.437  0.8132 -0.0591  0.8740
   60SAPC  H12A 4567   1.618   4.065  10.350 -2.2338  1.1721 -1.3821
   60SAPC  H12B 4568   1.508   3.961  10.414 -1.2451  0.2264  3.4491
   60SAPC   C13 4569   1.370   4.152  10.315 -0.2587 -0.7622 -0.2915
   60SAPC  H13A 4570   1.426   4.142  10.224  0.2670  2.0653 -0.3607
   60SAPC  H13B 4571   1.320   4.056  10.322 -0.2424 -0.7656 -0.2110
   60SAPC  H13C 4572   1.294   4.228  10.312  0.2935 -0.2391 -1.1367
   60SAPC   C14 4573   1.386   4.193  10.554  0.4459  0.2294  0.8273
   60SAPC  H14A 4574   1.302   4.260  10.544  0.5809  0.3859  0.7388
   60SAPC  H14B 4575   1.350   4.097  10.587  2.4372 -1.0182 -0.4080
   60SAPC  H14C 4576   1.448   4.235  10.632 -1.4931  1.6204  1.6893
   60SAPC   C15 4577   1.541   4.301  10.405  0.1706 -0.6384  0.1285
   60SAPC  H15A 4578   1.475   4.386  10.404 -0.5128 -1.0163  3.4324
   60SAPC  H15B 4579   1.603   4.316  10.492  0.7525 -1.6764 -0.0791
   60SAPC  H15C 4580   1.612   4.303  10.323 -0.1244 -1.7440 -0.1730
   60SAPC   C11 4581   1.645   4.049  10.557 -0.3176 -0.6552  0.2696
   60SAPC  H11A 4582   1.685   3.946  10.564 -0.9250 -0.9516 -0.5049
   60SAPC  H11B 4583   1.583   4.064  10.648 -0.1148 -2.0702  0.6666
   60SAPC     P 4584   1.887   4.121  10.457 -0.3169 -0.1822  0.0127
   60SAPC   O13 4585   1.959   4.245  10.433  0.0115 -0.5960  0.2390
   60SAPC   O14 4586   1.964   4.024  10.533 -0.5440 -0.1222 -0.3026
   60SAPC   O12 4587   1.754   4.147  10.538 -0.0674 -0.5101 -0.5393
   60SAPC   O11 4588   1.852   4.058  10.317  0.2664 -0.0495 -0.5444
   60SAPC    C1 4589   1.951   4.039  10.218  0.1605  0.4465  0.3771
   60SAPC    HA 4590   2.043   4.098  10.240 -0.2367 -0.0577  3.8125
   60SAPC    HB 4591   1.971   3.931  10.205 -2.0766 -0.3185  2.6433
   60SAPC    C2 4592   1.910   4.091  10.079 -0.6598 -0.8610  0.2035
   60SAPC    HS 4593   1.878   4.197  10.090  1.3755 -0.1554 -0.2305
   60SAPC   O21 4594   1.806   4.011  10.034 -0.0920 -0.0310  0.2203
   60SAPC   C21 4595   1.685   4.047  10.062 -0.1401 -0.2099  0.6406
   60SAPC   O22 4596   1.660   4.152  10.119  0.0252  0.0722 -0.1630
   60SAPC   C22 4597   1.582   3.947  10.016 -0.1811  0.1702  0.0805
   60SAPC   H2R 4598   1.608   3.848  10.058  0.8942 -0.0455 -1.0675
   60SAPC   H2S 4599   1.483   3.964  10.065 -0.7633 -0.6283 -0.7798
   60SAPC    C3 4600   2.026   4.093   9.981  0.3920 -0.4586  0.7906
   60SAPC    HX 4601   2.058   3.987   9.976 -0.7949 -0.8626  1.3116
   60SAPC    HY 4602   2.105   4.160  10.022  0.0405 -0.3995  1.3820
   60SAPC   O31 4603   1.990   4.161   9.848  0.5866 -0.3767  0.3000
   60SAPC   C31 4604   1.953   4.061   9.761  0.0680 -0.0475 -0.1644
   60SAPC   O32 4605   1.951   3.945   9.786  0.4039  0.0018  0.1427
   60SAPC   C32 4606   1.946   4.111   9.618  0.1891 -0.3811 -0.3117
   60SAPC   H2X 4607   2.046   4.156   9.600 -0.8656  3.0825  1.5922
   60SAPC   H2Y 4608   1.870   4.190   9.604  3.0225  2.4890 -0.6364
   60SAPC   C23 4609   1.571   3.940   9.866  0.5331  0.7114 -0.2868
   60SAPC   H3R 4610   1.522   3.843   9.842 -0.4537  0.4561  2.4244
   60SAPC   H3S 4611   1.675   3.928   9.828  0.3905 -2.6319  0.0336
   60SAPC   C24 4612   1.504   4.053   9.796  0.9503  0.4092  0.7829
   60SAPC   H4R 4613   1.405   4.078   9.840  0.3348 -0.0598 -0.2964
   60SAPC   H4S 4614   1.472   4.014   9.697 -1.1690 -0.1871  1.6563
   60SAPC   C25 4615   1.579   4.183   9.791 -0.0326  0.2733 -0.2749
   60SAPC   H5R 4616   1.621   4.215   9.887  0.8259  1.4410 -1.0258
   60SAPC   C26 4617   1.611   4.245   9.681 -0.0562 -0.4195 -0.5857
   60SAPC   H6R 4618   1.672   4.335   9.700  0.7669 -1.2247  0.7999
   60SAPC   C27 4619   1.590   4.204   9.540  0.4574 -0.3597  1.0627
   60SAPC   H7R 4620   1.554   4.099   9.542 -0.5302 -0.0362  0.9426
   60SAPC   H7S 4621   1.691   4.198   9.493 -0.3283  0.1523 -0.7726
   60SAPC   C28 4622   1.487   4.277   9.454  0.7922 -0.2178  1.1086
   60SAPC   H8R 4623   1.387   4.292   9.498 -0.2721 -3.5657  0.1289
   60SAPC   C29 4624   1.503   4.335   9.334  0.1318 -0.0612  0.4080
   60SAPC   H9R 4625   1.419   4.383   9.282  1.5202  0.5763 -1.3722
   60SAPC  C210 4626   1.639   4.330   9.258 -0.2037 -0.5349 -0.0001
   60SAPC  H10R 4627   1.637   4.277   9.161  0.0688 -2.9306  1.2222
   60SAPC  H10S 4628   1.715   4.272   9.315 -0.8699  0.0912  1.6024
   60SAPC  C211 4629   1.702   4.467   9.245 -0.5532  0.4035 -0.3592
   60SAPC  H11R 4630   1.731   4.508   9.343  2.0948 -1.9007 -0.0577
   60SAPC  C212 4631   1.734   4.528   9.125  0.7690  0.3711  0.1711
   60SAPC  H12R 4632   1.763   4.634   9.125  1.5457  0.1684  0.4679
   60SAPC  C213 4633   1.708   4.471   8.986 -0.7021 -0.0784  0.0707
   60SAPC  H13R 4634   1.746   4.367   8.985 -1.2424 -0.2780 -0.2192
   60SAPC  H13S 4635   1.782   4.531   8.929  0.2388 -0.9570  0.3467
   60SAPC  C214 4636   1.567   4.482   8.916 -0.9366 -1.0959 -0.2448
   60SAPC  H14R 4637   1.475   4.479   8.977 -1.3121  0.2970 -0.7205
   60SAPC  C215 4638   1.553   4.514   8.783 -0.1212  0.6304 -0.5866
   60SAPC  H15R 4639   1.454   4.526   8.737 -1.4970  2.7191  2.5536
   60SAPC  C216 4640   1.669   4.531   8.685  0.0029  0.4086  0.3796
   60SAPC  H16R 4641   1.680   4.442   8.620 -1.0612  0.6774 -0.1965
   60SAPC  H16S 4642   1.766   4.545   8.736 -0.2368  0.3446  0.8677
   60SAPC  C217 4643   1.638   4.651   8.589 -0.8749  0.6354  0.2196
   60SAPC  H17R 4644   1.620   4.748   8.641 -0.2562  0.8233  0.0971
   60SAPC  H17S 4645   1.548   4.625   8.530 -0.7064  0.2376  0.1344
   60SAPC  C218 4646   1.756   4.696   8.496  0.1724 -0.2728 -0.0197
   60SAPC  H18R 4647   1.715   4.773   8.427 -0.1087 -0.7762 -0.4221
   60SAPC  H18S 4648   1.802   4.615   8.435  3.3150  0.6395  0.9662
   60SAPC  C219 4649   1.877   4.754   8.576  0.0464  0.2901 -0.3899
   60SAPC  H19R 4650   1.937   4.663   8.596 -1.6988 -0.9171 -0.4109
   60SAPC  H19S 4651   1.843   4.785   8.676  2.0126 -0.8727  0.7092
   60SAPC  C220 4652   1.954   4.869   8.513 -0.1962 -0.2954 -0.0503
   60SAPC  H20R 4653   1.873   4.934   8.475 -2.8643 -3.1497  0.3373
   60SAPC  H20S 4654   2.016   4.830   8.429  2.1483 -1.6760  2.1669
   60SAPC  H20T 4655   2.019   4.922   8.586 -0.2411 -1.1823  0.6529
   60SAPC   C33 4656   1.919   3.994   9.521  0.2981  0.1089 -0.0868
   60SAPC   H3X 4657   1.823   3.943   9.545 -0.6344  2.7247  2.1955
   60SAPC   H3Y 4658   2.001   3.919   9.521  2.6271  2.4171 -3.0270
   60SAPC   C34 4659   1.892   4.044   9.382  0.0467 -0.1872 -0.3823
   60SAPC   H4X 4660   1.968   4.112   9.338 -1.5096  2.4949  0.8292
   60SAPC   H4Y 4661   1.794   4.097   9.372  0.8813  1.2794 -1.1935
   60SAPC   C35 4662   1.883   3.935   9.274 -0.0521  0.4164 -0.0050
   60SAPC   H5X 4663   1.828   3.855   9.328  1.2089 -0.1648  0.4790
   60SAPC   H5Y 4664   1.983   3.897   9.244  1.5368  0.6984  4.2902
   60SAPC   C36 4665   1.806   3.978   9.152 -0.1500  0.0842 -0.0735
   60SAPC   H6X 4666   1.879   4.023   9.081  0.5234 -0.2451  0.3981
   60SAPC   H6Y 4667   1.718   4.045   9.165  0.1097  0.1672  1.4728
   60SAPC   C37 4668   1.745   3.859   9.075  1.2480 -0.4790  0.9116
   60SAPC   H7X 4669   1.658   3.818   9.131  0.3602 -0.2373 -0.2703
   60SAPC   H7Y 4670   1.809   3.768   9.076 -1.4982 -2.5641  0.8120
   60SAPC   C38 4671   1.724   3.884   8.928  0.1579 -0.2776 -0.3320
   60SAPC   H8X 4672   1.711   3.794   8.865  0.9100 -0.9369  0.4360
   60SAPC   H8Y 4673   1.817   3.930   8.888  0.3325  0.5800  1.0069
   60SAPC   C39 4674   1.597   3.976   8.898  0.0302 -0.4516  0.9441
   60SAPC   H9X 4675   1.590   4.058   8.973 -0.6989  1.0374 -0.6995
   60SAPC   H9Y 4676   1.497   3.928   8.897 -0.2669  0.1590  0.2848
   60SAPC  C310 4677   1.608   4.056   8.758 -0.0589  0.2331 -0.5430
   60SAPC  H10X 4678   1.709   4.104   8.755  0.9399 -1.2940  3.2574
   60SAPC  H10Y 4679   1.530   4.134   8.770 -0.6472 -0.5751  1.2376
   60SAPC  C311 4680   1.590   3.968   8.640  0.5872 -0.5676  0.1301
   60SAPC  H11X 4681   1.624   3.865   8.666  2.0380 -0.9484 -2.8023
   60SAPC  H11Y 4682   1.661   4.005   8.563  2.0730  0.1596  1.7815
   60SAPC  C312 4683   1.443   3.972   8.588 -0.3342  0.8355 -0.1573
   60SAPC  H12X 4684   1.404   4.076   8.585 -1.9645  0.2514  0.1455
   60SAPC  H12Y 4685   1.386   3.920   8.668 -0.0161  0.9572  0.1473
   60SAPC  C313 4686   1.423   3.891   8.453  0.1848 -0.1838  0.5366
   60SAPC  H13X 4687   1.466   3.789   8.458  3.0747  0.7441 -1.9285
   60SAPC  H13Y 4688   1.489   3.947   8.383 -1.0450  1.6414  0.7838
   60SAPC  C314 4689   1.280   3.894   8.398 -0.0383  0.1084  1.0019
   60SAPC  H14X 4690   1.244   3.999   8.388  1.7647  0.8018  1.2934
   60SAPC  H14Y 4691   1.225   3.841   8.479 -1.0553  0.8619  0.8181
   60SAPC  C315 4692   1.264   3.822   8.263 -0.8077  0.0237 -0.3209
   60SAPC  H15X 4693   1.303   3.718   8.273  1.8492  0.4770 -4.0470
   60SAPC  H15Y 4694   1.315   3.877   8.182 -3.7527  1.5180 -1.2990
   60SAPC  C316 4695   1.117   3.806   8.223  0.1667 -0.5677  0.7379
   60SAPC  H16X 4696   1.075   3.907   8.204 -0.8872 -1.3703 -1.5331
   60SAPC  H16Y 4697   1.053   3.762   8.302 -1.1741 -0.2029 -0.1083
   60SAPC  C317 4698   1.105   3.708   8.102 -0.1961 -0.5216  0.5515
   60SAPC  H17X 4699   1.148   3.758   8.012 -1.4396  1.1550  0.8431
   60SAPC  H17Y 4700   0.996   3.705   8.083 -0.0042 -1.1510 -0.5384
   60SAPC  C318 4701   1.160   3.564   8.116 -0.5696 -0.0528  0.2913
   60SAPC  H18X 4702   1.268   3.559   8.092 -0.6169 -1.0568  0.2393
   60SAPC  H18Y 4703   1.115   3.502   8.035  1.5408  0.8604 -1.6974
   60SAPC  H18Z 4704   1.136   3.524   8.217 -0.3259 -0.5428  0.1530
   61SAPC     N 4705   4.363   3.144  11.001  0.7558  0.0698  0.7892
   61SAPC   C12 4706   4.436   3.125  10.865 -0.2346  0.7859 -0.5463
   61SAPC  H12A 4707   4.454   3.215  10.808  0.3139 -0.7459 -2.9530
   61SAPC  H12B 4708   4.363   3.077  10.801  2.5869 -0.3226 -3.2156
   61SAPC   C13 4709   4.220   3.202  10.985 -0.1937 -0.0458 -0.3156
   61SAPC  H13A 4710   4.230   3.295  10.931  1.5062 -0.2532 -0.4088
   61SAPC  H13B 4711   4.156   3.132  10.934  1.4583  0.2222 -2.9927
   61SAPC  H13C 4712   4.176   3.223  11.081 -0.1514  0.0543 -0.3177
   61SAPC   C14 4713   4.351   3.017  11.079 -0.0320  0.4018  1.5683
   61SAPC  H14A 4714   4.321   3.043  11.180  1.9944 -0.6595  2.5036
   61SAPC  H14B 4715   4.264   2.962  11.046 -0.1073  1.2346  0.3089
   61SAPC  H14C 4716   4.445   2.964  11.079  0.2383  0.8742  1.0543
   61SAPC   C15 4717   4.435   3.237  11.088  0.6429  0.3654  0.7233
   61SAPC  H15A 4718   4.383   3.246  11.182 -2.4750  0.7342 -0.9072
   61SAPC  H15B 4719   4.537   3.204  11.088  0.5349 -0.2693 -2.2626
   61SAPC  H15C 4720   4.423   3.338  11.051  0.4043  1.1927  2.9176
   61SAPC   C11 4721   4.562   3.034  10.864 -0.0122 -1.3020  0.5329
   61SAPC  H11A 4722   4.595   3.025  10.758 -1.1509  0.9803 -0.0758
   61SAPC  H11B 4723   4.532   2.927  10.877 -0.9099 -1.3650 -1.6581
   61SAPC     P 4724   4.788   3.157  10.917  0.4697 -0.2827  0.2046
   61SAPC   O13 4725   4.785   3.289  10.988  0.2760 -0.1376  0.0028
   61SAPC   O14 4726   4.905   3.072  10.934 -0.6120  0.0799 -0.0590
   61SAPC   O12 4727   4.662   3.077  10.961 -0.5609  0.3311 -0.0152
   61SAPC   O11 4728   4.766   3.190  10.764 -0.3950  0.5249 -0.2668
   61SAPC    C1 4729   4.840   3.300  10.706  0.3300  0.3678 -0.2149
   61SAPC    HA 4730   4.800   3.397  10.745 -0.8157  0.2268 -0.9815
   61SAPC    HB 4731   4.946   3.288  10.737  0.7601 -0.2806 -1.8357
   61SAPC    C2 4732   4.835   3.302  10.550 -0.1641  0.3789 -0.2896
   61SAPC    HS 4733   4.937   3.326  10.516 -0.7092 -0.1388 -2.4297
   61SAPC   O21 4734   4.729   3.390  10.504 -0.3453  0.2832 -0.1191
   61SAPC   C21 4735   4.754   3.461  10.395  0.5840  0.4084  0.5133
   61SAPC   O22 4736   4.864   3.475  10.341 -0.6001 -0.9012  0.1136
   61SAPC   C22 4737   4.616   3.482  10.330  0.1302 -0.2409  0.4726
   61SAPC   H2R 4738   4.569   3.381  10.328  1.1029 -0.7849  2.4983
   61SAPC   H2S 4739   4.569   3.556  10.398  1.2401  0.4900  0.4714
   61SAPC    C3 4740   4.811   3.154  10.497  0.1587 -0.2140  0.1460
   61SAPC    HX 4741   4.710   3.133  10.538  0.9135  0.1814  2.3749
   61SAPC    HY 4742   4.879   3.083  10.550  0.7948  1.6112  1.8912
   61SAPC   O31 4743   4.826   3.133  10.355 -0.0854 -0.1935  0.5748
   61SAPC   C31 4744   4.950   3.137  10.303 -0.5498 -0.1917 -0.9301
   61SAPC   O32 4745   5.053   3.148  10.369 -0.3154 -0.7736  0.5618
   61SAPC   C32 4746   4.952   3.127  10.153  0.0904 -0.5039 -0.0543
   61SAPC   H2X 4747   4.900   3.033  10.123 -1.4018  0.7424 -1.6280
   61SAPC   H2Y 4748   5.059   3.119  10.124 -0.1618  1.0097 -1.5859
   61SAPC   C23 4749   4.626   3.531  10.183 -0.3606 -0.2516 -0.4065
   61SAPC   H3R 4750   4.656   3.451  10.112 -0.9684  0.3662 -1.3838
   61SAPC   H3S 4751   4.700   3.615  10.183  0.7914 -1.2357  0.2999
   61SAPC   C24 4752   4.495   3.597  10.128 -0.4286  0.2776 -0.7259
   61SAPC   H4R 4753   4.503   3.615  10.018 -2.3055  0.3295 -0.8947
   61SAPC   H4S 4754   4.492   3.694  10.183  0.6742  0.0845 -0.2944
   61SAPC   C25 4755   4.360   3.526  10.173 -0.0960 -0.4551  0.1695
   61SAPC   H5R 4756   4.313   3.561  10.266 -2.5546  1.4664 -1.6879
   61SAPC   C26 4757   4.300   3.414  10.112  0.2007  0.0426  0.5656
   61SAPC   H6R 4758   4.199   3.382  10.139  0.1836 -0.9680 -0.6551
   61SAPC   C27 4759   4.351   3.338   9.992  1.0707  0.2814 -0.0551
   61SAPC   H7R 4760   4.380   3.416   9.918 -2.2044  1.9331  0.2412
   61SAPC   H7S 4761   4.263   3.292   9.942  1.4412 -0.6208  0.0924
   61SAPC   C28 4762   4.469   3.249  10.022 -0.6291  0.0353 -0.0480
   61SAPC   H8R 4763   4.504   3.251  10.127  2.4029 -2.3645 -0.8922
   61SAPC   C29 4764   4.526   3.164   9.932 -0.3617 -0.0831 -0.3046
   61SAPC   H9R 4765   4.611   3.103   9.966 -0.1337  0.9212  1.0105
   61SAPC  C210 4766   4.474   3.149   9.787 -0.4120  1.0025 -0.1336
   61SAPC  H10R 4767   4.527   3.227   9.730 -1.1366  2.0069  0.5346
   61SAPC  H10S 4768   4.366   3.175   9.784 -0.0464  2.8267  1.0455
   61SAPC  C211 4769   4.507   3.020   9.725 -0.2154 -0.3114  0.5567
   61SAPC  H11R 4770   4.468   2.930   9.775  1.4023 -1.3011  0.1018
   61SAPC  C212 4771   4.573   2.995   9.610  0.1626 -0.1253 -0.1191
   61SAPC  H12R 4772   4.590   2.891   9.579 -0.4986 -0.5313  0.8259
   61SAPC  C213 4773   4.631   3.090   9.507 -0.4234 -0.0966 -0.2503
   61SAPC  H13R 4774   4.711   3.050   9.442 -2.3058  0.0868 -2.8253
   61SAPC  H13S 4775   4.683   3.175   9.556 -1.8084  0.3301  0.5457
   61SAPC  C214 4776   4.527   3.150   9.418  0.2254  0.0911 -0.8178
   61SAPC  H14R 4777   4.483   3.243   9.456  0.4321 -0.6735  1.4826
   61SAPC  C215 4778   4.490   3.101   9.295 -0.0768 -0.5497 -0.1536
   61SAPC  H15R 4779   4.405   3.154   9.249 -0.8337 -0.5697  1.1618
   61SAPC  C216 4780   4.537   2.984   9.220 -0.8166  0.1369 -0.2806
   61SAPC  H16R 4781   4.461   2.903   9.216 -0.0218 -0.8095  2.1191
   61SAPC  H16S 4782   4.616   2.938   9.284 -0.1766  1.8303  0.1904
   61SAPC  C217 4783   4.580   3.020   9.075 -1.1505 -0.7080 -0.1992
   61SAPC  H17R 4784   4.502   3.081   9.025  1.3843  1.6252 -1.6501
   61SAPC  H17S 4785   4.605   2.929   9.016 -0.1556  0.4658 -1.6888
   61SAPC  C218 4786   4.695   3.125   9.067  0.2143  0.4995 -0.8064
   61SAPC  H18R 4787   4.783   3.084   9.121 -2.0433 -3.5003  0.2182
   61SAPC  H18S 4788   4.655   3.218   9.112  0.2143  1.1701 -2.1398
   61SAPC  C219 4789   4.730   3.161   8.920 -0.5610 -0.3373 -0.5778
   61SAPC  H19R 4790   4.817   3.230   8.912 -0.1829 -0.7874 -0.3824
   61SAPC  H19S 4791   4.642   3.211   8.874 -0.3446 -0.5733 -1.2560
   61SAPC  C220 4792   4.767   3.035   8.841  0.2576  0.2202  1.1296
   61SAPC  H20R 4793   4.667   2.992   8.816  0.5071  0.3161 -0.0646
   61SAPC  H20S 4794   4.826   2.961   8.900  0.1461  0.0895  1.0784
   61SAPC  H20T 4795   4.814   3.063   8.745  0.0690  2.4358  1.6405
   61SAPC   C33 4796   4.893   3.255  10.097 -0.2177 -0.0393 -0.6948
   61SAPC   H3X 4797   4.941   3.343  10.146 -2.0872 -0.3057  1.7442
   61SAPC   H3Y 4798   4.784   3.251  10.117 -0.2465 -2.3915 -1.1163
   61SAPC   C34 4799   4.913   3.265   9.944  0.3283 -0.0910  0.5431
   61SAPC   H4X 4800   4.826   3.324   9.906 -0.1736 -0.2433  1.4354
   61SAPC   H4Y 4801   4.881   3.170   9.896  0.3398  0.0707  0.2108
   61SAPC   C35 4802   5.060   3.298   9.893  0.1081 -0.5363 -0.3326
   61SAPC   H5X 4803   5.110   3.200   9.908 -0.2639 -0.8260 -0.9208
   61SAPC   H5Y 4804   5.110   3.386   9.938 -0.9992  0.1631 -0.4171
   61SAPC   C36 4805   5.058   3.332   9.741  0.0555 -0.0697 -0.5098
   61SAPC   H6X 4806   5.162   3.323   9.702  0.6766  2.4347  0.4131
   61SAPC   H6Y 4807   5.021   3.435   9.728  1.9969  0.6181 -0.9123
   61SAPC   C37 4808   4.977   3.226   9.658  0.2704 -0.1728  0.6893
   61SAPC   H7X 4809   4.872   3.205   9.689 -0.9321  0.5524 -2.5384
   61SAPC   H7Y 4810   5.044   3.137   9.652  1.1010  0.4976 -0.5076
   61SAPC   C38 4811   4.977   3.265   9.504 -0.1181  0.2820 -0.2039
   61SAPC   H8X 4812   5.024   3.364   9.485 -2.7789  1.3470 -1.7596
   61SAPC   H8Y 4813   4.871   3.265   9.472 -0.1736 -0.2214 -0.0297
   61SAPC   C39 4814   5.060   3.163   9.416 -0.8149 -0.1267 -0.2110
   61SAPC   H9X 4815   5.031   3.057   9.431 -1.6008 -0.0524 -1.1297
   61SAPC   H9Y 4816   5.163   3.167   9.457 -0.0066  0.7032 -2.1994
   61SAPC  C310 4817   5.048   3.200   9.272  0.1451 -0.1878 -0.6540
   61SAPC  H10X 4818   5.080   3.301   9.239 -1.1026  0.5533  0.2850
   61SAPC  H10Y 4819   4.945   3.195   9.230 -0.2667  2.9513 -0.2302
   61SAPC  C311 4820   5.127   3.102   9.189 -0.1022  0.0944  0.4740
   61SAPC  H11X 4821   5.102   2.995   9.205  0.1232 -0.3364 -1.7452
   61SAPC  H11Y 4822   5.232   3.111   9.223  0.3618  2.2346 -1.2981
   61SAPC  C312 4823   5.132   3.147   9.046 -0.3407  0.3873  0.5889
   61SAPC  H12X 4824   5.181   3.244   9.023 -0.9664  0.8115  1.0275
   61SAPC  H12Y 4825   5.030   3.154   9.002 -0.0523  2.8924  0.1766
   61SAPC  C313 4826   5.205   3.047   8.954 -0.4950 -0.1212  0.1763
   61SAPC  H13X 4827   5.195   2.951   9.010 -1.3090 -0.8443 -1.1492
   61SAPC  H13Y 4828   5.310   3.082   8.958 -1.1373  1.8630  2.0632
   61SAPC  C314 4829   5.133   3.033   8.817 -0.0552 -0.3626  0.2978
   61SAPC  H14X 4830   5.114   3.140   8.795 -1.1604 -0.4458  0.7373
   61SAPC  H14Y 4831   5.032   2.988   8.832 -0.9539  1.2165 -0.7045
   61SAPC  C315 4832   5.212   2.962   8.710  0.1557  0.3719 -0.0710
   61SAPC  H15X 4833   5.202   2.852   8.726  2.7435 -0.0374 -0.8444
   61SAPC  H15Y 4834   5.319   2.990   8.716 -0.2154  1.9852 -0.5758
   61SAPC  C316 4835   5.169   2.990   8.564 -0.2447  0.4574 -0.8487
   61SAPC  H16X 4836   5.192   3.096   8.544 -0.6210  0.6744 -0.1526
   61SAPC  H16Y 4837   5.058   2.984   8.560 -0.1797 -0.5446 -1.8430
   61SAPC  C317 4838   5.228   2.894   8.455 -0.4951 -0.2420 -0.1665
   61SAPC  H17X 4839   5.176   2.922   8.362  2.0891  2.7030 -0.9165
   61SAPC  H17Y 4840   5.190   2.792   8.478  1.3234 -0.9888 -0.2769
   61SAPC  C318 4841   5.379   2.898   8.456  0.0137 -0.4171  0.3383
   61SAPC  H18X 4842   5.417   3.003   8.459 -0.6351 -0.1478 -0.4918
   61SAPC  H18Y 4843   5.430   2.850   8.370  1.6314  1.9845 -0.1668
   61SAPC  H18Z 4844   5.424   2.857   8.548 -0.6794 -0.6705  0.5697
   62SAPC     N 4845   2.447   2.922  10.788  0.2570  0.1335  0.0615
   62SAPC   C12 4846   2.501   2.785  10.816 -0.2222  0.0415  0.6074
   62SAPC  H12A 4847   2.420   2.725  10.854  0.0362  0.3429  1.6696
   62SAPC  H12B 4848   2.582   2.789  10.886  0.4404  0.3609 -0.1559
   62SAPC   C13 4849   2.370   2.980  10.904  0.1402 -0.1709  0.3531
   62SAPC  H13A 4850   2.350   3.086  10.893  2.7812  0.3725  0.1751
   62SAPC  H13B 4851   2.279   2.922  10.914 -1.7920  2.6355  0.4540
   62SAPC  H13C 4852   2.426   2.981  10.996 -1.7744 -1.5580  1.6121
   62SAPC   C14 4853   2.552   3.020  10.759 -0.3301  0.0201  0.4419
   62SAPC  H14A 4854   2.515   3.121  10.754  0.6150  0.4781  1.9531
   62SAPC  H14B 4855   2.632   3.022  10.832  2.1284  1.2245 -2.1279
   62SAPC  H14C 4856   2.602   2.999  10.666  2.7407  0.3178  1.9069
   62SAPC   C15 4857   2.364   2.917  10.660  0.2577 -0.0163 -0.2094
   62SAPC  H15A 4858   2.280   2.858  10.694 -0.5316  1.4357  0.4814
   62SAPC  H15B 4859   2.331   3.017  10.635 -1.2573 -0.3926  0.1720
   62SAPC  H15C 4860   2.413   2.881  10.571  0.4763 -1.3294  0.4234
   62SAPC   C11 4861   2.568   2.710  10.697  0.1419 -0.4425 -0.4993
   62SAPC  H11A 4862   2.646   2.644  10.742  1.5102  2.0445  0.9627
   62SAPC  H11B 4863   2.631   2.781  10.638  1.6712 -1.2401  0.1232
   62SAPC     P 4864   2.387   2.526  10.677 -0.0082 -0.3407  0.5724
   62SAPC   O13 4865   2.469   2.439  10.762 -0.0034  0.0603  0.0518
   62SAPC   O14 4866   2.270   2.573  10.747  0.1199  0.0171  0.3732
   62SAPC   O12 4867   2.479   2.643  10.615  0.0364 -0.5640 -0.3668
   62SAPC   O11 4868   2.333   2.458  10.544  0.2840 -0.5030  0.2874
   62SAPC    C1 4869   2.279   2.547  10.436 -0.2632  0.2613 -0.1000
   62SAPC    HA 4870   2.174   2.515  10.421 -0.3167  0.9383 -1.3298
   62SAPC    HB 4871   2.274   2.655  10.460 -0.7622  0.0741  0.6817
   62SAPC    C2 4872   2.360   2.538  10.303 -0.1329  0.7632  0.2468
   62SAPC    HS 4873   2.437   2.619  10.300 -0.7024  1.4016  1.8034
   62SAPC   O21 4874   2.271   2.543  10.193  0.3744 -0.3165 -0.0204
   62SAPC   C21 4875   2.261   2.668  10.147  0.6026 -0.3496  0.5927
   62SAPC   O22 4876   2.313   2.771  10.183 -0.6779  0.1697 -0.7459
   62SAPC   C22 4877   2.167   2.667  10.035 -0.6036  0.1464 -0.0183
   62SAPC   H2R 4878   2.068   2.636  10.076  0.1999 -1.4375  0.7939
   62SAPC   H2S 4879   2.139   2.766   9.992 -1.4925  0.0775  0.3805
   62SAPC    C3 4880   2.438   2.402  10.295  0.3493  0.6084  0.0296
   62SAPC    HX 4881   2.369   2.323  10.331 -0.4237  1.3026  0.1106
   62SAPC    HY 4882   2.513   2.413  10.377  1.1325 -2.8071 -0.0758
   62SAPC   O31 4883   2.495   2.370  10.173  0.0110 -0.0275  0.3748
   62SAPC   C31 4884   2.435   2.281  10.093 -0.2511  0.6698 -0.3033
   62SAPC   O32 4885   2.319   2.250  10.102 -0.1667 -0.5724 -0.4294
   62SAPC   C32 4886   2.533   2.232   9.981 -0.1898 -0.3668 -0.1937
   62SAPC   H2X 4887   2.485   2.236   9.881  2.2965  1.6679 -1.4330
   62SAPC   H2Y 4888   2.562   2.127  10.004  0.2570  0.1858  1.9866
   62SAPC   C23 4889   2.200   2.559   9.922 -1.0423 -0.4360  0.0395
   62SAPC   H3R 4890   2.113   2.546   9.853 -1.3655  2.3250 -0.2057
   62SAPC   H3S 4891   2.219   2.460   9.968  1.0327  0.3239  0.9265
   62SAPC   C24 4892   2.325   2.593   9.837  0.3726  0.1818  0.0892
   62SAPC   H4R 4893   2.350   2.497   9.786  1.4494  0.8772 -0.7313
   62SAPC   H4S 4894   2.415   2.601   9.901  0.5636 -0.1912 -0.1320
   62SAPC   C25 4895   2.326   2.716   9.739 -0.8479 -0.0615 -0.5065
   62SAPC   H5R 4896   2.318   2.813   9.789 -3.9928  0.6719 -2.1444
   62SAPC   C26 4897   2.344   2.703   9.607  0.0607 -0.0466  0.8272
   62SAPC   H6R 4898   2.344   2.799   9.553  0.0900 -0.3291  0.3130
   62SAPC   C27 4899   2.376   2.580   9.522  0.4200  0.3967  0.0675
   62SAPC   H7R 4900   2.385   2.486   9.581  0.1238  0.3338  0.0129
   62SAPC   H7S 4901   2.466   2.605   9.462  0.6894 -1.5128 -0.3816
   62SAPC   C28 4902   2.260   2.548   9.423 -0.7091  0.1218  0.2558
   62SAPC   H8R 4903   2.174   2.500   9.473 -1.5541  1.8833  0.5643
   62SAPC   C29 4904   2.258   2.560   9.288  0.1166 -0.1822 -0.0749
   62SAPC   H9R 4905   2.167   2.521   9.240 -2.0476  0.9461  2.8170
   62SAPC  C210 4906   2.368   2.617   9.198 -0.1037 -0.0210  0.4610
   62SAPC  H10R 4907   2.446   2.677   9.250  2.0107 -0.2546 -2.2321
   62SAPC  H10S 4908   2.327   2.693   9.129  1.3853 -0.2992 -0.7863
   62SAPC  C211 4909   2.432   2.509   9.115 -0.3843 -0.1784 -0.0022
   62SAPC  H11R 4910   2.519   2.472   9.171  0.1880  1.2844  0.1381
   62SAPC  C212 4911   2.398   2.466   8.994  0.3272  0.4555  0.9801
   62SAPC  H12R 4912   2.455   2.380   8.956  0.4887  1.1413 -0.4017
   62SAPC  C213 4913   2.282   2.510   8.915 -0.5660 -0.5012 -0.6663
   62SAPC  H13R 4914   2.267   2.619   8.931 -0.8909 -0.8014  1.3736
   62SAPC  H13S 4915   2.198   2.474   8.979  0.7933 -1.4591  0.6255
   62SAPC  C214 4916   2.260   2.468   8.776 -0.2217  0.1074  0.2136
   62SAPC  H14R 4917   2.309   2.372   8.753 -0.6535 -1.0615  3.5648
   62SAPC  C215 4918   2.180   2.528   8.679 -0.1493  0.2821  1.3920
   62SAPC  H15R 4919   2.165   2.477   8.583 -0.7029  0.5579  1.3283
   62SAPC  C216 4920   2.096   2.653   8.701  0.7758 -0.3448 -0.6895
   62SAPC  H16R 4921   2.126   2.702   8.797 -0.3892 -1.4042  0.2539
   62SAPC  H16S 4922   1.994   2.613   8.717  0.9523 -0.3725  0.4499
   62SAPC  C217 4923   2.110   2.746   8.576 -0.2762 -0.6862  0.3268
   62SAPC  H17R 4924   2.204   2.742   8.517 -0.9353  3.2648 -1.2793
   62SAPC  H17S 4925   2.082   2.851   8.597  0.1797 -0.1577 -1.5191
   62SAPC  C218 4926   2.001   2.698   8.475  0.3442  0.1652  0.7852
   62SAPC  H18R 4927   1.905   2.696   8.529 -1.9785 -1.0569 -2.9541
   62SAPC  H18S 4928   2.010   2.593   8.438 -1.2252  0.0011  0.8108
   62SAPC  C219 4929   2.001   2.786   8.347 -0.2148 -0.1040  0.0693
   62SAPC  H19R 4930   2.108   2.791   8.317  0.1743 -0.4008  1.3810
   62SAPC  H19S 4931   1.984   2.894   8.367 -1.3305 -0.2862  0.1605
   62SAPC  C220 4932   1.920   2.736   8.230 -0.5208 -0.0859 -0.5490
   62SAPC  H20R 4933   1.944   2.634   8.193 -1.9969 -1.2834  1.5669
   62SAPC  H20S 4934   1.935   2.798   8.139  0.8978 -2.8704 -2.3791
   62SAPC  H20T 4935   1.811   2.740   8.250 -1.0666 -1.1764 -2.8617
   62SAPC   C33 4936   2.655   2.326   9.968 -0.4648 -0.3094  0.2592
   62SAPC   H3X 4937   2.720   2.333  10.058  0.5681 -1.6509 -0.3531
   62SAPC   H3Y 4938   2.615   2.428   9.946 -1.8829 -1.1756 -1.4025
   62SAPC   C34 4939   2.754   2.287   9.852  0.3791 -0.0605  0.2553
   62SAPC   H4X 4940   2.760   2.176   9.861  1.9846  0.1287  2.0550
   62SAPC   H4Y 4941   2.857   2.327   9.867  0.6613 -0.8184  0.3715
   62SAPC   C35 4942   2.708   2.330   9.713 -0.3331  0.1470 -0.9008
   62SAPC   H5X 4943   2.718   2.439   9.691 -0.3777  0.1432 -0.9393
   62SAPC   H5Y 4944   2.599   2.308   9.716  0.0747 -2.3662 -2.1118
   62SAPC   C36 4945   2.766   2.247   9.602 -0.0878  0.1462  0.6575
   62SAPC   H6X 4946   2.747   2.141   9.629 -1.5439  0.1051 -0.3889
   62SAPC   H6Y 4947   2.870   2.288   9.601 -0.9355  2.5218  2.5830
   62SAPC   C37 4948   2.700   2.262   9.463 -0.1913 -0.0812 -0.2679
   62SAPC   H7X 4949   2.678   2.370   9.448 -0.0528  0.1187  0.8744
   62SAPC   H7Y 4950   2.600   2.214   9.473 -0.9991  1.3432 -1.2174
   62SAPC   C38 4951   2.795   2.201   9.357 -0.2921 -0.0544  0.2981
   62SAPC   H8X 4952   2.797   2.092   9.379 -1.0607  0.4545  3.3582
   62SAPC   H8Y 4953   2.897   2.238   9.382  0.5545  0.5591 -3.5251
   62SAPC   C39 4954   2.775   2.238   9.207  0.5098 -0.3610  0.9410
   62SAPC   H9X 4955   2.798   2.345   9.189  0.0778 -0.2900  0.7924
   62SAPC   H9Y 4956   2.668   2.223   9.180  0.5360  0.0182  0.6210
   62SAPC  C310 4957   2.854   2.142   9.119 -0.0471  0.4546  0.2893
   62SAPC  H10X 4958   2.821   2.038   9.141 -2.0467  1.2945  1.5637
   62SAPC  H10Y 4959   2.960   2.152   9.151  0.6262 -0.7930 -1.4365
   62SAPC  C311 4960   2.845   2.177   8.968  0.4607  0.0863  0.3845
   62SAPC  H11X 4961   2.932   2.119   8.929  0.3808 -0.2407  0.6839
   62SAPC  H11Y 4962   2.867   2.285   8.954  0.2262  0.0793 -0.0538
   62SAPC  C312 4963   2.718   2.135   8.904  0.2722  0.2829 -0.0599
   62SAPC  H12X 4964   2.650   2.217   8.937  1.9850  1.4281  0.7688
   62SAPC  H12Y 4965   2.679   2.040   8.945 -0.2864  1.3431  1.9763
   62SAPC  C313 4966   2.727   2.117   8.744  0.4429  0.5766 -0.6047
   62SAPC  H13X 4967   2.630   2.090   8.696  0.7058  1.4131 -1.6326
   62SAPC  H13Y 4968   2.802   2.036   8.733 -1.0943 -0.7435 -1.9650
   62SAPC  C314 4969   2.775   2.237   8.670 -0.0979  0.3047  0.3868
   62SAPC  H14X 4970   2.870   2.259   8.724  0.4632  3.1834 -1.5456
   62SAPC  H14Y 4971   2.701   2.319   8.680  0.3652  1.0236 -1.6593
   62SAPC  C315 4972   2.803   2.197   8.529 -0.4127 -0.4150  0.8126
   62SAPC  H15X 4973   2.708   2.162   8.482 -0.2413 -1.6039  1.3172
   62SAPC  H15Y 4974   2.873   2.112   8.540 -0.1888 -0.2686  0.5357
   62SAPC  C316 4975   2.843   2.309   8.437 -0.2199 -0.6257 -0.3417
   62SAPC  H16X 4976   2.916   2.370   8.493  0.4838 -0.6056 -1.2523
   62SAPC  H16Y 4977   2.755   2.376   8.423 -0.4475 -0.7615  0.4382
   62SAPC  C317 4978   2.889   2.264   8.300 -0.2823  0.2889 -0.7044
   62SAPC  H17X 4979   2.800   2.217   8.252  0.7651 -0.3033 -2.1476
   62SAPC  H17Y 4980   2.962   2.181   8.309 -0.6019  0.0484 -0.2834
   62SAPC  C318 4981   2.927   2.379   8.208  0.3873 -0.3649 -0.5847
   62SAPC  H18X 4982   2.949   2.345   8.105  0.8053  1.8112 -1.2567
   62SAPC  H18Y 4983   3.018   2.424   8.253 -0.3591 -0.4105  1.0399
   62SAPC  H18Z 4984   2.842   2.450   8.209  3.3185  3.4373 -1.1312
   63SAPC     N 4985   6.532   0.636   6.228 -0.4596  0.5858 -0.7138
   63SAPC   C12 4986   6.616   0.528   6.290  0.1628  0.1511  0.5768
   63SAPC  H12A 4987   6.671   0.469   6.219 -1.6066  2.6472 -3.2562
   63SAPC  H12B 4988   6.554   0.457   6.343  0.2714 -0.3358  0.0525
   63SAPC   C13 4989   6.469   0.721   6.331  0.1715 -0.4276 -0.6055
   63SAPC  H13A 4990   6.543   0.771   6.391  0.5849 -1.3891 -0.2950
   63SAPC  H13B 4991   6.404   0.800   6.296  0.4550  0.0439 -0.0889
   63SAPC  H13C 4992   6.407   0.656   6.391  0.9757 -2.3364 -1.7350
   63SAPC   C14 4993   6.625   0.713   6.143  0.0330 -0.5517  0.4469
   63SAPC  H14A 4994   6.624   0.668   6.045 -2.4964 -2.7703  1.3504
   63SAPC  H14B 4995   6.574   0.807   6.129  1.0088 -0.0743  0.0172
   63SAPC  H14C 4996   6.723   0.727   6.185  0.1964  0.1816 -0.1597
   63SAPC   C15 4997   6.422   0.562   6.154 -0.2618 -0.2918  0.2133
   63SAPC  H15A 4998   6.460   0.478   6.098 -0.0294 -0.3582  0.4674
   63SAPC  H15B 4999   6.351   0.520   6.224 -0.8855 -2.0497 -1.4004
   63SAPC  H15C 5000   6.362   0.622   6.088 -1.2073 -1.6044 -0.1466
   63SAPC   C11 5001   6.720   0.569   6.395  0.6111 -0.0473  0.1629
   63SAPC  H11A 5002   6.763   0.476   6.439  1.5524  1.4122  2.5437
   63SAPC  H11B 5003   6.677   0.628   6.479 -0.9411  2.0333 -1.9639
   63SAPC     P 5004   6.957   0.578   6.291 -0.5028 -0.1262  0.1548
   63SAPC   O13 5005   6.917   0.482   6.185  0.5146 -0.0670  0.1541
   63SAPC   O14 5006   7.046   0.686   6.234  0.6881  0.2459 -0.1458
   63SAPC   O12 5007   6.822   0.652   6.340  0.1246  0.1806  0.0179
   63SAPC   O11 5008   7.027   0.504   6.410  0.6612  0.1664 -0.0631
   63SAPC    C1 5009   7.090   0.562   6.518 -0.3528 -0.6548 -0.2731
   63SAPC    HA 5010   7.162   0.488   6.560  2.1440  1.3007 -0.8660
   63SAPC    HB 5011   7.160   0.638   6.480 -0.4805  0.4207  1.5096
   63SAPC    C2 5012   7.003   0.617   6.629 -0.5661  0.2453  0.2198
   63SAPC    HS 5013   6.914   0.552   6.636 -1.3709  1.3486  0.6061
   63SAPC   O21 5014   6.993   0.758   6.597 -0.6897  0.0442 -0.4746
   63SAPC   C21 5015   6.885   0.816   6.631  0.4449 -0.1915 -0.7365
   63SAPC   O22 5016   6.794   0.775   6.699 -0.0269  0.5824  0.5750
   63SAPC   C22 5017   6.876   0.957   6.567  0.1286 -0.0063  0.4488
   63SAPC   H2R 5018   6.814   0.936   6.477  0.8481 -0.3857  0.0341
   63SAPC   H2S 5019   6.812   1.026   6.627 -2.0325 -1.4774 -0.0129
   63SAPC    C3 5020   7.075   0.599   6.763  0.1402 -0.0610 -0.2345
   63SAPC    HX 5021   7.176   0.644   6.752 -0.1953  1.0991  1.1770
   63SAPC    HY 5022   7.094   0.490   6.777  1.2089 -0.0594 -1.4982
   63SAPC   O31 5023   7.008   0.664   6.872 -0.4765  0.2990  0.1113
   63SAPC   C31 5024   6.924   0.597   6.953 -0.5714  0.0420  0.3294
   63SAPC   O32 5025   6.908   0.478   6.954 -0.4524  0.2619  0.7431
   63SAPC   C32 5026   6.864   0.684   7.058  0.0958 -0.6344  0.0662
   63SAPC   H2X 5027   6.828   0.768   6.996  1.5097 -0.6115 -0.7702
   63SAPC   H2Y 5028   6.953   0.710   7.119  0.4079 -2.5663  0.5008
   63SAPC   C23 5029   6.995   1.022   6.501  0.0125 -0.1497 -0.0762
   63SAPC   H3R 5030   6.958   1.106   6.438  2.0830  0.1848 -0.9305
   63SAPC   H3S 5031   7.041   0.955   6.425 -0.1750 -2.5744  1.8161
   63SAPC   C24 5032   7.098   1.072   6.601 -0.7334 -0.0339 -0.6582
   63SAPC   H4R 5033   7.186   1.109   6.544 -1.4196  3.1463  0.1189
   63SAPC   H4S 5034   7.145   0.990   6.660 -0.6956  1.0835  0.9405
   63SAPC   C25 5035   7.046   1.181   6.685  0.2868 -0.4754 -0.5016
   63SAPC   H5R 5036   7.043   1.276   6.629  1.9534 -1.0153 -1.5947
   63SAPC   C26 5037   6.997   1.172   6.810  0.2334 -0.4270  0.1662
   63SAPC   H6R 5038   6.965   1.268   6.854  1.7988  0.7373 -1.1178
   63SAPC   C27 5039   6.988   1.058   6.901  0.1582 -0.0407 -0.1063
   63SAPC   H7R 5040   7.075   1.050   6.970 -1.0756  0.2427  1.5389
   63SAPC   H7S 5041   7.002   0.959   6.851  0.7445  0.7887 -1.6674
   63SAPC   C28 5042   6.856   1.055   6.986  0.3049  0.0233  0.3295
   63SAPC   H8R 5043   6.774   0.997   6.942 -0.7815  0.2383  1.9884
   63SAPC   C29 5044   6.836   1.111   7.113  0.2116  0.5296  0.5376
   63SAPC   H9R 5045   6.741   1.091   7.164  1.4967  0.9953  3.2483
   63SAPC  C210 5046   6.945   1.187   7.192  0.3200  0.4798  0.0799
   63SAPC  H10R 5047   7.018   1.235   7.122 -1.1715 -0.5580 -2.3114
   63SAPC  H10S 5048   7.009   1.120   7.254 -0.4259  0.2263  0.5815
   63SAPC  C211 5049   6.883   1.291   7.282 -0.4056  0.3295 -0.3798
   63SAPC  H11R 5050   6.825   1.374   7.240 -0.4731  1.1123  1.1999
   63SAPC  C212 5051   6.888   1.292   7.415 -1.0142  0.7058  0.6078
   63SAPC  H12R 5052   6.840   1.383   7.455 -0.8293  2.1927 -2.3041
   63SAPC  C213 5053   6.948   1.192   7.513 -0.0104  0.0214 -0.5409
   63SAPC  H13R 5054   6.904   1.090   7.516  2.6788 -1.1932  0.6184
   63SAPC  H13S 5055   6.924   1.242   7.610 -2.1088  1.0166 -1.5047
   63SAPC  C214 5056   7.099   1.185   7.514  0.0477  0.3761 -0.3907
   63SAPC  H14R 5057   7.152   1.185   7.418  0.3056 -0.7706 -0.2630
   63SAPC  C215 5058   7.177   1.175   7.618  0.3956 -0.3791 -0.4234
   63SAPC  H15R 5059   7.285   1.167   7.599  0.8402  1.3708  1.0947
   63SAPC  C216 5060   7.152   1.180   7.767  0.2564  0.4649  0.0021
   63SAPC  H16R 5061   7.087   1.268   7.788  0.9256  0.7095  1.1281
   63SAPC  H16S 5062   7.256   1.179   7.807  1.4275 -0.7801 -2.8078
   63SAPC  C217 5063   7.085   1.050   7.803 -0.2567 -0.2417  0.5499
   63SAPC  H17R 5064   7.145   0.961   7.776 -1.3198 -0.3646 -1.5837
   63SAPC  H17S 5065   6.989   1.035   7.750  0.6741 -3.1971 -0.5079
   63SAPC  C218 5066   7.054   1.031   7.957 -0.8136  0.2448  0.0041
   63SAPC  H18R 5067   7.026   0.924   7.973  0.9058 -0.0122  1.6375
   63SAPC  H18S 5068   6.965   1.091   7.985 -0.7680  0.9526 -1.2710
   63SAPC  C219 5069   7.178   1.047   8.055  0.1831  0.1957 -0.4053
   63SAPC  H19R 5070   7.209   1.150   8.029 -1.8688  0.9442 -0.0867
   63SAPC  H19S 5071   7.251   0.971   8.020  0.4510  1.0193 -1.7057
   63SAPC  C220 5072   7.163   1.046   8.207  0.0640  0.9424 -0.4202
   63SAPC  H20R 5073   7.110   1.135   8.247 -2.3111 -0.8112  0.6289
   63SAPC  H20S 5074   7.259   1.035   8.261 -0.2318 -1.6667 -0.2988
   63SAPC  H20T 5075   7.106   0.956   8.239  1.3736  0.5278  0.8132
   63SAPC   C33 5076   6.745   0.631   7.131 -0.1419 -0.4713 -0.1899
   63SAPC   H3X 5077   6.774   0.541   7.190 -0.2189  1.3272  2.8044
   63SAPC   H3Y 5078   6.667   0.599   7.059 -0.7913  0.8603 -0.1141
   63SAPC   C34 5079   6.700   0.724   7.246 -0.4703 -0.1429  0.4344
   63SAPC   H4X 5080   6.591   0.700   7.248 -0.7091  0.6822 -1.2635
   63SAPC   H4Y 5081   6.719   0.833   7.238  2.1167 -0.5367  0.2788
   63SAPC   C35 5082   6.758   0.671   7.381  0.2416  0.4206  0.2304
   63SAPC   H5X 5083   6.867   0.694   7.375  0.2901  0.1110 -0.1656
   63SAPC   H5Y 5084   6.744   0.561   7.388 -2.2953  0.6007 -0.9249
   63SAPC   C36 5085   6.698   0.752   7.493  0.6607  0.1753 -0.4852
   63SAPC   H6X 5086   6.587   0.752   7.482  0.6036  2.2646 -0.1356
   63SAPC   H6Y 5087   6.734   0.856   7.485 -1.0339  0.7042 -1.8034
   63SAPC   C37 5088   6.726   0.696   7.630 -0.2032 -0.1633 -1.2585
   63SAPC   H7X 5089   6.678   0.596   7.629  1.0987 -0.8130 -0.7235
   63SAPC   H7Y 5090   6.669   0.756   7.704  0.0074  1.0361 -2.0485
   63SAPC   C38 5091   6.874   0.697   7.656  0.1471  0.7483 -0.4396
   63SAPC   H8X 5092   6.896   0.797   7.701  2.6499 -0.1737  0.5873
   63SAPC   H8Y 5093   6.934   0.690   7.563 -0.2751  0.9604 -0.7314
   63SAPC   C39 5094   6.927   0.610   7.774  0.0623 -0.1974 -0.0388
   63SAPC   H9X 5095   7.035   0.638   7.779 -0.2590  2.0016 -2.7240
   63SAPC   H9Y 5096   6.924   0.502   7.746  0.2632 -0.0683 -0.5817
   63SAPC  C310 5097   6.860   0.652   7.903 -0.2062 -0.1228 -1.0290
   63SAPC  H10X 5098   6.757   0.609   7.903 -0.3468  0.1892 -1.9916
   63SAPC  H10Y 5099   6.850   0.763   7.910 -1.1332 -0.3072  1.7162
   63SAPC  C311 5100   6.928   0.612   8.038 -0.4423  0.4322  0.1403
   63SAPC  H11X 5101   7.030   0.657   8.037 -0.4688  0.5818 -2.5976
   63SAPC  H11Y 5102   6.927   0.501   8.034  2.2183  0.3556  0.0391
   63SAPC  C312 5103   6.856   0.678   8.159 -0.7110  0.5357 -0.6615
   63SAPC  H12X 5104   6.837   0.784   8.132 -2.3187  0.3595 -0.3071
   63SAPC  H12Y 5105   6.923   0.663   8.246 -2.5869 -1.8845  0.4924
   63SAPC  C313 5106   6.724   0.605   8.186  0.3701  0.6366  0.2546
   63SAPC  H13X 5107   6.743   0.501   8.222 -0.5206 -0.0643 -1.1592
   63SAPC  H13Y 5108   6.667   0.591   8.091  0.8317 -3.3068  0.3780
   63SAPC  C314 5109   6.628   0.680   8.283  0.3443 -0.0112 -0.0121
   63SAPC  H14X 5110   6.625   0.788   8.259 -1.6600  0.0231  0.2167
   63SAPC  H14Y 5111   6.670   0.677   8.385  2.1417 -2.6700 -0.7236
   63SAPC  C315 5112   6.485   0.632   8.268  0.1964 -0.6876 -0.0613
   63SAPC  H15X 5113   6.470   0.625   8.158 -1.6351 -1.9629  0.2425
   63SAPC  H15Y 5114   6.424   0.713   8.314  0.2140 -0.2367 -0.8076
   63SAPC  C316 5115   6.452   0.503   8.353 -1.1030 -0.0113  0.5797
   63SAPC  H16X 5116   6.479   0.522   8.459 -1.0629  1.3701  0.3402
   63SAPC  H16Y 5117   6.505   0.412   8.318  0.4300  1.0407  0.0733
   63SAPC  C317 5118   6.297   0.471   8.352 -0.2044 -0.1729  0.3081
   63SAPC  H17X 5119   6.266   0.451   8.247 -1.3017  0.6281  0.4563
   63SAPC  H17Y 5120   6.239   0.556   8.395 -1.8480  0.5644 -3.0287
   63SAPC  C318 5121   6.267   0.354   8.449 -0.5396 -0.0126 -0.1926
   63SAPC  H18X 5122   6.321   0.269   8.403  1.9126  0.8357  0.9519
   63SAPC  H18Y 5123   6.160   0.327   8.461 -0.1833 -0.6021  2.3497
   63SAPC  H18Z 5124   6.312   0.379   8.548  0.0622  0.6486 -0.6233
   64SAPC     N 5125   2.118   6.794   5.766  0.6890 -0.1809 -0.1418
   64SAPC   C12 5126   2.199   6.914   5.811  0.8669  0.4037  0.0716
   64SAPC  H12A 5127   2.174   6.998   5.748  0.7278  0.4245  0.1538
   64SAPC  H12B 5128   2.304   6.893   5.803  0.8223 -0.1134  0.7850
   64SAPC   C13 5129   2.163   6.750   5.634 -0.3632  0.1092  0.1836
   64SAPC  H13A 5130   2.121   6.658   5.597  2.1745 -0.4920 -1.4982
   64SAPC  H13B 5131   2.158   6.829   5.560 -0.2090 -1.3173 -1.4164
   64SAPC  H13C 5132   2.270   6.731   5.634 -0.7642 -2.8127 -1.5018
   64SAPC   C14 5133   2.137   6.687   5.873 -0.0619 -0.4042  0.8149
   64SAPC  H14A 5134   2.072   6.602   5.858  0.6887 -0.8640  0.1093
   64SAPC  H14B 5135   2.236   6.644   5.872  0.0629 -0.1052  0.5332
   64SAPC  H14C 5136   2.107   6.734   5.966  1.0928 -0.4970  1.2489
   64SAPC   C15 5137   1.970   6.829   5.752 -0.1970 -0.0625 -0.0706
   64SAPC  H15A 5138   1.927   6.851   5.849  0.9750 -1.7854  0.8999
   64SAPC  H15B 5139   1.956   6.915   5.689 -0.5118 -1.4371 -1.9618
   64SAPC  H15C 5140   1.917   6.755   5.694 -3.9790 -0.4253  3.3614
   64SAPC   C11 5141   2.173   6.950   5.960 -0.3352  0.3184  0.2926
   64SAPC  H11A 5142   2.237   7.037   5.984  0.7819 -0.5342  0.4810
   64SAPC  H11B 5143   2.213   6.869   6.025  1.5404  1.2104  0.3164
   64SAPC     P 5144   1.970   7.112   6.004 -0.8599 -0.0211  0.0160
   64SAPC   O13 5145   2.019   7.216   5.915  0.3815 -0.2166  0.3761
   64SAPC   O14 5146   1.826   7.089   5.995 -0.5187  0.1867  0.3500
   64SAPC   O12 5147   2.038   6.975   5.994 -0.7098 -0.1801 -0.2798
   64SAPC   O11 5148   2.017   7.151   6.152  0.0191 -1.2098  0.0925
   64SAPC    C1 5149   1.983   7.072   6.262  0.2362  0.8678 -0.0806
   64SAPC    HA 5150   1.881   7.031   6.252 -0.4101  1.6991  2.5147
   64SAPC    HB 5151   2.055   6.987   6.262  3.0298  3.0406 -1.6346
   64SAPC    C2 5152   1.977   7.151   6.387  0.3917  0.6410 -0.3883
   64SAPC    HS 5153   1.896   7.225   6.376 -2.3530 -2.1184 -0.0220
   64SAPC   O21 5154   2.110   7.201   6.414  0.3777 -0.1241 -0.5264
   64SAPC   C21 5155   2.136   7.325   6.385  0.2623 -0.6714 -0.4590
   64SAPC   O22 5156   2.055   7.412   6.370 -0.1418 -0.1396  0.5581
   64SAPC   C22 5157   2.285   7.337   6.383  0.5777  0.4187 -0.0983
   64SAPC   H2R 5158   2.322   7.280   6.471 -0.2951  1.7854  1.2076
   64SAPC   H2S 5159   2.326   7.290   6.291 -0.0290  0.6668 -0.5092
   64SAPC    C3 5160   1.941   7.045   6.500 -0.1425 -0.1470  0.3465
   64SAPC    HX 5161   1.987   6.948   6.470 -0.5595 -0.3504  0.3554
   64SAPC    HY 5162   1.832   7.028   6.493  0.1499 -1.9575 -0.3518
   64SAPC   O31 5163   1.973   7.074   6.633 -0.1437 -0.1546 -0.1820
   64SAPC   C31 5164   2.091   7.036   6.681  1.0505  0.3963 -0.6240
   64SAPC   O32 5165   2.184   6.983   6.632 -0.3007  0.0496  0.0154
   64SAPC   C32 5166   2.079   7.067   6.828 -0.8262  0.2027 -0.2350
   64SAPC   H2X 5167   2.075   7.177   6.843 -0.5639  0.1161  0.4777
   64SAPC   H2Y 5168   2.169   7.022   6.873  0.3781  1.1214 -1.6230
   64SAPC   C23 5169   2.340   7.482   6.394  0.4775 -0.3308 -0.3486
   64SAPC   H3R 5170   2.268   7.546   6.339 -0.2741 -0.9542 -0.1048
   64SAPC   H3S 5171   2.437   7.491   6.342  0.6458  2.0796  0.2556
   64SAPC   C24 5172   2.354   7.522   6.544  0.2635 -0.4165  0.0184
   64SAPC   H4R 5173   2.406   7.620   6.549 -0.4536 -0.0797  1.1053
   64SAPC   H4S 5174   2.403   7.438   6.597 -3.0943 -2.6655 -0.1090
   64SAPC   C25 5175   2.215   7.548   6.607  0.1641 -0.2901  0.3889
   64SAPC   H5R 5176   2.139   7.585   6.537  2.4412  0.2194 -1.9872
   64SAPC   C26 5177   2.185   7.522   6.731 -0.2494  0.4660 -0.6368
   64SAPC   H6R 5178   2.082   7.546   6.761  0.6770  1.9118  1.6472
   64SAPC   C27 5179   2.270   7.482   6.850 -0.3712 -0.2486 -0.0677
   64SAPC   H7R 5180   2.373   7.486   6.808 -0.3467  0.5584  0.0608
   64SAPC   H7S 5181   2.249   7.374   6.869 -1.0444 -0.0638  0.2607
   64SAPC   C28 5182   2.257   7.561   6.980  0.6831  0.2497 -0.1186
   64SAPC   H8R 5183   2.276   7.668   6.962 -1.1516  0.0897 -4.0878
   64SAPC   C29 5184   2.234   7.509   7.105  0.0227  0.0084 -0.3710
   64SAPC   H9R 5185   2.223   7.585   7.184 -1.5701 -0.8465  0.2705
   64SAPC  C210 5186   2.204   7.372   7.143  0.2196  0.1888  0.3121
   64SAPC  H10R 5187   2.263   7.353   7.235 -0.6144 -1.1890  0.5960
   64SAPC  H10S 5188   2.226   7.294   7.067 -0.8801  1.5973 -1.5533
   64SAPC  C211 5189   2.051   7.365   7.175  0.1509 -0.1267  0.1496
   64SAPC  H11R 5190   1.998   7.395   7.084  2.2429 -0.0357 -1.1141
   64SAPC  C212 5191   1.994   7.352   7.291  0.5831  0.0574 -0.3018
   64SAPC  H12R 5192   1.886   7.337   7.298  0.7147 -1.0161 -0.4410
   64SAPC  C213 5193   2.066   7.333   7.419 -0.3406 -0.5393 -0.8198
   64SAPC  H13R 5194   2.172   7.362   7.406 -0.0895 -0.8739  0.3659
   64SAPC  H13S 5195   2.073   7.225   7.443  1.0064 -0.5751 -1.2819
   64SAPC  C214 5196   1.995   7.400   7.542  0.0448 -0.4886  0.1516
   64SAPC  H14R 5197   1.899   7.450   7.525 -0.2038 -1.3015 -0.9733
   64SAPC  C215 5198   2.044   7.380   7.669 -0.2035 -0.3249 -0.7942
   64SAPC  H15R 5199   1.981   7.426   7.747  0.4562  2.3006 -1.6977
   64SAPC  C216 5200   2.162   7.304   7.710  0.1271 -0.0015 -0.2533
   64SAPC  H16R 5201   2.257   7.361   7.695  1.2411 -1.3246  1.3955
   64SAPC  H16S 5202   2.182   7.212   7.652  0.1779 -0.6141  0.7179
   64SAPC  C217 5203   2.142   7.248   7.851 -0.2502  0.4881 -0.1272
   64SAPC  H17R 5204   2.213   7.163   7.856 -0.2565  0.5329  0.8197
   64SAPC  H17S 5205   2.043   7.202   7.866  0.2612  0.0185  2.0573
   64SAPC  C218 5206   2.151   7.341   7.970  0.3137 -0.6816 -0.0217
   64SAPC  H18R 5207   2.124   7.294   8.067 -1.4380 -0.2370 -0.2695
   64SAPC  H18S 5208   2.099   7.436   7.943  4.2636  0.7700 -3.7818
   64SAPC  C219 5209   2.297   7.387   7.983 -0.1561  0.7095  0.2908
   64SAPC  H19R 5210   2.336   7.419   7.884 -0.2247 -2.4025 -0.8459
   64SAPC  H19S 5211   2.364   7.301   8.003  1.5689  1.2954 -2.5083
   64SAPC  C220 5212   2.312   7.497   8.090 -0.1688  0.3657  0.4150
   64SAPC  H20R 5213   2.241   7.487   8.175 -1.7213  3.1539 -0.4028
   64SAPC  H20S 5214   2.289   7.597   8.047  0.9612  1.0630  1.3728
   64SAPC  H20T 5215   2.419   7.504   8.119  0.0978  0.9586 -0.6376
   64SAPC   C33 5216   1.962   7.010   6.905  0.4264 -0.3306  0.4135
   64SAPC   H3X 5217   1.934   6.909   6.868  2.3756 -0.7027 -0.1747
   64SAPC   H3Y 5218   1.877   7.080   6.888 -0.4175 -1.0202  1.6671
   64SAPC   C34 5219   1.989   6.991   7.056  0.1598  0.2845  0.1799
   64SAPC   H4X 5220   2.051   7.076   7.091  2.7045 -0.6763 -1.6992
   64SAPC   H4Y 5221   2.057   6.905   7.070  0.5400  0.4203 -0.7730
   64SAPC   C35 5222   1.867   6.995   7.146 -0.0154 -0.0734 -0.0485
   64SAPC   H5X 5223   1.793   6.918   7.115  0.6286 -1.3236  1.3650
   64SAPC   H5Y 5224   1.810   7.090   7.134 -0.1961  0.0211  1.3336
   64SAPC   C36 5225   1.902   6.972   7.297 -0.4515 -0.2677  0.2021
   64SAPC   H6X 5226   1.993   7.031   7.322  0.5222 -1.2503 -0.8794
   64SAPC   H6Y 5227   1.932   6.869   7.328  0.2416 -0.6482 -1.6316
   64SAPC   C37 5228   1.792   7.029   7.389 -0.4593  0.7694 -0.0833
   64SAPC   H7X 5229   1.700   6.966   7.380  0.3049 -0.4054  0.0839
   64SAPC   H7Y 5230   1.765   7.128   7.347 -0.5239  0.3361 -1.0959
   64SAPC   C38 5231   1.838   7.053   7.536  0.0312 -0.2755 -0.3896
   64SAPC   H8X 5232   1.920   7.128   7.546  1.6912 -2.2074  1.6643
   64SAPC   H8Y 5233   1.883   6.963   7.584  1.0688  0.5537  0.2492
   64SAPC   C39 5234   1.716   7.101   7.626 -0.1607  0.6800 -0.0528
   64SAPC   H9X 5235   1.640   7.023   7.605 -0.0687 -0.0458  2.0990
   64SAPC   H9Y 5236   1.679   7.202   7.597  0.2889  1.5817  2.2915
   64SAPC  C310 5237   1.737   7.078   7.773  0.1469 -0.4058 -0.5185
   64SAPC  H10X 5238   1.813   7.156   7.800  2.3802 -3.3071  2.4560
   64SAPC  H10Y 5239   1.780   6.981   7.804 -0.5250 -0.1824  1.2240
   64SAPC  C311 5240   1.614   7.113   7.854  0.2055  0.0744 -0.5596
   64SAPC  H11X 5241   1.529   7.052   7.815 -0.6568 -0.0332  1.3745
   64SAPC  H11Y 5242   1.582   7.217   7.828 -0.3372 -0.2342 -1.1719
   64SAPC  C312 5243   1.617   7.079   8.004  1.1580 -0.1508  0.1726
   64SAPC  H12X 5244   1.622   6.968   8.017 -0.6362 -0.3515 -0.5845
   64SAPC  H12Y 5245   1.514   7.105   8.035  0.5553 -3.6325  1.5555
   64SAPC  C313 5246   1.722   7.163   8.077  0.9943  0.0118 -0.1118
   64SAPC  H13X 5247   1.828   7.137   8.058  0.4173 -4.1429  1.3258
   64SAPC  H13Y 5248   1.709   7.157   8.187 -0.9212 -0.1562 -0.3053
   64SAPC  C314 5249   1.695   7.315   8.056  0.0847 -0.2778 -0.0051
   64SAPC  H14X 5250   1.591   7.331   8.092 -0.1370  0.1405 -0.8049
   64SAPC  H14Y 5251   1.688   7.347   7.949  1.2113  0.7532  0.2076
   64SAPC  C315 5252   1.789   7.420   8.130  0.4328 -0.0282 -0.6305
   64SAPC  H15X 5253   1.828   7.504   8.069  1.7548  0.6868  1.0898
   64SAPC  H15Y 5254   1.867   7.371   8.192 -0.2607 -0.9818 -0.4954
   64SAPC  C316 5255   1.697   7.482   8.232  0.0527 -0.6659  0.2510
   64SAPC  H16X 5256   1.640   7.410   8.295  1.4950 -0.7275  1.5619
   64SAPC  H16Y 5257   1.624   7.552   8.186  2.7934  1.4070 -1.1871
   64SAPC  C317 5258   1.778   7.569   8.329 -0.1459 -0.2243  0.1384
   64SAPC  H17X 5259   1.858   7.499   8.361  0.6011  1.1913  1.5317
   64SAPC  H17Y 5260   1.719   7.605   8.416 -1.0029  0.8061 -0.8270
   64SAPC  C318 5261   1.864   7.684   8.273  0.7269 -0.4786  0.0918
   64SAPC  H18X 5262   1.813   7.753   8.201 -0.4102  1.9383  3.0032
   64SAPC  H18Y 5263   1.959   7.645   8.232  1.4942 -0.2635  1.6274
   64SAPC  H18Z 5264   1.889   7.748   8.360 -0.1984 -0.1322  0.1169
   65SAPC     N 5265   1.759   2.416   5.586 -0.2334 -0.0441  0.7285
   65SAPC   C12 5266   1.727   2.462   5.726  0.1887  0.4649  0.2933
   65SAPC  H12A 5267   1.800   2.415   5.789 -1.0487 -2.9550 -0.5849
   65SAPC  H12B 5268   1.631   2.419   5.751 -0.2218  0.3605 -1.3463
   65SAPC   C13 5269   1.904   2.457   5.557  0.3801  0.8791 -0.1768
   65SAPC  H13A 5270   1.913   2.565   5.548 -1.7616  1.2842  1.6084
   65SAPC  H13B 5271   1.974   2.435   5.636  1.2007 -2.4755 -1.6485
   65SAPC  H13C 5272   1.936   2.416   5.462 -2.9939  0.8204 -1.4172
   65SAPC   C14 5273   1.766   2.270   5.578 -0.3006 -0.2670  0.4016
   65SAPC  H14A 5274   1.680   2.218   5.617 -0.0185 -0.4374  0.7961
   65SAPC  H14B 5275   1.768   2.246   5.472  0.5590  3.4890 -0.5832
   65SAPC  H14C 5276   1.851   2.223   5.626 -0.8104 -1.6508  0.0080
   65SAPC   C15 5277   1.673   2.477   5.479  0.1094  0.4929  0.6848
   65SAPC  H15A 5278   1.700   2.444   5.380  1.0080  1.4138  0.6058
   65SAPC  H15B 5279   1.570   2.444   5.491  0.5297 -0.2540  2.6083
   65SAPC  H15C 5280   1.674   2.585   5.475  1.1821  0.5309  1.4844
   65SAPC   C11 5281   1.724   2.624   5.745 -0.4397  0.1457 -0.9386
   65SAPC  H11A 5282   1.674   2.638   5.843  1.5147  0.7898  0.0126
   65SAPC  H11B 5283   1.657   2.669   5.669 -1.1988 -0.0740 -0.4137
   65SAPC     P 5284   1.970   2.653   5.828  0.2272 -0.4968  0.1427
   65SAPC   O13 5285   1.992   2.509   5.829  0.1429  0.2269  0.0140
   65SAPC   O14 5286   2.087   2.746   5.807 -0.0291 -0.1595 -0.5279
   65SAPC   O12 5287   1.854   2.689   5.730 -0.4257  0.4990 -0.6456
   65SAPC   O11 5288   1.910   2.685   5.970 -0.0185 -0.6200  0.0214
   65SAPC    C1 5289   1.869   2.816   6.019 -0.5949 -0.0162  0.1845
   65SAPC    HA 5290   1.888   2.898   5.946  1.8319 -0.9956 -0.3621
   65SAPC    HB 5291   1.758   2.820   6.025 -0.6730 -0.3860 -0.8385
   65SAPC    C2 5292   1.916   2.842   6.159 -0.5715  0.5165 -0.2082
   65SAPC    HS 5293   2.027   2.840   6.148 -0.7491  0.7327 -2.8547
   65SAPC   O21 5294   1.856   2.746   6.260 -0.5711  0.9500  0.4563
   65SAPC   C21 5295   1.942   2.664   6.309  0.2025 -0.3027 -0.5633
   65SAPC   O22 5296   2.066   2.672   6.309  0.8986  0.9743  0.3952
   65SAPC   C22 5297   1.871   2.570   6.408 -0.3592  0.5587  0.2659
   65SAPC   H2R 5298   1.854   2.628   6.501  0.9253  0.8615  0.3253
   65SAPC   H2S 5299   1.774   2.548   6.358 -0.5302  1.8175 -0.0026
   65SAPC    C3 5300   1.885   2.992   6.188 -0.3716  0.0476 -0.1280
   65SAPC    HX 5301   1.780   3.009   6.155 -0.8699  0.4822  1.5821
   65SAPC    HY 5302   1.935   3.072   6.129  0.3249  1.3702  2.1386
   65SAPC   O31 5303   1.892   3.037   6.326 -0.4167 -0.2265  0.1266
   65SAPC   C31 5304   2.015   3.053   6.377 -0.0320  0.2265 -0.1467
   65SAPC   O32 5305   2.119   3.046   6.310  0.3324  0.1580  0.3353
   65SAPC   C32 5306   2.007   3.058   6.531  0.7788  0.0222  0.3986
   65SAPC   H2X 5307   1.921   3.121   6.564 -1.2425 -0.6431 -3.1181
   65SAPC   H2Y 5308   2.099   3.107   6.570 -0.8694  2.7293  1.1917
   65SAPC   C23 5309   1.941   2.436   6.440  0.8600  0.1283  0.2701
   65SAPC   H3R 5310   2.050   2.449   6.459  0.5492  1.7480  1.1362
   65SAPC   H3S 5311   1.935   2.373   6.349  1.0000 -2.6612  2.0684
   65SAPC   C24 5312   1.895   2.363   6.577  0.1028 -0.7192 -0.2566
   65SAPC   H4R 5313   1.914   2.430   6.663 -3.4602  2.1506 -1.4481
   65SAPC   H4S 5314   1.957   2.272   6.594  1.5277  0.3608  0.5049
   65SAPC   C25 5315   1.746   2.329   6.570  0.0559 -0.0522 -0.1215
   65SAPC   H5R 5316   1.713   2.261   6.490  1.0667 -0.5366 -0.1447
   65SAPC   C26 5317   1.644   2.363   6.649  0.4214  0.0374  0.2842
   65SAPC   H6R 5318   1.545   2.319   6.631  1.7268 -2.7298 -0.7906
   65SAPC   C27 5319   1.656   2.455   6.764  0.6174  0.2723 -0.7340
   65SAPC   H7R 5320   1.557   2.503   6.782  0.3132 -0.9162  1.0275
   65SAPC   H7S 5321   1.730   2.536   6.752  1.1174  0.1226  1.0553
   65SAPC   C28 5322   1.682   2.374   6.892 -0.2215 -0.4916 -0.0484
   65SAPC   H8R 5323   1.734   2.279   6.874 -0.6893 -0.4764 -1.6012
   65SAPC   C29 5324   1.648   2.396   7.021  0.7805 -1.0565 -0.1693
   65SAPC   H9R 5325   1.683   2.330   7.102  0.1042 -0.3714  0.6980
   65SAPC  C210 5326   1.569   2.517   7.080 -0.8590  0.8366  0.0062
   65SAPC  H10R 5327   1.479   2.488   7.140  0.0882  0.0861  1.1050
   65SAPC  H10S 5328   1.529   2.579   6.997  0.1357 -0.3015 -1.3447
   65SAPC  C211 5329   1.658   2.603   7.169 -0.5958  0.5195  0.1725
   65SAPC  H11R 5330   1.707   2.682   7.111 -1.8931 -0.5085 -2.5100
   65SAPC  C212 5331   1.693   2.593   7.298 -0.0192  0.4962 -0.2007
   65SAPC  H12R 5332   1.760   2.671   7.336  0.2961  1.6528 -2.8848
   65SAPC  C213 5333   1.648   2.488   7.399 -0.4071  0.2854  0.3978
   65SAPC  H13R 5334   1.608   2.399   7.346  0.5504 -0.4590  0.8836
   65SAPC  H13S 5335   1.558   2.532   7.445 -0.2054  0.4666  0.6233
   65SAPC  C214 5336   1.751   2.453   7.495 -0.0069 -0.6267  0.3580
   65SAPC  H14R 5337   1.854   2.449   7.456 -0.5458 -1.8846 -1.0308
   65SAPC  C215 5338   1.734   2.438   7.623  0.1983  0.4501  0.1078
   65SAPC  H15R 5339   1.817   2.421   7.694 -0.1237  0.1154  0.4073
   65SAPC  C216 5340   1.606   2.443   7.698 -0.4670  0.4168  0.1266
   65SAPC  H16R 5341   1.550   2.347   7.703 -2.6106  1.6435  2.8217
   65SAPC  H16S 5342   1.534   2.521   7.665 -0.8476 -0.6662 -1.7396
   65SAPC  C217 5343   1.643   2.483   7.841  0.4288 -0.1225  0.1122
   65SAPC  H17R 5344   1.716   2.566   7.830  2.4562 -1.3935  2.8496
   65SAPC  H17S 5345   1.692   2.391   7.880 -1.0481 -1.5132 -1.1718
   65SAPC  C218 5346   1.515   2.527   7.921  0.2163  0.5185  0.3137
   65SAPC  H18R 5347   1.458   2.435   7.945  1.1223 -0.8980 -2.5145
   65SAPC  H18S 5348   1.455   2.585   7.848  0.2672 -1.3933 -1.3153
   65SAPC  C219 5349   1.540   2.609   8.045 -0.1265 -0.2770 -0.0552
   65SAPC  H19R 5350   1.614   2.560   8.112 -1.5010  1.4387  2.9237
   65SAPC  H19S 5351   1.454   2.616   8.115  0.0897  1.8683  0.0882
   65SAPC  C220 5352   1.593   2.755   8.018  0.2357 -0.5222  0.8318
   65SAPC  H20R 5353   1.606   2.814   8.111  0.1396  0.2361  0.3752
   65SAPC  H20S 5354   1.517   2.796   7.948 -0.7170 -3.1133  0.2552
   65SAPC  H20T 5355   1.691   2.749   7.966 -1.3205 -1.2522 -2.2352
   65SAPC   C33 5356   1.992   2.921   6.596 -0.0175  0.3078 -0.3610
   65SAPC   H3X 5357   2.061   2.838   6.570 -0.2511  0.0018 -0.0004
   65SAPC   H3Y 5358   1.891   2.890   6.562 -0.4922  2.5977 -1.3021
   65SAPC   C34 5359   1.998   2.924   6.750 -0.5586 -0.0616 -0.2992
   65SAPC   H4X 5360   1.933   3.002   6.795 -1.1569 -0.6861 -0.0759
   65SAPC   H4Y 5361   2.097   2.970   6.770 -1.9868  2.3284  1.8908
   65SAPC   C35 5362   1.973   2.801   6.829  0.4164  0.9030 -0.8997
   65SAPC   H5X 5363   1.896   2.728   6.797 -0.7473  1.2003  1.0406
   65SAPC   H5Y 5364   1.948   2.833   6.933 -0.2034 -1.9876 -0.0772
   65SAPC   C36 5365   2.096   2.712   6.844 -0.1768 -0.7304 -0.3574
   65SAPC   H6X 5366   2.171   2.776   6.896  0.8434 -0.9035 -1.5644
   65SAPC   H6Y 5367   2.132   2.681   6.743  0.4072 -0.2425 -0.3065
   65SAPC   C37 5368   2.083   2.578   6.921  0.2565 -0.2649 -0.2060
   65SAPC   H7X 5369   2.184   2.531   6.925  1.5354  2.2995 -0.6293
   65SAPC   H7Y 5370   2.019   2.512   6.858 -0.6503  0.9315 -0.5912
   65SAPC   C38 5371   2.029   2.595   7.061  0.8687 -0.1695 -0.4985
   65SAPC   H8X 5372   2.030   2.489   7.097 -0.9055  0.5799  2.0371
   65SAPC   H8Y 5373   1.921   2.620   7.055  1.1208  0.6460 -2.8567
   65SAPC   C39 5374   2.108   2.688   7.150 -0.2202 -0.3968  0.0364
   65SAPC   H9X 5375   2.129   2.788   7.106 -0.5364 -0.2146  0.2943
   65SAPC   H9Y 5376   2.201   2.632   7.175 -1.1909 -2.4749 -0.7776
   65SAPC  C310 5377   2.057   2.718   7.297  1.0759  0.2268 -0.2622
   65SAPC  H10X 5378   1.947   2.733   7.285  0.9399  0.4285  1.0738
   65SAPC  H10Y 5379   2.093   2.819   7.323 -1.1382  0.8312  0.7454
   65SAPC  C311 5380   2.095   2.610   7.398  0.2705 -0.4695 -0.0851
   65SAPC  H11X 5381   2.203   2.582   7.402  0.5513  0.6208  0.5132
   65SAPC  H11Y 5382   2.027   2.523   7.384 -1.0598  0.2877  1.3800
   65SAPC  C312 5383   2.059   2.659   7.538 -0.7082 -0.1744  0.2858
   65SAPC  H12X 5384   1.949   2.670   7.553 -1.0719 -2.5095 -0.3003
   65SAPC  H12Y 5385   2.120   2.751   7.549 -1.6433  0.6605 -1.2282
   65SAPC  C313 5386   2.091   2.564   7.639  0.1799  0.4216  0.6631
   65SAPC  H13X 5387   2.191   2.523   7.614 -0.6701 -1.0103 -0.6161
   65SAPC  H13Y 5388   2.021   2.479   7.624 -0.2714  0.9209 -0.1515
   65SAPC  C314 5389   2.070   2.624   7.772 -0.3158  0.2764 -0.7231
   65SAPC  H14X 5390   2.065   2.536   7.840 -0.2395  0.6967 -0.1754
   65SAPC  H14Y 5391   1.977   2.683   7.783  0.1527  0.5196  3.2717
   65SAPC  C315 5392   2.200   2.691   7.813  0.3311  0.0252 -0.3879
   65SAPC  H15X 5393   2.223   2.782   7.753 -2.0259  0.4686 -0.7120
   65SAPC  H15Y 5394   2.289   2.627   7.797  1.0310  0.1051  2.6390
   65SAPC  C316 5395   2.198   2.739   7.959 -0.4734  0.1549  0.4846
   65SAPC  H16X 5396   2.178   2.657   8.031 -0.4009  1.6065  2.2464
   65SAPC  H16Y 5397   2.112   2.809   7.970  0.0705  1.0817 -0.8623
   65SAPC  C317 5398   2.325   2.810   8.008 -0.0816 -0.6632  0.4324
   65SAPC  H17X 5399   2.358   2.891   7.939 -1.3348  0.8711  1.5594
   65SAPC  H17Y 5400   2.404   2.732   8.014  0.7115  0.1387  0.6011
   65SAPC  C318 5401   2.320   2.855   8.151 -0.3832 -0.0726 -0.3152
   65SAPC  H18X 5402   2.341   2.766   8.214 -0.0137 -0.7049 -1.3054
   65SAPC  H18Y 5403   2.223   2.898   8.185 -0.9073 -1.0910 -0.4752
   65SAPC  H18Z 5404   2.398   2.930   8.174 -0.1617 -0.0629 -1.0575
   66SAPC     N 5405   5.724   1.749   6.057 -0.6504  0.2094  1.0196
   66SAPC   C12 5406   5.663   1.873   6.115 -0.1866  0.4130 -0.2853
   66SAPC  H12A 5407   5.588   1.846   6.187  0.0359 -0.0682 -0.2307
   66SAPC  H12B 5408   5.610   1.919   6.033 -2.6144 -1.6203  0.0482
   66SAPC   C13 5409   5.798   1.768   5.931 -0.8451  0.4231  0.4194
   66SAPC  H13A 5410   5.740   1.790   5.842  0.2367 -0.1170 -0.4445
   66SAPC  H13B 5411   5.872   1.846   5.939 -1.6420  1.7803 -3.2036
   66SAPC  H13C 5412   5.844   1.675   5.902  4.5092  2.6817  0.6170
   66SAPC   C14 5413   5.819   1.686   6.157 -0.1160  0.6287  0.0684
   66SAPC  H14A 5414   5.767   1.687   6.251  0.0944  0.2293  0.1874
   66SAPC  H14B 5415   5.840   1.584   6.129  2.1217  0.9747  0.2999
   66SAPC  H14C 5416   5.917   1.730   6.168  0.6484 -0.8538 -0.5891
   66SAPC   C15 5417   5.610   1.657   6.030  0.5280 -0.3015 -0.7139
   66SAPC  H15A 5418   5.631   1.562   5.984 -2.3589 -1.2074 -0.3538
   66SAPC  H15B 5419   5.545   1.638   6.115  0.0853 -0.6267 -1.1182
   66SAPC  H15C 5420   5.549   1.705   5.954 -0.8137  0.5174  0.8088
   66SAPC   C11 5421   5.757   1.984   6.173 -0.2199 -0.0346  0.5730
   66SAPC  H11A 5422   5.815   1.949   6.260  1.2339  1.7785  0.3846
   66SAPC  H11B 5423   5.693   2.062   6.219 -0.1835  0.8411 -0.7809
   66SAPC     P 5424   5.783   2.148   5.961 -0.1049 -0.3588 -0.6596
   66SAPC   O13 5425   5.893   2.223   5.893 -0.0762  0.2262 -0.0532
   66SAPC   O14 5426   5.682   2.097   5.874 -0.1790 -0.6539 -0.2864
   66SAPC   O12 5427   5.836   2.045   6.067 -0.4258 -0.7609 -0.0966
   66SAPC   O11 5428   5.720   2.257   6.059 -0.4331 -0.2609 -0.5299
   66SAPC    C1 5429   5.805   2.360   6.111  0.4596 -0.5051 -0.9358
   66SAPC    HA 5430   5.855   2.417   6.030  1.8526  3.4796  2.3917
   66SAPC    HB 5431   5.740   2.435   6.161 -1.0646 -2.2283 -0.2352
   66SAPC    C2 5432   5.905   2.304   6.216  0.1710 -0.2403  0.4153
   66SAPC    HS 5433   5.955   2.213   6.176  1.2093 -0.3596  1.9233
   66SAPC   O21 5434   5.831   2.269   6.335  0.0837  0.6481 -0.5259
   66SAPC   C21 5435   5.867   2.183   6.428 -0.2000 -0.2603 -0.7250
   66SAPC   O22 5436   5.958   2.099   6.415  0.2904 -0.3496  0.2271
   66SAPC   C22 5437   5.778   2.187   6.552 -0.2211 -0.0109 -0.0380
   66SAPC   H2R 5438   5.688   2.249   6.529 -2.7305 -3.4897 -0.3638
   66SAPC   H2S 5439   5.732   2.086   6.555  0.5335 -0.4154 -1.2720
   66SAPC    C3 5440   6.016   2.408   6.252  0.2569  0.7366  0.6310
   66SAPC    HX 5441   5.956   2.501   6.261 -0.4794  0.1909  1.4827
   66SAPC    HY 5442   6.073   2.411   6.156  2.3239  0.8663  1.8014
   66SAPC   O31 5443   6.093   2.376   6.363 -0.3465 -0.2132 -0.2655
   66SAPC   C31 5444   6.219   2.340   6.349  1.1086 -0.3730 -0.5295
   66SAPC   O32 5445   6.278   2.338   6.241  0.1851  0.3466 -0.7388
   66SAPC   C32 5446   6.266   2.282   6.488 -0.6569  0.0744  0.1873
   66SAPC   H2X 5447   6.374   2.257   6.481 -0.3156  1.4786  0.0260
   66SAPC   H2Y 5448   6.205   2.193   6.514 -0.1324 -0.8703 -1.6181
   66SAPC   C23 5449   5.843   2.224   6.680 -0.3318  0.4672 -0.3642
   66SAPC   H3R 5450   5.934   2.287   6.667 -0.1326  1.0607  3.1012
   66SAPC   H3S 5451   5.880   2.127   6.721 -2.2553 -0.1046  0.0950
   66SAPC   C24 5452   5.749   2.281   6.786 -0.4750 -0.7126 -0.0761
   66SAPC   H4R 5453   5.701   2.373   6.747  0.5097  0.6613  1.7546
   66SAPC   H4S 5454   5.814   2.324   6.865 -0.9580  3.2797 -1.6141
   66SAPC   C25 5455   5.646   2.192   6.847 -0.3293 -0.1726 -0.0186
   66SAPC   H5R 5456   5.581   2.143   6.773 -2.4032  1.6428  0.4888
   66SAPC   C26 5457   5.636   2.151   6.977  0.0648  0.0247  0.0542
   66SAPC   H6R 5458   5.553   2.090   7.017  1.5197 -0.2369  2.9502
   66SAPC   C27 5459   5.718   2.183   7.101 -0.2848 -0.0392 -0.4943
   66SAPC   H7R 5460   5.814   2.231   7.073 -0.4516  0.6443  0.0673
   66SAPC   H7S 5461   5.750   2.086   7.143  0.3695  0.7116  0.7985
   66SAPC   C28 5462   5.665   2.289   7.198 -0.7261 -0.8140 -0.3486
   66SAPC   H8R 5463   5.639   2.383   7.147 -0.2304  0.3892  1.5070
   66SAPC   C29 5464   5.635   2.274   7.335  0.2789 -0.2893  0.0454
   66SAPC   H9R 5465   5.610   2.362   7.395  2.1450  0.3620 -0.0587
   66SAPC  C210 5466   5.659   2.146   7.412  0.7011  0.4321 -0.4447
   66SAPC  H10R 5467   5.676   2.064   7.339  2.5226  0.3465  0.0273
   66SAPC  H10S 5468   5.564   2.119   7.464  1.2139  0.2010  0.3847
   66SAPC  C211 5469   5.775   2.151   7.504  0.4202 -0.2631  0.1487
   66SAPC  H11R 5470   5.874   2.145   7.457  0.5410  1.5161  0.1101
   66SAPC  C212 5471   5.775   2.174   7.637 -0.2202 -1.1265  0.4523
   66SAPC  H12R 5472   5.870   2.191   7.691  0.7546 -1.1057 -1.1808
   66SAPC  C213 5473   5.662   2.194   7.725  0.4391  0.0140  0.5489
   66SAPC  H13R 5474   5.648   2.113   7.800 -1.9700 -0.6397 -0.5061
   66SAPC  H13S 5475   5.572   2.209   7.663  0.0017 -1.2796  0.8467
   66SAPC  C214 5476   5.683   2.327   7.802  0.4849  0.1541 -0.2373
   66SAPC  H14R 5477   5.672   2.424   7.751  1.9712  1.5898  1.9457
   66SAPC  C215 5478   5.706   2.334   7.937  0.7301  0.4259  0.9370
   66SAPC  H15R 5479   5.721   2.430   7.990  2.0110  0.0831  1.2480
   66SAPC  C216 5480   5.727   2.216   8.026  0.1395 -0.7788 -0.3211
   66SAPC  H16R 5481   5.835   2.215   8.053 -0.5754  0.5666  3.2685
   66SAPC  H16S 5482   5.718   2.114   7.983 -2.7885  0.0727 -2.0631
   66SAPC  C217 5483   5.661   2.220   8.161 -0.2791 -0.3082  0.6707
   66SAPC  H17R 5484   5.553   2.197   8.147 -0.0791  0.0246 -1.9091
   66SAPC  H17S 5485   5.659   2.321   8.206 -0.3593  1.2776 -2.5922
   66SAPC  C218 5486   5.732   2.123   8.260  0.2491  0.1037 -0.5690
   66SAPC  H18R 5487   5.841   2.141   8.270  0.1135  0.2752  0.6733
   66SAPC  H18S 5488   5.729   2.014   8.238  0.4893  0.1298 -0.7430
   66SAPC  C219 5489   5.683   2.136   8.401  0.3879 -0.4728  0.5496
   66SAPC  H19R 5490   5.754   2.072   8.459 -1.1188 -2.5997  0.1749
   66SAPC  H19S 5491   5.588   2.086   8.428  1.0097 -2.0926 -0.0923
   66SAPC  C220 5492   5.679   2.280   8.453 -0.2779  0.0198 -0.3371
   66SAPC  H20R 5493   5.595   2.333   8.403  0.1863  3.4428  2.1424
   66SAPC  H20S 5494   5.768   2.337   8.421 -0.6833 -0.3007 -2.1610
   66SAPC  H20T 5495   5.681   2.288   8.564 -1.9449 -1.3225 -0.1592
   66SAPC   C33 5496   6.252   2.393   6.597 -0.1648 -0.2166  0.1641
   66SAPC   H3X 5497   6.148   2.431   6.607  0.1128  0.4802  0.4355
   66SAPC   H3Y 5498   6.313   2.480   6.567  0.3334 -0.9368 -0.9940
   66SAPC   C34 5499   6.292   2.346   6.734  0.0250  0.3052 -0.2302
   66SAPC   H4X 5500   6.249   2.249   6.768 -0.3775  0.9214  1.0546
   66SAPC   H4Y 5501   6.256   2.421   6.807  0.2077 -1.2344  1.5017
   66SAPC   C35 5502   6.443   2.348   6.749 -0.2648  0.9995 -1.0782
   66SAPC   H5X 5503   6.474   2.454   6.747  0.0428  0.9660  0.5737
   66SAPC   H5Y 5504   6.496   2.288   6.672 -1.1584 -1.1260 -0.1353
   66SAPC   C36 5505   6.486   2.285   6.888  0.4215 -0.0569  1.4732
   66SAPC   H6X 5506   6.597   2.282   6.900  0.9323 -1.1608 -2.1799
   66SAPC   H6Y 5507   6.442   2.183   6.891 -3.0173  1.3112  2.4043
   66SAPC   C37 5508   6.438   2.365   7.011  0.1259  0.3936 -0.3837
   66SAPC   H7X 5509   6.328   2.354   7.026  0.3900 -0.0357  1.5159
   66SAPC   H7Y 5510   6.465   2.470   6.991  1.7914 -0.3081 -2.2012
   66SAPC   C38 5511   6.499   2.317   7.143 -0.0024  0.5041 -0.5081
   66SAPC   H8X 5512   6.609   2.336   7.144  0.0161  0.5838  1.8952
   66SAPC   H8Y 5513   6.470   2.212   7.164  2.4552 -0.8796 -3.2815
   66SAPC   C39 5514   6.444   2.397   7.264  0.1892  0.2032  0.3784
   66SAPC   H9X 5515   6.334   2.381   7.272  0.5373 -2.5149  0.8043
   66SAPC   H9Y 5516   6.462   2.505   7.250 -2.8320  0.5710 -1.6108
   66SAPC  C310 5517   6.512   2.349   7.397 -0.1382 -0.2539 -0.3519
   66SAPC  H10X 5518   6.619   2.375   7.380 -0.1272 -0.2068 -0.2140
   66SAPC  H10Y 5519   6.501   2.241   7.421 -1.5752  0.2800  1.6168
   66SAPC  C311 5520   6.474   2.434   7.515 -0.0874 -1.0405 -0.7347
   66SAPC  H11X 5521   6.364   2.423   7.527 -0.5059 -0.5274 -3.4127
   66SAPC  H11Y 5522   6.489   2.540   7.485 -1.6235 -0.4984  0.2815
   66SAPC  C312 5523   6.548   2.399   7.641  0.6694  0.2166 -0.0209
   66SAPC  H12X 5524   6.657   2.396   7.618  0.6263 -1.2220 -0.1154
   66SAPC  H12Y 5525   6.509   2.298   7.665  3.0866 -0.5274  1.1758
   66SAPC  C313 5526   6.529   2.491   7.772 -0.8742 -0.0915 -0.2355
   66SAPC  H13X 5527   6.420   2.484   7.795 -1.4868  3.2010 -1.5876
   66SAPC  H13Y 5528   6.569   2.593   7.753 -0.5602  0.3752  2.5060
   66SAPC  C314 5529   6.608   2.430   7.884 -0.1700 -0.3341  0.1674
   66SAPC  H14X 5530   6.717   2.437   7.861 -0.5334  2.5041 -0.9785
   66SAPC  H14Y 5531   6.581   2.322   7.892  1.7856 -1.0671 -1.8721
   66SAPC  C315 5532   6.581   2.509   8.012 -0.6805 -0.1142 -0.2239
   66SAPC  H15X 5533   6.473   2.511   8.036 -0.9379  1.4720 -1.3743
   66SAPC  H15Y 5534   6.603   2.618   8.008 -0.9181  0.0500  1.8359
   66SAPC  C316 5535   6.659   2.476   8.138 -0.0503 -0.0847 -0.3057
   66SAPC  H16X 5536   6.770   2.483   8.132  0.1777 -1.3264  1.5486
   66SAPC  H16Y 5537   6.641   2.369   8.163  0.1412  0.0561  0.4628
   66SAPC  C317 5538   6.627   2.566   8.261 -0.5588 -0.0620  0.4583
   66SAPC  H17X 5539   6.520   2.589   8.247  0.1054  2.8667 -0.6679
   66SAPC  H17Y 5540   6.681   2.662   8.244  0.4960 -0.8730 -1.0934
   66SAPC  C318 5541   6.657   2.505   8.397 -0.2860  0.3470 -1.0803
   66SAPC  H18X 5542   6.759   2.463   8.407 -0.5971 -0.0668  0.5767
   66SAPC  H18Y 5543   6.582   2.424   8.407 -2.7640  2.5904 -0.1283
   66SAPC  H18Z 5544   6.641   2.581   8.476  2.3139  2.0398 -2.0526
   67SAPC     N 5545   2.035   3.672   5.908  0.0753 -0.3590 -0.0259
   67SAPC   C12 5546   1.899   3.629   5.949  0.4655  0.5982 -0.5472
   67SAPC  H12A 5547   1.887   3.523   5.935 -1.2049  0.2338  2.7056
   67SAPC  H12B 5548   1.831   3.681   5.883  0.3765  2.2545  0.7852
   67SAPC   C13 5549   2.069   3.635   5.770 -0.0759  0.2721  0.2304
   67SAPC  H13A 5550   2.006   3.687   5.700 -2.7085 -1.8467  0.8868
   67SAPC  H13B 5551   2.174   3.659   5.758  0.3559 -1.5144  0.0840
   67SAPC  H13C 5552   2.060   3.530   5.746 -1.0255  0.0874  1.3098
   67SAPC   C14 5553   2.041   3.820   5.918  0.5023  0.2557 -0.1268
   67SAPC  H14A 5554   2.140   3.856   5.894  0.2479  0.9252 -0.1710
   67SAPC  H14B 5555   1.978   3.858   5.839  1.2854 -0.2473 -1.0194
   67SAPC  H14C 5556   2.009   3.857   6.014 -2.2513  2.9008 -1.8765
   67SAPC   C15 5557   2.138   3.624   6.007 -0.7525  0.1418 -0.4979
   67SAPC  H15A 5558   2.240   3.657   5.992  0.8798 -3.5484  1.0532
   67SAPC  H15B 5559   2.115   3.654   6.108 -2.3003  1.0661 -1.0958
   67SAPC  H15C 5560   2.141   3.516   6.003  1.3548 -0.0009  1.9941
   67SAPC   C11 5561   1.860   3.645   6.098  0.6926  0.1223  0.5723
   67SAPC  H11A 5562   1.929   3.584   6.161  2.0210  1.6392  0.6329
   67SAPC  H11B 5563   1.756   3.612   6.120 -0.4592  2.3540 -1.1635
   67SAPC     P 5564   1.774   3.879   6.205  0.3141  0.0712  0.0776
   67SAPC   O13 5565   1.844   3.959   6.310  0.1192 -0.2846  0.6627
   67SAPC   O14 5566   1.719   3.950   6.089 -0.4561  0.4210 -0.3836
   67SAPC   O12 5567   1.877   3.772   6.154  0.3070  0.3239 -0.0616
   67SAPC   O11 5568   1.669   3.780   6.277  0.3783  0.6023 -0.5428
   67SAPC    C1 5569   1.708   3.684   6.379 -0.0650 -0.2335  0.0724
   67SAPC    HA 5570   1.631   3.604   6.368 -1.0081  0.8293 -1.3717
   67SAPC    HB 5571   1.803   3.631   6.355  1.4080  2.0493  0.5285
   67SAPC    C2 5572   1.709   3.728   6.525 -0.2011 -0.5687  0.0521
   67SAPC    HS 5573   1.701   3.635   6.586  1.2672  1.3490  3.4507
   67SAPC   O21 5574   1.597   3.805   6.558 -0.0395  0.7387  0.8569
   67SAPC   C21 5575   1.491   3.733   6.586 -0.6002 -0.0173 -0.5967
   67SAPC   O22 5576   1.472   3.614   6.572  0.2505 -0.2735 -0.3912
   67SAPC   C22 5577   1.385   3.830   6.649  0.0167  0.8464 -0.3481
   67SAPC   H2R 5578   1.423   3.934   6.644  0.3456  0.7670  0.3364
   67SAPC   H2S 5579   1.296   3.829   6.582  0.2609 -0.3994 -0.6776
   67SAPC    C3 5580   1.833   3.806   6.577 -0.2322  0.3200  0.2303
   67SAPC    HX 5581   1.856   3.898   6.518  1.6711  0.3404  0.9371
   67SAPC    HY 5582   1.922   3.741   6.564 -1.2269 -1.0525  0.1369
   67SAPC   O31 5583   1.816   3.836   6.722 -0.1804 -0.2637  0.7173
   67SAPC   C31 5584   1.852   3.741   6.802  0.3109 -0.0041  0.0370
   67SAPC   O32 5585   1.892   3.631   6.767  0.0930  0.2642  0.4105
   67SAPC   C32 5586   1.824   3.794   6.947  0.4204  0.7195  0.2386
   67SAPC   H2X 5587   1.719   3.826   6.963 -0.0125 -0.5129 -0.0219
   67SAPC   H2Y 5588   1.868   3.895   6.957  1.0594  0.3217  1.7930
   67SAPC   C23 5589   1.358   3.791   6.793 -0.1098 -0.6165 -0.1981
   67SAPC   H3R 5590   1.452   3.815   6.847 -0.6771  2.3589 -0.3988
   67SAPC   H3S 5591   1.337   3.682   6.787 -1.9318 -0.2696 -0.7086
   67SAPC   C24 5592   1.248   3.873   6.860  0.3160 -0.0746  0.3453
   67SAPC   H4R 5593   1.246   3.873   6.971 -0.2442  0.0391  0.3373
   67SAPC   H4S 5594   1.150   3.834   6.827  0.1367  1.6374 -1.2887
   67SAPC   C25 5595   1.255   4.026   6.824 -0.0256  0.2803 -0.1520
   67SAPC   H5R 5596   1.233   4.042   6.717 -1.1164  0.2770  0.0595
   67SAPC   C26 5597   1.280   4.126   6.918  0.3617  0.5295 -0.1838
   67SAPC   H6R 5598   1.307   4.226   6.879 -0.8811  0.3159 -1.6757
   67SAPC   C27 5599   1.328   4.093   7.063 -0.3055  0.7690  0.2909
   67SAPC   H7R 5600   1.249   4.032   7.111  1.4687 -0.1860  2.1283
   67SAPC   H7S 5601   1.331   4.191   7.114 -0.4425  0.7548  0.3256
   67SAPC   C28 5602   1.467   4.039   7.083  0.1464 -0.1004  0.7889
   67SAPC   H8R 5603   1.523   4.019   6.990 -0.2030 -1.5947  0.8694
   67SAPC   C29 5604   1.518   4.005   7.201  0.4203 -0.3200  0.9995
   67SAPC   H9R 5605   1.622   3.969   7.194  0.1646 -1.1907  1.4776
   67SAPC  C210 5606   1.458   4.011   7.336  0.2239  0.4857  0.2371
   67SAPC  H10R 5607   1.447   3.912   7.384  0.5917  0.7375  0.8436
   67SAPC  H10S 5608   1.351   4.041   7.337  0.1257  0.1561 -0.0882
   67SAPC  C211 5609   1.540   4.099   7.432 -1.0220  0.6681 -0.1541
   67SAPC  H11R 5610   1.569   4.197   7.392 -3.0688  0.6847 -1.7911
   67SAPC  C212 5611   1.591   4.047   7.551  0.3943 -0.5130  0.1261
   67SAPC  H12R 5612   1.651   4.108   7.621 -1.9047  1.6239  0.3456
   67SAPC  C213 5613   1.572   3.907   7.612 -1.0236 -0.4286  0.1119
   67SAPC  H13R 5614   1.515   3.833   7.552  1.6617 -0.3422 -2.8059
   67SAPC  H13S 5615   1.509   3.922   7.703 -0.2308  0.3853  0.5450
   67SAPC  C214 5616   1.705   3.843   7.646  0.0342 -0.6463 -0.3162
   67SAPC  H14R 5617   1.750   3.785   7.565  0.8919 -0.8777  0.3137
   67SAPC  C215 5618   1.778   3.857   7.762 -0.2299 -0.8178  0.4198
   67SAPC  H15R 5619   1.867   3.793   7.767 -0.0813 -0.6515 -0.0053
   67SAPC  C216 5620   1.738   3.936   7.888 -0.0747 -0.2750 -0.3591
   67SAPC  H16R 5621   1.698   4.036   7.859 -0.6427 -0.2084  0.6147
   67SAPC  H16S 5622   1.826   3.952   7.952  0.7002  1.2597 -1.7238
   67SAPC  C217 5623   1.637   3.875   7.983  0.1655  0.6762 -0.1822
   67SAPC  H17R 5624   1.649   3.765   7.990  0.6020  0.7828  0.8458
   67SAPC  H17S 5625   1.530   3.896   7.958  0.0348 -0.9136 -1.1061
   67SAPC  C218 5626   1.641   3.924   8.129 -0.3376  0.2551 -0.4165
   67SAPC  H18R 5627   1.543   3.885   8.165  1.7685 -4.1106  1.3391
   67SAPC  H18S 5628   1.652   4.035   8.132  1.3281  0.1518  3.0755
   67SAPC  C219 5629   1.747   3.854   8.218  0.7254  0.4871 -0.7408
   67SAPC  H19R 5630   1.770   3.913   8.310 -0.7825 -1.0931  0.7409
   67SAPC  H19S 5631   1.846   3.858   8.169  0.7108  0.5738 -0.7632
   67SAPC  C220 5632   1.711   3.713   8.272 -0.4007  0.4075  0.3309
   67SAPC  H20R 5633   1.690   3.646   8.186 -1.3818  0.3829  0.5833
   67SAPC  H20S 5634   1.626   3.732   8.341 -0.7151  2.5559 -0.5841
   67SAPC  H20T 5635   1.798   3.682   8.335  1.6560  1.5715 -1.7701
   67SAPC   C33 5636   1.901   3.714   7.054 -0.4039 -0.5798 -0.1833
   67SAPC   H3X 5637   1.996   3.677   7.012 -1.2841 -0.6036 -2.2638
   67SAPC   H3Y 5638   1.847   3.622   7.087 -0.9344  1.0410  4.1117
   67SAPC   C34 5639   1.919   3.800   7.177 -0.2748 -0.1911 -0.2001
   67SAPC   H4X 5640   1.822   3.831   7.222  0.3914 -0.8875  1.7898
   67SAPC   H4Y 5641   1.977   3.892   7.155  0.5038  0.3163  3.3942
   67SAPC   C35 5642   1.982   3.734   7.301  0.4205 -0.1387 -0.2402
   67SAPC   H5X 5643   1.944   3.630   7.312  0.5343 -0.0648  0.8761
   67SAPC   H5Y 5644   1.951   3.791   7.391  0.2608  1.0954 -1.0531
   67SAPC   C36 5645   2.129   3.722   7.284  0.9950  0.6091 -0.9912
   67SAPC   H6X 5646   2.168   3.826   7.282  0.9253  0.8955  3.1444
   67SAPC   H6Y 5647   2.145   3.666   7.190 -3.2438 -0.5531 -1.1996
   67SAPC   C37 5648   2.204   3.652   7.400 -0.3194 -0.4381 -0.8145
   67SAPC   H7X 5649   2.306   3.615   7.375  0.6756  2.0688 -0.7073
   67SAPC   H7Y 5650   2.137   3.572   7.439  1.1953 -1.0247  0.6736
   67SAPC   C38 5651   2.229   3.759   7.517  0.4863 -0.1607 -0.4485
   67SAPC   H8X 5652   2.128   3.794   7.546  0.5983  0.7354 -1.0928
   67SAPC   H8Y 5653   2.273   3.850   7.471 -1.2379  0.4434 -0.9625
   67SAPC   C39 5654   2.305   3.688   7.634  0.6442  0.3187  0.5582
   67SAPC   H9X 5655   2.398   3.650   7.586  1.6348  1.7388  1.2510
   67SAPC   H9Y 5656   2.247   3.602   7.673 -0.2462  0.4739 -0.3910
   67SAPC  C310 5657   2.335   3.783   7.754 -0.5970 -0.4339  0.4888
   67SAPC  H10X 5658   2.243   3.843   7.774  1.3404  2.8152  0.3956
   67SAPC  H10Y 5659   2.410   3.855   7.714 -1.6620  0.5042  0.1132
   67SAPC  C311 5660   2.408   3.717   7.873  0.4634  0.7961  0.4421
   67SAPC  H11X 5661   2.508   3.684   7.838  0.2423 -0.0769  0.6180
   67SAPC  H11Y 5662   2.342   3.632   7.899 -2.0681  2.2772 -0.7283
   67SAPC  C312 5663   2.432   3.802   7.992  0.1605 -0.2317  0.0696
   67SAPC  H12X 5664   2.336   3.845   8.025 -1.4846 -1.6845 -2.4140
   67SAPC  H12Y 5665   2.494   3.888   7.961 -0.6535  0.5325  0.5289
   67SAPC  C313 5666   2.489   3.730   8.111  0.1056  0.1415  0.5867
   67SAPC  H13X 5667   2.590   3.688   8.092 -1.2410 -2.7774 -0.8130
   67SAPC  H13Y 5668   2.427   3.638   8.119 -0.1920  0.1128 -1.4470
   67SAPC  C314 5669   2.498   3.822   8.232  0.2540 -0.2324  0.4909
   67SAPC  H14X 5670   2.469   3.770   8.326  2.2402 -0.5231  1.0005
   67SAPC  H14Y 5671   2.416   3.895   8.216  2.1131  1.8740 -0.0189
   67SAPC  C315 5672   2.635   3.882   8.255 -0.0597  0.0984  0.0042
   67SAPC  H15X 5673   2.642   3.971   8.321 -0.7277  0.6717 -0.6848
   67SAPC  H15Y 5674   2.699   3.907   8.167 -0.1806 -0.7410 -0.3263
   67SAPC  C316 5675   2.731   3.772   8.312 -0.9659 -0.7317 -0.5930
   67SAPC  H16X 5676   2.754   3.694   8.237 -1.3095 -1.4532  0.0342
   67SAPC  H16Y 5677   2.676   3.724   8.396 -2.1630  0.1654 -0.8325
   67SAPC  C317 5678   2.870   3.825   8.364 -0.5453  0.4652 -0.2271
   67SAPC  H17X 5679   2.896   3.918   8.310 -0.9306 -0.0461 -1.3158
   67SAPC  H17Y 5680   2.937   3.744   8.327  1.0110  2.2677 -1.5110
   67SAPC  C318 5681   2.869   3.828   8.515 -0.4656 -0.9029  0.2910
   67SAPC  H18X 5682   2.851   3.728   8.560  0.7898 -1.3916 -0.2780
   67SAPC  H18Y 5683   2.791   3.893   8.562 -1.0558 -0.8520 -0.7371
   67SAPC  H18Z 5684   2.970   3.849   8.556 -0.9766  0.4013  0.9724
   68SAPC     N 5685   0.568   2.300   6.030 -0.5092 -0.5396 -0.1292
   68SAPC   C12 5686   0.687   2.381   6.085  0.1799 -0.1670 -0.7294
   68SAPC  H12A 5687   0.712   2.456   6.011 -3.1425 -0.0705 -1.9305
   68SAPC  H12B 5688   0.778   2.322   6.093  0.1287  0.0483  2.4704
   68SAPC   C13 5689   0.596   2.243   5.890 -0.3202 -0.2816 -0.1960
   68SAPC  H13A 5690   0.661   2.159   5.908 -1.4638 -1.0852  0.3251
   68SAPC  H13B 5691   0.507   2.201   5.845 -0.2724  1.2045 -1.7909
   68SAPC  H13C 5692   0.630   2.325   5.829  0.1427  1.8426  2.6682
   68SAPC   C14 5693   0.529   2.187   6.116  0.5725  0.0954 -0.0256
   68SAPC  H14A 5694   0.612   2.125   6.148 -0.6164 -0.9156  1.2116
   68SAPC  H14B 5695   0.472   2.225   6.199 -1.1808  1.0799 -1.5909
   68SAPC  H14C 5696   0.466   2.124   6.055 -0.7808  1.5041 -0.1382
   68SAPC   C15 5697   0.443   2.391   6.006 -0.2609  0.6458  0.5525
   68SAPC  H15A 5698   0.409   2.443   6.094 -1.9104  1.4870 -0.5373
   68SAPC  H15B 5699   0.471   2.464   5.932  0.1302  3.2689  3.0976
   68SAPC  H15C 5700   0.362   2.324   5.980  0.4504 -0.5385  1.2794
   68SAPC   C11 5701   0.672   2.464   6.219 -0.1171 -0.0332  0.0015
   68SAPC  H11A 5702   0.770   2.495   6.260 -0.2414 -1.3828  1.4015
   68SAPC  H11B 5703   0.632   2.391   6.293 -1.0611  0.5794  0.1124
   68SAPC     P 5704   0.595   2.698   6.136 -0.3701  0.1310  0.1242
   68SAPC   O13 5705   0.723   2.697   6.069  0.3953 -0.0320 -0.2874
   68SAPC   O14 5706   0.479   2.720   6.051  0.6459 -0.7670 -0.2229
   68SAPC   O12 5707   0.575   2.568   6.219 -0.0246 -0.5276 -0.5407
   68SAPC   O11 5708   0.611   2.814   6.237 -0.1601 -0.0386  0.0192
   68SAPC    C1 5709   0.658   2.785   6.367  0.0713  0.6158  0.1758
   68SAPC    HA 5710   0.605   2.705   6.423  2.2777 -1.8748 -1.0663
   68SAPC    HB 5711   0.766   2.760   6.371  0.3880  1.7113 -0.9052
   68SAPC    C2 5712   0.636   2.922   6.440 -1.3572 -1.1658 -0.7246
   68SAPC    HS 5713   0.702   2.986   6.379 -0.0420  0.1586  1.9430
   68SAPC   O21 5714   0.675   2.921   6.572  0.2723  0.0573  0.2535
   68SAPC   C21 5715   0.807   2.915   6.598  0.2129  0.5145 -0.2578
   68SAPC   O22 5716   0.897   2.903   6.518  0.0583 -0.4368 -0.1169
   68SAPC   C22 5717   0.835   2.951   6.740  0.0477 -0.3649 -0.7441
   68SAPC   H2R 5718   0.870   3.055   6.722  2.4245 -1.1790 -1.2385
   68SAPC   H2S 5719   0.740   2.945   6.797  0.7558  0.8762  0.6475
   68SAPC    C3 5720   0.492   2.976   6.420  0.3811 -0.5570 -0.4872
   68SAPC    HX 5721   0.413   2.898   6.420 -3.2413  2.8190  0.3130
   68SAPC    HY 5722   0.488   3.011   6.315  1.4421  0.8050 -0.1019
   68SAPC   O31 5723   0.447   3.084   6.503  0.5240  0.2025 -0.4136
   68SAPC   C31 5724   0.523   3.193   6.490 -1.5221 -0.5501 -0.3459
   68SAPC   O32 5725   0.607   3.222   6.405 -0.1342 -0.3383 -0.5128
   68SAPC   C32 5726   0.492   3.292   6.596  0.2878  0.0271 -0.2742
   68SAPC   H2X 5727   0.385   3.273   6.618  0.3772  0.1461  0.2797
   68SAPC   H2Y 5728   0.508   3.392   6.551  1.0310 -0.3353 -0.8477
   68SAPC   C23 5729   0.943   2.874   6.809 -0.0159 -0.1396 -0.0326
   68SAPC   H3R 5730   0.962   2.931   6.902 -3.4463  1.9748 -0.4432
   68SAPC   H3S 5731   1.038   2.879   6.752 -0.3341 -1.3667 -0.6991
   68SAPC   C24 5732   0.901   2.731   6.842  0.3646  0.3089 -0.2106
   68SAPC   H4R 5733   0.797   2.718   6.880  0.5360 -2.3313 -0.4458
   68SAPC   H4S 5734   0.976   2.709   6.921 -0.7159 -0.2278  0.6958
   68SAPC   C25 5735   0.926   2.619   6.743  0.3696 -0.6943 -0.0485
   68SAPC   H5R 5736   1.035   2.612   6.730  0.6801  0.2824  1.6554
   68SAPC   C26 5737   0.837   2.550   6.666 -0.4594 -0.3456  0.1871
   68SAPC   H6R 5738   0.877   2.481   6.590  0.0678 -1.7522  1.6713
   68SAPC   C27 5739   0.689   2.573   6.679  0.0371  0.4723 -0.5445
   68SAPC   H7R 5740   0.662   2.666   6.625 -1.7341 -0.0035 -0.5313
   68SAPC   H7S 5741   0.654   2.589   6.783 -2.3251  0.8438 -1.3504
   68SAPC   C28 5742   0.596   2.473   6.622  0.1093 -0.4656  0.5499
   68SAPC   H8R 5743   0.550   2.500   6.526  1.9300 -0.5564 -0.4055
   68SAPC   C29 5744   0.557   2.359   6.672  0.2978 -0.2949 -0.4079
   68SAPC   H9R 5745   0.477   2.311   6.615  0.8947  1.3599 -2.7984
   68SAPC  C210 5746   0.610   2.307   6.801 -0.4226  0.3261  0.1039
   68SAPC  H10R 5747   0.546   2.349   6.881  2.6984  2.4024  1.7211
   68SAPC  H10S 5748   0.712   2.344   6.826 -0.7987  0.3901  1.6454
   68SAPC  C211 5749   0.609   2.155   6.812 -0.1667 -0.1790  0.2655
   68SAPC  H11R 5750   0.622   2.099   6.719 -2.1478 -2.0422  1.0388
   68SAPC  C212 5751   0.569   2.080   6.923 -0.3075 -0.0298  0.9164
   68SAPC  H12R 5752   0.553   1.973   6.909  0.1942 -0.1606  1.3259
   68SAPC  C213 5753   0.530   2.136   7.056 -0.2368 -0.1863 -0.1672
   68SAPC  H13R 5754   0.517   2.246   7.058  0.2268 -0.0676 -1.8714
   68SAPC  H13S 5755   0.613   2.104   7.123  1.2518 -3.5389 -3.3047
   68SAPC  C214 5756   0.406   2.075   7.114  0.6320 -0.0089 -0.8372
   68SAPC  H14R 5757   0.380   1.973   7.083 -1.7118  0.1453  0.3911
   68SAPC  C215 5758   0.342   2.116   7.226  0.0744  0.2389 -0.6579
   68SAPC  H15R 5759   0.259   2.050   7.255  2.2411 -1.1364  3.1260
   68SAPC  C216 5760   0.375   2.240   7.312  0.0534 -0.3429 -0.1316
   68SAPC  H16R 5761   0.273   2.270   7.347 -0.4495 -0.6202 -1.3107
   68SAPC  H16S 5762   0.422   2.319   7.250  1.4641 -0.1703  1.1050
   68SAPC  C217 5763   0.465   2.195   7.428 -0.1130 -0.2867  0.1325
   68SAPC  H17R 5764   0.553   2.139   7.390 -2.1169 -2.7626 -1.1784
   68SAPC  H17S 5765   0.405   2.126   7.491 -3.8532  1.1294 -1.5767
   68SAPC  C218 5766   0.515   2.313   7.514 -0.0742  0.2496  0.1361
   68SAPC  H18R 5767   0.425   2.373   7.540 -2.0237 -1.8007 -1.4626
   68SAPC  H18S 5768   0.585   2.374   7.453 -0.3205  1.1469  0.7181
   68SAPC  C219 5769   0.588   2.269   7.644 -0.3906 -0.1123 -0.0991
   68SAPC  H19R 5770   0.637   2.365   7.671 -1.3316 -0.2204  2.2577
   68SAPC  H19S 5771   0.670   2.195   7.629 -0.0653  0.0506  0.7748
   68SAPC  C220 5772   0.491   2.229   7.754 -0.1522  0.4348  0.2767
   68SAPC  H20R 5773   0.401   2.294   7.764 -0.5878 -0.5047  6.1516
   68SAPC  H20S 5774   0.525   2.213   7.858 -1.2541 -0.9166  0.4695
   68SAPC  H20T 5775   0.438   2.135   7.727  1.9754 -1.6073  2.6705
   68SAPC   C33 5776   0.581   3.285   6.726 -0.0632 -0.6538 -0.5210
   68SAPC   H3X 5777   0.602   3.390   6.753 -1.4973 -0.6430  0.6510
   68SAPC   H3Y 5778   0.679   3.237   6.703 -0.1396 -1.4561  0.7670
   68SAPC   C34 5779   0.516   3.220   6.854 -0.3528 -0.2070  0.5840
   68SAPC   H4X 5780   0.518   3.109   6.854  3.2535 -0.2608  0.9608
   68SAPC   H4Y 5781   0.409   3.242   6.873 -0.1701  0.5960  0.7533
   68SAPC   C35 5782   0.605   3.241   6.980  0.0998 -0.0830 -0.2255
   68SAPC   H5X 5783   0.599   3.347   7.011  0.7764 -0.8419  2.8706
   68SAPC   H5Y 5784   0.708   3.217   6.948  0.2992  2.2542 -1.5115
   68SAPC   C36 5785   0.551   3.147   7.086  0.3649  0.0667 -0.2756
   68SAPC   H6X 5786   0.527   3.049   7.038  0.1078  0.6974 -1.4756
   68SAPC   H6Y 5787   0.461   3.195   7.129 -0.1545 -2.5426  1.8364
   68SAPC   C37 5788   0.641   3.119   7.211 -0.6037 -0.1740  0.2092
   68SAPC   H7X 5789   0.662   3.219   7.253 -0.2564 -0.7935  1.5636
   68SAPC   H7Y 5790   0.739   3.071   7.189 -1.7552 -3.4669  1.6361
   68SAPC   C38 5791   0.575   3.049   7.330  0.2023  1.0173  0.3247
   68SAPC   H8X 5792   0.648   3.048   7.413 -1.6395  1.4334  2.0431
   68SAPC   H8Y 5793   0.549   2.946   7.299 -0.0408  1.0083  0.5521
   68SAPC   C39 5794   0.455   3.129   7.380 -0.3158  0.2364 -0.8442
   68SAPC   H9X 5795   0.376   3.113   7.304 -1.4260 -1.7564  0.6277
   68SAPC   H9Y 5796   0.495   3.233   7.385 -1.4864  0.6970 -0.7647
   68SAPC  C310 5797   0.401   3.092   7.518 -0.3210  1.0023 -0.0406
   68SAPC  H10X 5798   0.389   2.982   7.529  0.2871  0.9491  0.1474
   68SAPC  H10Y 5799   0.297   3.129   7.528  0.0473  1.4969  2.6996
   68SAPC  C311 5800   0.497   3.143   7.624  0.3664 -0.6286 -0.3749
   68SAPC  H11X 5801   0.499   3.254   7.622 -0.8850 -0.5639  0.4192
   68SAPC  H11Y 5802   0.599   3.109   7.597  1.4150  1.6421  0.5024
   68SAPC  C312 5803   0.461   3.096   7.764 -0.1214 -0.0172  0.3952
   68SAPC  H12X 5804   0.551   3.108   7.828  1.5184  0.2483 -1.8572
   68SAPC  H12Y 5805   0.434   2.988   7.770  0.7630 -0.2095  1.1644
   68SAPC  C313 5806   0.345   3.181   7.812 -0.7611 -0.6329  0.0225
   68SAPC  H13X 5807   0.311   3.132   7.906 -1.1734  1.8467  1.2558
   68SAPC  H13Y 5808   0.253   3.174   7.749  1.4588  1.7984 -3.8998
   68SAPC  C314 5809   0.385   3.321   7.861  0.2119 -1.0775 -0.0453
   68SAPC  H14X 5810   0.439   3.390   7.792  0.3687 -0.3813  0.7560
   68SAPC  H14Y 5811   0.449   3.321   7.951  0.8154  2.6535 -0.2771
   68SAPC  C315 5812   0.256   3.397   7.904  0.6908 -0.0041 -1.3738
   68SAPC  H15X 5813   0.211   3.340   7.988 -1.9189  2.5870 -0.8473
   68SAPC  H15Y 5814   0.187   3.403   7.817  1.0218 -0.8708 -1.7084
   68SAPC  C316 5815   0.280   3.541   7.951  0.8799  0.1748  0.4306
   68SAPC  H16X 5816   0.198   3.605   7.912  1.2213 -0.5525 -1.6422
   68SAPC  H16Y 5817   0.375   3.589   7.920 -0.7906  2.5525 -1.4138
   68SAPC  C317 5818   0.286   3.551   8.103 -0.7244  0.4186  0.0669
   68SAPC  H17X 5819   0.357   3.471   8.134 -2.2362 -1.7954 -1.9133
   68SAPC  H17Y 5820   0.195   3.507   8.149  0.7528 -1.0628  1.7229
   68SAPC  C318 5821   0.321   3.687   8.156  0.1471  0.2446  0.3772
   68SAPC  H18X 5822   0.229   3.750   8.165 -0.0643 -0.2385  1.8776
   68SAPC  H18Y 5823   0.403   3.736   8.098 -0.4048  0.4681 -0.2344
   68SAPC  H18Z 5824   0.355   3.676   8.261 -0.1281  0.4082  0.4860
   69SLPC     N 5825   4.281   1.411  11.166 -0.0425 -0.3225  0.3303
   69SLPC   C13 5826   4.166   1.501  11.190  0.8331 -0.1737  0.2168
   69SLPC  H13A 5827   4.146   1.568  11.108  0.1922  1.5001  1.6783
   69SLPC  H13B 5828   4.077   1.442  11.209  1.7677 -1.3760  1.0710
   69SLPC  H13C 5829   4.180   1.573  11.270 -0.2604  0.7133 -0.3604
   69SLPC   C14 5830   4.304   1.316  11.278 -0.9245 -0.4020 -0.6919
   69SLPC  H14A 5831   4.217   1.254  11.292 -0.2841 -1.2930 -0.6106
   69SLPC  H14B 5832   4.387   1.250  11.258 -0.7484 -0.8004  1.1565
   69SLPC  H14C 5833   4.320   1.360  11.375 -3.3153  0.8188 -0.7658
   69SLPC   C15 5834   4.403   1.494  11.146 -0.0791 -0.7527 -0.6858
   69SLPC  H15A 5835   4.492   1.440  11.121  0.5626 -0.2543  0.4347
   69SLPC  H15B 5836   4.388   1.571  11.072  0.4827  2.1524  1.9972
   69SLPC  H15C 5837   4.419   1.551  11.236 -3.2964 -0.5320 -0.1352
   69SLPC   C12 5838   4.249   1.330  11.039  0.0273  0.8088  0.4194
   69SLPC  H12A 5839   4.149   1.292  11.052  0.4752 -0.4628  0.2803
   69SLPC  H12B 5840   4.310   1.241  11.039 -1.2178 -0.0584  0.2310
   69SLPC   C11 5841   4.269   1.393  10.895  0.4486  0.2882 -0.5760
   69SLPC  H11A 5842   4.249   1.317  10.817 -2.2319 -0.3801  0.6492
   69SLPC  H11B 5843   4.377   1.419  10.889  0.9009 -0.4559  2.3209
   69SLPC     P 5844   4.241   1.637  10.820  0.2348  0.4646  0.2075
   69SLPC   O13 5845   4.138   1.741  10.806  0.3265 -0.7898  0.0421
   69SLPC   O14 5846   4.370   1.665  10.887 -0.2199 -0.0568  0.3582
   69SLPC   O12 5847   4.178   1.496  10.872  0.3176  0.3203 -0.5659
   69SLPC   O11 5848   4.281   1.602  10.672 -1.1097 -0.1144 -0.1353
   69SLPC    C1 5849   4.193   1.514  10.599 -0.7585  0.2359 -0.3069
   69SLPC    HA 5850   4.238   1.413  10.616  0.6939  0.8973 -0.0687
   69SLPC    HB 5851   4.085   1.507  10.625 -0.6569  0.9237  0.3167
   69SLPC    C2 5852   4.199   1.537  10.446  0.3980  0.4981 -0.0477
   69SLPC    HS 5853   4.305   1.543  10.414  1.3214 -1.0313  2.4085
   69SLPC   O21 5854   4.139   1.658  10.412  0.0518 -0.4642 -0.3607
   69SLPC   C21 5855   4.178   1.716  10.297  0.4315  0.6516  0.1198
   69SLPC   O22 5856   4.258   1.666  10.217  0.1849 -0.0008 -0.1726
   69SLPC   C22 5857   4.103   1.842  10.252  0.2822 -0.2787  0.1292
   69SLPC   H2R 5858   4.118   1.924  10.326 -0.0249  0.1541 -0.2832
   69SLPC   H2S 5859   4.145   1.874  10.154  1.9703 -1.6594  0.3593
   69SLPC    C3 5860   4.140   1.419  10.365  0.0497 -0.9703  0.5611
   69SLPC    HX 5861   4.036   1.404  10.400 -0.4277 -1.2113 -0.9091
   69SLPC    HY 5862   4.190   1.327  10.402 -1.6207 -1.2556  2.2740
   69SLPC   O31 5863   4.141   1.419  10.227 -0.2475  0.0969  0.1443
   69SLPC   C31 5864   4.258   1.390  10.165  0.4613  0.2654  0.4514
   69SLPC   O32 5865   4.364   1.365  10.220  0.3427  0.6824  0.5774
   69SLPC   C32 5866   4.229   1.363  10.020  0.0130 -1.3999 -0.2495
   69SLPC   H2X 5867   4.316   1.332   9.959 -0.5855  0.3428 -2.1316
   69SLPC   H2Y 5868   4.200   1.462   9.979 -0.4782 -0.9729  1.0865
   69SLPC   C23 5869   3.957   1.831  10.244  0.6949  0.3589  0.1851
   69SLPC   H3R 5870   3.924   1.925  10.194 -0.1048  0.4795  0.9291
   69SLPC   H3S 5871   3.907   1.820  10.342 -2.0586 -1.1199 -1.2652
   69SLPC   C24 5872   3.903   1.710  10.163 -0.7152 -0.1392  0.1309
   69SLPC   H4R 5873   3.792   1.707  10.163 -0.9208  3.1452  1.1539
   69SLPC   H4S 5874   3.940   1.615  10.208  1.2106  0.3533 -0.3278
   69SLPC   C25 5875   3.963   1.717  10.019 -0.1757 -0.5536 -0.6409
   69SLPC   H5R 5876   4.073   1.707  10.030 -0.2035 -0.1284  0.0942
   69SLPC   H5S 5877   3.950   1.816   9.971  1.8738 -0.4206 -1.0091
   69SLPC   C26 5878   3.920   1.597   9.931 -0.5167 -0.6562 -0.3258
   69SLPC   H6R 5879   3.930   1.500   9.984 -0.1248 -1.1801 -1.3107
   69SLPC   H6S 5880   3.982   1.587   9.839 -1.7611 -1.4637 -1.1157
   69SLPC   C27 5881   3.772   1.620   9.885  0.0081 -0.2740  0.4766
   69SLPC   H7R 5882   3.762   1.722   9.841  0.0627 -0.9994 -1.3132
   69SLPC   H7S 5883   3.708   1.614   9.976  0.1546 -0.8074  0.5490
   69SLPC   C28 5884   3.716   1.503   9.792  0.5039  0.3162 -0.9370
   69SLPC   H8R 5885   3.605   1.500   9.786  0.5272  0.1375 -1.2978
   69SLPC   H8S 5886   3.743   1.408   9.842  0.6497  2.0411  2.5412
   69SLPC   C29 5887   3.782   1.504   9.655 -0.5077 -0.3261 -0.2988
   69SLPC   H9R 5888   3.881   1.458   9.643 -0.7875 -1.2663  0.8132
   69SLPC  C210 5889   3.743   1.591   9.561 -0.7517 -0.0410  0.3201
   69SLPC  H10R 5890   3.809   1.601   9.473  0.9306 -0.7912  1.4537
   69SLPC  C211 5891   3.632   1.684   9.565  0.3756  0.2039  0.0493
   69SLPC  H11R 5892   3.559   1.668   9.648  0.3561  1.5466  0.3164
   69SLPC  H11S 5893   3.568   1.673   9.475 -1.9946 -0.3981  1.7138
   69SLPC  C212 5894   3.691   1.823   9.574  0.2660 -0.1933  0.2354
   69SLPC  H12R 5895   3.771   1.850   9.504  0.3708  2.4344  1.2630
   69SLPC  C213 5896   3.651   1.911   9.661  0.7302 -0.4211 -0.4222
   69SLPC  H13R 5897   3.703   2.008   9.661  0.4055 -0.1764 -3.0288
   69SLPC  C214 5898   3.544   1.887   9.768 -0.3082  0.4743 -0.1611
   69SLPC  H14R 5899   3.528   1.782   9.801  0.5236  0.4077  0.0520
   69SLPC  H14S 5900   3.444   1.919   9.731 -0.1476  0.9891 -0.1549
   69SLPC  C215 5901   3.567   1.965   9.900 -0.1478  0.1066  0.0529
   69SLPC  H15R 5902   3.602   2.067   9.874 -3.4773  1.4284  0.1960
   69SLPC  H15S 5903   3.643   1.912   9.960 -0.3632 -0.1259  0.1200
   69SLPC  C216 5904   3.437   1.978   9.983  0.5719  0.0973 -0.0830
   69SLPC  H16R 5905   3.404   1.873   9.995  0.1889  0.2491  0.1932
   69SLPC  H16S 5906   3.361   2.032   9.923  1.1691 -0.8150 -1.7414
   69SLPC  C217 5907   3.454   2.041  10.118  0.6278  0.2964 -0.6474
   69SLPC  H17R 5908   3.497   2.143  10.115 -4.1841  2.6629 -0.0787
   69SLPC  H17S 5909   3.518   1.965  10.167 -0.8061 -0.7710 -0.3679
   69SLPC  C218 5910   3.328   2.041  10.199 -0.2433  0.5113  0.0740
   69SLPC  H18R 5911   3.353   2.093  10.294  0.3628 -0.4419  0.4361
   69SLPC  H18S 5912   3.280   1.943  10.217 -1.3594  0.6743 -1.7243
   69SLPC  H18T 5913   3.262   2.089  10.124  0.0118 -1.0731 -1.2142
   69SLPC   C33 5914   4.110   1.262   9.999 -0.7114 -0.3659 -0.9654
   69SLPC   H3X 5915   4.017   1.290  10.052 -0.7616 -0.6621 -0.8963
   69SLPC   H3Y 5916   4.141   1.162  10.035 -2.5000  0.2298  2.6736
   69SLPC   C34 5917   4.094   1.243   9.847  0.0764  0.0958  0.2247
   69SLPC   H4X 5918   4.188   1.244   9.787 -1.7231 -1.8892 -2.9554
   69SLPC   H4Y 5919   4.031   1.330   9.817  1.4817  1.6734  1.6712
   69SLPC   C35 5920   4.025   1.109   9.818  0.6072 -0.6671 -0.0915
   69SLPC   H5X 5921   3.961   1.083   9.905  0.1970 -1.6525 -0.6690
   69SLPC   H5Y 5922   4.113   1.040   9.821  1.3524  0.2905  1.6790
   69SLPC   C36 5923   3.942   1.107   9.690 -0.3142  0.6391  0.4832
   69SLPC   H6X 5924   3.867   1.189   9.697  1.0661  2.3315 -2.5179
   69SLPC   H6Y 5925   3.884   1.013   9.684  0.6870  0.0742 -0.6273
   69SLPC   C37 5926   4.018   1.143   9.564 -0.4931  0.1443 -0.7755
   69SLPC   H7X 5927   4.076   1.053   9.531  0.3116  1.0922 -2.0408
   69SLPC   H7Y 5928   4.091   1.225   9.578 -0.2974 -0.1642  0.0420
   69SLPC   C38 5929   3.927   1.181   9.440 -0.1342 -0.0846 -0.6237
   69SLPC   H8X 5930   3.993   1.223   9.361 -1.1113  1.1312 -0.8246
   69SLPC   H8Y 5931   3.853   1.256   9.475 -0.6552 -0.3991 -1.0288
   69SLPC   C39 5932   3.861   1.057   9.376  0.1567 -1.0835 -0.2327
   69SLPC   H9X 5933   3.794   1.020   9.456 -0.2594  0.8292  0.3473
   69SLPC   H9Y 5934   3.941   0.984   9.350 -0.0174 -1.3779  0.0482
   69SLPC  C310 5935   3.770   1.090   9.253  0.4510  0.3693 -0.0649
   69SLPC  H10X 5936   3.827   1.161   9.190 -0.0249 -1.4214 -2.7000
   69SLPC  H10Y 5937   3.684   1.153   9.287  2.1184  2.9229 -0.3335
   69SLPC  C311 5938   3.713   0.958   9.185  0.1101  0.3559 -1.1048
   69SLPC  H11X 5939   3.660   0.897   9.262 -1.0914  0.3452 -1.9010
   69SLPC  H11Y 5940   3.799   0.897   9.149 -0.9450 -1.3671 -0.8467
   69SLPC  C312 5941   3.624   0.989   9.062 -0.2900  0.4742  0.2303
   69SLPC  H12X 5942   3.690   1.009   8.976  2.3043 -2.9589  1.2315
   69SLPC  H12Y 5943   3.550   1.072   9.076 -0.7547  0.2811 -0.9658
   69SLPC  C313 5944   3.537   0.871   9.020  0.6661  0.2592 -0.7363
   69SLPC  H13X 5945   3.455   0.872   9.095  1.1999  1.3091 -0.1375
   69SLPC  H13Y 5946   3.597   0.777   9.016 -0.9884 -0.8206 -1.0373
   69SLPC  C314 5947   3.465   0.883   8.892 -0.5467 -0.5891  0.4032
   69SLPC  H14X 5948   3.533   0.884   8.804  0.0594  1.9608  0.8206
   69SLPC  H14Y 5949   3.409   0.979   8.885 -1.1465 -0.9988 -0.8379
   69SLPC  C315 5950   3.364   0.765   8.885 -0.3512  0.6703  0.3236
   69SLPC  H15X 5951   3.300   0.761   8.976 -1.5493 -0.5763 -0.5304
   69SLPC  H15Y 5952   3.420   0.669   8.886 -0.4697  0.5967  0.0090
   69SLPC  C316 5953   3.277   0.783   8.760  0.6231 -0.4761  0.8677
   69SLPC  H16X 5954   3.221   0.878   8.766 -1.7129 -1.7624  0.7385
   69SLPC  H16Y 5955   3.205   0.699   8.751  0.3037 -0.4783  2.8993
   69SLPC  C317 5956   3.356   0.791   8.624  0.5979  0.0547 -0.1635
   69SLPC  H17X 5957   3.420   0.882   8.637 -2.2137  2.0074  1.1384
   69SLPC  H17Y 5958   3.290   0.800   8.535  1.0138  1.8187 -0.3424
   69SLPC  C318 5959   3.427   0.663   8.602 -0.7526  0.3865 -0.5697
   69SLPC  H18X 5960   3.390   0.615   8.509 -1.4036 -1.6386  0.6662
   69SLPC  H18Y 5961   3.446   0.593   8.686  2.7114  3.2493  1.3306
   69SLPC  H18Z 5962   3.529   0.687   8.566 -0.7191  0.2817 -0.5451
   70SLPC     N 5963   5.265   6.296  10.964 -0.0313 -0.5974  0.2997
   70SLPC   C13 5964   5.372   6.395  10.946 -0.7791  0.5762  0.1260
   70SLPC  H13A 5965   5.422   6.423  11.037 -0.2586 -3.5163  1.3182
   70SLPC  H13B 5966   5.456   6.351  10.895 -2.2431 -1.9196 -0.2884
   70SLPC  H13C 5967   5.341   6.489  10.904 -0.1297  0.7486  0.0176
   70SLPC   C14 5968   5.151   6.369  11.020  0.4220 -0.1301 -0.0757
   70SLPC  H14A 5969   5.130   6.466  10.978  0.5137  0.1708  0.5728
   70SLPC  H14B 5970   5.060   6.311  11.009  1.2272 -1.3582 -0.5084
   70SLPC  H14C 5971   5.160   6.380  11.127 -0.8922  1.7908 -0.1193
   70SLPC   C15 5972   5.301   6.181  11.052 -0.0615 -0.2171 -0.2214
   70SLPC  H15A 5973   5.290   6.199  11.157 -0.6536 -0.9994 -0.1357
   70SLPC  H15B 5974   5.238   6.095  11.029  1.7554 -1.3625 -1.2017
   70SLPC  H15C 5975   5.405   6.153  11.038  0.8941  2.5656  0.7431
   70SLPC   C12 5976   5.233   6.239  10.829 -0.3070  0.4195 -0.1654
   70SLPC  H12A 5977   5.315   6.183  10.787 -0.9870 -1.8039  1.2900
   70SLPC  H12B 5978   5.220   6.317  10.756  3.0310  1.5518  0.2816
   70SLPC   C11 5979   5.116   6.143  10.807 -0.1884  0.1892  0.1965
   70SLPC  H11A 5980   5.089   6.136  10.699  2.2009 -2.6386 -0.3586
   70SLPC  H11B 5981   5.028   6.184  10.860  0.6356 -0.1675  1.9046
   70SLPC     P 5982   5.242   5.921  10.773  0.2501  0.3249  0.0891
   70SLPC   O13 5983   5.371   5.993  10.768  0.1553  0.1331  0.0007
   70SLPC   O14 5984   5.237   5.787  10.840  0.7275  0.4732  0.0301
   70SLPC   O12 5985   5.141   6.007  10.853 -0.0963 -0.1445 -0.8891
   70SLPC   O11 5986   5.190   5.907  10.621 -0.9235 -0.2804 -0.3875
   70SLPC    C1 5987   5.122   5.794  10.581  0.2672 -0.0167 -0.2596
   70SLPC    HA 5988   5.180   5.700  10.572 -0.0493 -0.5053  2.1543
   70SLPC    HB 5989   5.041   5.770  10.652  1.8722 -2.2786  0.9539
   70SLPC    C2 5990   5.057   5.829  10.449 -0.3839 -0.0068 -0.0935
   70SLPC    HS 5991   5.000   5.743  10.409 -1.2210  0.7117 -0.4662
   70SLPC   O21 5992   5.160   5.851  10.358 -0.0554  0.1710 -0.6747
   70SLPC   C21 5993   5.214   5.756  10.295 -0.3174 -0.2305  0.1998
   70SLPC   O22 5994   5.183   5.637  10.301 -0.5830 -0.5419 -0.1095
   70SLPC   C22 5995   5.320   5.818  10.206  0.4145  0.4662  0.0463
   70SLPC   H2R 5996   5.342   5.923  10.234 -0.0206  1.3250 -2.5225
   70SLPC   H2S 5997   5.415   5.760  10.201  0.8892  1.3049 -1.1852
   70SLPC    C3 5998   4.977   5.960  10.459 -0.6724 -0.2292  0.6414
   70SLPC    HX 5999   5.048   6.040  10.490 -0.5066 -0.5412  1.0902
   70SLPC    HY 6000   4.896   5.943  10.533 -1.8610 -2.0422 -1.0121
   70SLPC   O31 6001   4.926   5.993  10.330 -0.5365 -0.1913 -1.1447
   70SLPC   C31 6002   4.848   6.103  10.334 -0.5296  0.5407  0.2717
   70SLPC   O32 6003   4.834   6.170  10.431 -0.0532 -0.0576 -0.2596
   70SLPC   C32 6004   4.791   6.125  10.197 -0.7503 -0.8888  0.2888
   70SLPC   H2X 6005   4.717   6.044  10.178  0.9328 -2.4096 -0.1487
   70SLPC   H2Y 6006   4.876   6.110  10.127  1.1125  3.1336  1.3992
   70SLPC   C23 6007   5.270   5.831  10.054 -0.2336  0.5699  0.3903
   70SLPC   H3R 6008   5.325   5.918  10.013 -0.7311  1.2108  1.0675
   70SLPC   H3S 6009   5.162   5.855  10.045 -0.1837  0.7872  0.3690
   70SLPC   C24 6010   5.293   5.702   9.968  0.2485  0.4344 -0.1302
   70SLPC   H4R 6011   5.235   5.618  10.012  1.1997 -2.5616 -3.9941
   70SLPC   H4S 6012   5.401   5.680   9.985  1.1672  4.5936  0.3344
   70SLPC   C25 6013   5.268   5.733   9.821 -1.0159 -0.0805 -0.0482
   70SLPC   H5R 6014   5.289   5.841   9.805 -0.1325  0.1034  2.0239
   70SLPC   H5S 6015   5.161   5.717   9.794 -0.9270 -0.7217 -0.0423
   70SLPC   C26 6016   5.354   5.646   9.726  0.9619 -0.1350 -0.2087
   70SLPC   H6R 6017   5.340   5.540   9.754  1.7006  0.6080  3.4050
   70SLPC   H6S 6018   5.461   5.673   9.744  1.5380 -1.4585 -1.4262
   70SLPC   C27 6019   5.320   5.661   9.581  0.4484 -0.6116 -0.6317
   70SLPC   H7R 6020   5.312   5.770   9.565 -2.0117 -0.6815 -0.3146
   70SLPC   H7S 6021   5.226   5.606   9.557 -0.0784 -0.4684  1.0198
   70SLPC   C28 6022   5.420   5.603   9.474 -0.1233 -0.0351 -0.4427
   70SLPC   H8R 6023   5.373   5.597   9.374 -0.2488 -2.1146 -0.2934
   70SLPC   H8S 6024   5.440   5.497   9.499 -1.3267  0.0366  0.9771
   70SLPC   C29 6025   5.553   5.678   9.474 -0.0286  0.2777 -0.4761
   70SLPC   H9R 6026   5.581   5.712   9.575  1.3850 -2.5217  0.1701
   70SLPC  C210 6027   5.633   5.702   9.374 -1.2153  0.0013 -0.6768
   70SLPC  H10R 6028   5.725   5.761   9.386 -2.2961  1.8086 -0.9057
   70SLPC  C211 6029   5.613   5.645   9.231  0.0018  0.1935 -0.3543
   70SLPC  H11R 6030   5.697   5.690   9.174  0.1960  1.4261  0.8292
   70SLPC  H11S 6031   5.516   5.681   9.190 -1.5140 -0.6872  2.2250
   70SLPC  C212 6032   5.630   5.495   9.224  0.1809 -0.3459  0.2038
   70SLPC  H12R 6033   5.706   5.452   9.291 -1.2985  0.1837  2.3171
   70SLPC  C213 6034   5.560   5.411   9.146 -0.3525  0.3463  0.1802
   70SLPC  H13R 6035   5.579   5.303   9.154  1.9971  0.7830  1.1123
   70SLPC  C214 6036   5.463   5.460   9.047 -0.6017 -0.5727  0.3221
   70SLPC  H14R 6037   5.408   5.556   9.060 -0.4584 -0.2587 -1.1648
   70SLPC  H14S 6038   5.384   5.382   9.040 -0.8367 -0.4111  1.0533
   70SLPC  C215 6039   5.533   5.464   8.907 -0.2132  0.7621  0.2629
   70SLPC  H15R 6040   5.581   5.369   8.875 -4.4239 -0.9738 -1.6209
   70SLPC  H15S 6041   5.616   5.538   8.896  0.5846 -0.4543 -4.0174
   70SLPC  C216 6042   5.438   5.501   8.796 -0.4940 -0.2744 -0.8366
   70SLPC  H16R 6043   5.407   5.606   8.814 -1.9644 -0.8612  0.2243
   70SLPC  H16S 6044   5.340   5.448   8.797  0.1935 -1.5610 -0.7634
   70SLPC  C217 6045   5.499   5.492   8.660  0.1699  0.5728  0.0873
   70SLPC  H17R 6046   5.563   5.402   8.657 -0.4313  0.0583  1.8143
   70SLPC  H17S 6047   5.577   5.571   8.647  1.2637 -0.6322 -0.9005
   70SLPC  C218 6048   5.394   5.492   8.550  1.1623 -0.1999 -0.0645
   70SLPC  H18R 6049   5.337   5.586   8.539 -1.7036 -1.6558  1.1979
   70SLPC  H18S 6050   5.326   5.406   8.567  0.5193  0.4418  0.6651
   70SLPC  H18T 6051   5.438   5.463   8.452 -4.4153 -4.9521 -1.7446
   70SLPC   C33 6052   4.743   6.272  10.183 -0.0110  0.6059  0.2110
   70SLPC   H3X 6053   4.833   6.337  10.186  0.4813  0.0099 -1.0066
   70SLPC   H3Y 6054   4.677   6.303  10.267  0.7271 -0.2180  1.1238
   70SLPC   C34 6055   4.667   6.307  10.053 -0.2014 -0.1694  0.0800
   70SLPC   H4X 6056   4.647   6.415  10.069 -0.2565 -0.0309 -0.8462
   70SLPC   H4Y 6057   4.565   6.264  10.050  0.1653 -1.0280 -1.1692
   70SLPC   C35 6058   4.754   6.282   9.936 -0.0258  0.1576 -0.1426
   70SLPC   H5X 6059   4.792   6.178   9.940  1.3525  0.6569  2.2945
   70SLPC   H5Y 6060   4.846   6.345   9.941  1.3499 -1.7284 -0.5125
   70SLPC   C36 6061   4.687   6.320   9.810 -0.5804 -0.1209 -0.3481
   70SLPC   H6X 6062   4.656   6.425   9.829 -0.1665  0.3445 -2.0232
   70SLPC   H6Y 6063   4.594   6.258   9.806  0.9003 -2.5185  0.1313
   70SLPC   C37 6064   4.780   6.301   9.691 -0.5565 -0.0364  0.2233
   70SLPC   H7X 6065   4.840   6.209   9.704  0.3414  0.2749 -1.4835
   70SLPC   H7Y 6066   4.857   6.381   9.687  0.2966 -0.8040  0.8233
   70SLPC   C38 6067   4.706   6.282   9.553  0.0609 -0.2683  0.1793
   70SLPC   H8X 6068   4.629   6.361   9.536  0.6929  0.5507  1.0066
   70SLPC   H8Y 6069   4.663   6.180   9.564  2.0342 -0.9364  2.6517
   70SLPC   C39 6070   4.805   6.287   9.433  0.3174 -0.3416 -0.1335
   70SLPC   H9X 6071   4.884   6.208   9.439  0.8757  0.3055  1.5501
   70SLPC   H9Y 6072   4.859   6.383   9.427 -0.4692  0.2053  1.1804
   70SLPC  C310 6073   4.719   6.258   9.305 -0.4105  0.5468  0.0708
   70SLPC  H10X 6074   4.706   6.350   9.244  2.1746 -0.0679 -1.5765
   70SLPC  H10Y 6075   4.623   6.213   9.338  0.1623 -1.6488 -1.1034
   70SLPC  C311 6076   4.775   6.147   9.218 -0.2159 -0.7376  0.4263
   70SLPC  H11X 6077   4.814   6.061   9.277  0.6278 -0.4560  0.2988
   70SLPC  H11Y 6078   4.866   6.186   9.167 -0.6195 -0.6870 -0.2604
   70SLPC  C312 6079   4.670   6.098   9.116 -0.6804 -0.2240  0.0211
   70SLPC  H12X 6080   4.600   6.183   9.105  1.0490  1.2460 -0.1441
   70SLPC  H12Y 6081   4.615   6.013   9.163  1.2201 -1.7272 -0.2958
   70SLPC  C313 6082   4.734   6.047   8.987  0.3417  0.6590  0.4773
   70SLPC  H13X 6083   4.795   5.963   9.025  0.3871  0.6473  0.3768
   70SLPC  H13Y 6084   4.804   6.121   8.943  0.9002 -0.4344 -0.5330
   70SLPC  C314 6085   4.637   5.990   8.879 -0.2875  0.0490 -0.3012
   70SLPC  H14X 6086   4.589   5.893   8.903 -0.0620  0.0907  0.3297
   70SLPC  H14Y 6087   4.697   5.974   8.787 -1.1219  2.4024 -1.3373
   70SLPC  C315 6088   4.531   6.091   8.837 -0.3185 -0.4731  0.3403
   70SLPC  H15X 6089   4.533   6.185   8.896  1.8726  0.7220 -1.4516
   70SLPC  H15Y 6090   4.431   6.046   8.852  1.0884 -3.7982  0.5755
   70SLPC  C316 6091   4.527   6.119   8.683 -0.9851  0.2179 -0.3373
   70SLPC  H16X 6092   4.545   6.024   8.628 -0.3595  0.3608 -0.3853
   70SLPC  H16Y 6093   4.615   6.186   8.668 -0.8760  0.5678  1.6355
   70SLPC  C317 6094   4.388   6.180   8.640  0.1351 -0.6874  0.0246
   70SLPC  H17X 6095   4.323   6.221   8.720  0.1572  1.4222 -0.9796
   70SLPC  H17Y 6096   4.339   6.097   8.585 -1.0321  0.2329 -0.3888
   70SLPC  C318 6097   4.419   6.293   8.548 -0.0054 -0.4134  0.2541
   70SLPC  H18X 6098   4.443   6.254   8.447  1.9423  1.3614 -0.0190
   70SLPC  H18Y 6099   4.493   6.367   8.586 -0.5396  0.5926 -0.5925
   70SLPC  H18Z 6100   4.330   6.358   8.530 -1.7789 -2.2266  1.9097
   71SLPC     N 6101   3.414   4.854  10.754 -1.0030 -0.4665 -0.2923
   71SLPC   C13 6102   3.433   4.787  10.891 -0.7525 -0.1746  0.3791
   71SLPC  H13A 6103   3.404   4.684  10.897 -3.3883  0.4930  0.4765
   71SLPC  H13B 6104   3.540   4.777  10.893 -0.7564 -1.8681 -2.5562
   71SLPC  H13C 6105   3.387   4.838  10.975  2.7644 -0.2702  2.5552
   71SLPC   C14 6106   3.445   4.996  10.781 -0.1335 -0.8625 -0.0997
   71SLPC  H14A 6107   3.434   5.064  10.698  2.1988 -1.6100 -1.1177
   71SLPC  H14B 6108   3.391   5.036  10.866  1.9145  0.4760  0.6734
   71SLPC  H14C 6109   3.551   5.004  10.803 -0.8022  1.4345  2.9591
   71SLPC   C15 6110   3.267   4.845  10.724 -0.1640  0.3457 -0.2297
   71SLPC  H15A 6111   3.245   4.901  10.635 -0.5312  0.2108 -0.2227
   71SLPC  H15B 6112   3.242   4.743  10.699 -2.9985  1.1320 -0.8805
   71SLPC  H15C 6113   3.203   4.868  10.808  0.7526 -1.2386  0.9607
   71SLPC   C12 6114   3.494   4.787  10.649  0.6441 -0.1824 -0.3915
   71SLPC  H12A 6115   3.461   4.838  10.559  3.2148  4.1971  0.8409
   71SLPC  H12B 6116   3.476   4.681  10.654  1.3911 -0.2493  1.2668
   71SLPC   C11 6117   3.645   4.811  10.653  0.1939 -0.7853  0.3244
   71SLPC  H11A 6118   3.682   4.753  10.566 -0.2063 -0.3654 -0.1321
   71SLPC  H11B 6119   3.694   4.758  10.738  1.5920 -0.3439 -0.1857
   71SLPC     P 6120   3.797   5.021  10.705  0.1674 -0.4498 -0.4383
   71SLPC   O13 6121   3.734   5.094  10.818 -0.0698 -0.2480 -0.3961
   71SLPC   O14 6122   3.909   4.928  10.738 -0.1273 -0.2034 -0.7559
   71SLPC   O12 6123   3.682   4.945  10.621  0.3059 -1.1626 -0.0003
   71SLPC   O11 6124   3.853   5.128  10.611  0.3982 -0.3165  0.0832
   71SLPC    C1 6125   3.778   5.214  10.526  0.3370 -0.5672 -0.4224
   71SLPC    HA 6126   3.668   5.202  10.540  0.0106  1.2169 -1.2004
   71SLPC    HB 6127   3.812   5.316  10.553  2.5709 -1.6864  1.3562
   71SLPC    C2 6128   3.803   5.190  10.379  0.0030  0.6153  0.5069
   71SLPC    HS 6129   3.743   5.264  10.322 -1.7537 -1.5375 -0.5804
   71SLPC   O21 6130   3.783   5.051  10.340  0.1789  0.5222 -1.0499
   71SLPC   C21 6131   3.657   5.026  10.324  0.2115  0.1631 -1.3805
   71SLPC   O22 6132   3.567   5.111  10.320 -0.3303 -0.1009  0.0122
   71SLPC   C22 6133   3.628   4.882  10.296  1.4878  0.4716 -0.0601
   71SLPC   H2R 6134   3.719   4.819  10.291  0.1363 -1.5328 -0.6788
   71SLPC   H2S 6135   3.576   4.829  10.379  1.4221 -2.4703 -1.8422
   71SLPC    C3 6136   3.948   5.228  10.344 -0.1801 -0.7524  0.4574
   71SLPC    HX 6137   4.020   5.161  10.396  2.2980  1.8665  0.6192
   71SLPC    HY 6138   3.971   5.330  10.382 -0.1823 -0.7627  0.4862
   71SLPC   O31 6139   3.976   5.216  10.197 -0.1079  0.1737  0.2532
   71SLPC   C31 6140   3.942   5.319  10.122 -0.2028  1.0541 -0.1939
   71SLPC   O32 6141   3.899   5.427  10.157 -0.0412 -0.2059  0.7075
   71SLPC   C32 6142   3.975   5.292   9.974  0.6798 -0.3252 -0.3430
   71SLPC   H2X 6143   4.038   5.203   9.954  1.3859 -0.0198  0.4630
   71SLPC   H2Y 6144   4.033   5.381   9.941 -0.2137  1.4522  2.5362
   71SLPC   C23 6145   3.536   4.865  10.178  0.0751 -0.0144  0.2233
   71SLPC   H3R 6146   3.433   4.904  10.189 -0.1470 -0.6619  0.4918
   71SLPC   H3S 6147   3.523   4.757  10.154 -0.8825  0.0467  0.4495
   71SLPC   C24 6148   3.593   4.921  10.044  0.0647 -0.0065 -0.0092
   71SLPC   H4R 6149   3.700   4.892  10.036  0.3498  1.2853 -1.0468
   71SLPC   H4S 6150   3.594   5.031  10.058  3.1685  0.0883 -0.1956
   71SLPC   C25 6151   3.513   4.876   9.926 -0.3433  0.4902 -0.3388
   71SLPC   H5R 6152   3.407   4.892   9.955 -0.6659 -0.2050 -1.1093
   71SLPC   H5S 6153   3.520   4.767   9.909 -1.3616  0.3023  0.3231
   71SLPC   C26 6154   3.554   4.944   9.793  0.4188  0.1218 -0.2269
   71SLPC   H6R 6155   3.664   4.950   9.789  0.3580  0.8282 -1.1096
   71SLPC   H6S 6156   3.508   5.045   9.790 -1.5475 -0.7171 -0.1192
   71SLPC   C27 6157   3.517   4.864   9.660  0.3252  0.1025 -0.0975
   71SLPC   H7R 6158   3.411   4.886   9.633  1.1023  0.8764 -2.8334
   71SLPC   H7S 6159   3.519   4.758   9.691  2.0451  0.0903 -0.1633
   71SLPC   C28 6160   3.617   4.884   9.554  0.1452  0.1133 -0.1276
   71SLPC   H8R 6161   3.723   4.885   9.588 -0.0611 -2.7557  0.8184
   71SLPC   H8S 6162   3.602   4.990   9.524  1.1379  0.5174  0.7576
   71SLPC   C29 6163   3.593   4.782   9.449  0.1934  0.8731  0.3809
   71SLPC   H9R 6164   3.599   4.678   9.482 -2.4247  0.4346 -0.3130
   71SLPC  C210 6165   3.571   4.793   9.317  0.3206  0.2641 -0.0320
   71SLPC  H10R 6166   3.547   4.698   9.267  2.2693 -0.3833  0.1859
   71SLPC  C211 6167   3.566   4.925   9.243  0.0575  0.6864  0.2632
   71SLPC  H11R 6168   3.596   5.009   9.308 -1.3409  0.6541  0.9859
   71SLPC  H11S 6169   3.459   4.934   9.215  0.5236 -0.9632 -2.4182
   71SLPC  C212 6170   3.656   4.921   9.121 -0.0557  0.1829  1.0672
   71SLPC  H12R 6171   3.752   4.868   9.122 -0.5975 -0.8495  0.2332
   71SLPC  C213 6172   3.633   4.998   9.012 -0.7095 -0.3420  0.0774
   71SLPC  H13R 6173   3.712   5.013   8.937  0.0762 -0.0143  0.9616
   71SLPC  C214 6174   3.523   5.097   8.997  0.3679 -0.5004 -0.3860
   71SLPC  H14R 6175   3.571   5.193   8.969  0.6777 -0.6414 -0.3443
   71SLPC  H14S 6176   3.460   5.099   9.088 -0.9025 -2.6405 -1.1407
   71SLPC  C215 6177   3.424   5.074   8.886  0.2105  0.1003 -0.0463
   71SLPC  H15R 6178   3.377   4.974   8.896  0.5026 -0.0361 -0.0041
   71SLPC  H15S 6179   3.476   5.060   8.789 -2.4168 -3.7823 -1.1081
   71SLPC  C216 6180   3.317   5.186   8.887 -0.2650  0.5000 -0.2788
   71SLPC  H16R 6181   3.378   5.278   8.896  1.4415 -0.4627 -1.4926
   71SLPC  H16S 6182   3.254   5.187   8.979 -0.7112  1.1717 -0.5919
   71SLPC  C217 6183   3.222   5.197   8.762  0.3356 -0.5502 -0.4594
   71SLPC  H17R 6184   3.174   5.297   8.753  0.1020 -0.8021 -2.2910
   71SLPC  H17S 6185   3.144   5.119   8.772  1.5397 -1.7165  0.1811
   71SLPC  C218 6186   3.302   5.168   8.639  0.3523 -0.1340  0.2999
   71SLPC  H18R 6187   3.316   5.059   8.621 -2.4464 -0.2848 -1.6747
   71SLPC  H18S 6188   3.403   5.213   8.636  0.2912 -0.0167 -0.0702
   71SLPC  H18T 6189   3.251   5.198   8.545  1.0187  1.4104  0.4109
   71SLPC   C33 6190   3.841   5.267   9.892  0.4376  0.4344 -0.1789
   71SLPC   H3X 6191   3.760   5.342   9.902 -1.0229 -0.9833 -1.0730
   71SLPC   H3Y 6192   3.794   5.170   9.917  1.9533 -0.4890 -0.7155
   71SLPC   C34 6193   3.871   5.263   9.741  0.1267  0.7414 -0.1014
   71SLPC   H4X 6194   3.939   5.178   9.719 -0.9618  0.0451 -0.8729
   71SLPC   H4Y 6195   3.922   5.359   9.716 -1.9791  2.3889  1.5134
   71SLPC   C35 6196   3.743   5.258   9.651 -0.1875 -0.9626  0.0856
   71SLPC   H5X 6197   3.666   5.333   9.679  1.3982  1.3879 -1.5461
   71SLPC   H5Y 6198   3.689   5.160   9.654 -3.9940  0.8159 -2.2563
   71SLPC   C36 6199   3.777   5.285   9.503  0.4946  0.2763  0.2454
   71SLPC   H6X 6200   3.811   5.391   9.503 -1.2761  0.8702  0.8606
   71SLPC   H6Y 6201   3.687   5.285   9.438  0.6661 -1.3269 -0.0404
   71SLPC   C37 6202   3.869   5.182   9.447 -0.5142  0.1455  0.1666
   71SLPC   H7X 6203   3.824   5.080   9.449 -3.1600  1.2436  0.7199
   71SLPC   H7Y 6204   3.959   5.175   9.512 -1.0633  2.4181  1.2563
   71SLPC   C38 6205   3.914   5.221   9.308  0.0451  0.7172  1.2746
   71SLPC   H8X 6206   4.001   5.290   9.314  0.8074  0.3125 -2.6269
   71SLPC   H8Y 6207   3.830   5.265   9.250 -0.6501 -1.3682  0.6263
   71SLPC   C39 6208   3.950   5.098   9.218 -0.5910 -0.3722  0.3333
   71SLPC   H9X 6209   3.851   5.051   9.202 -0.6092 -0.5528  0.9433
   71SLPC   H9Y 6210   4.016   5.034   9.281  0.1225  1.7257  1.8219
   71SLPC  C310 6211   4.024   5.116   9.082 -0.6271  0.0734  0.3340
   71SLPC  H10X 6212   4.050   5.017   9.040  1.1568  0.0379  1.4267
   71SLPC  H10Y 6213   4.119   5.161   9.119 -0.6133  0.3039  0.0199
   71SLPC  C311 6214   3.958   5.208   8.982  0.3113 -0.4486 -1.3650
   71SLPC  H11X 6215   3.955   5.311   9.024  0.1326 -0.3803 -1.5428
   71SLPC  H11Y 6216   3.851   5.181   8.971 -0.0197 -0.2973  1.0931
   71SLPC  C312 6217   4.024   5.217   8.843 -0.1009 -0.5405 -0.0121
   71SLPC  H12X 6218   3.980   5.129   8.791 -3.3596  1.2926 -0.6773
   71SLPC  H12Y 6219   4.134   5.207   8.839 -0.0070  0.5540 -0.6412
   71SLPC  C313 6220   3.983   5.346   8.776 -0.1030 -0.3603  0.4153
   71SLPC  H13X 6221   4.044   5.366   8.685  1.4936  0.1872  1.5511
   71SLPC  H13Y 6222   3.998   5.442   8.830 -1.9040 -0.0840  0.4684
   71SLPC  C314 6223   3.828   5.361   8.748 -0.2697  0.0946 -0.2051
   71SLPC  H14X 6224   3.769   5.342   8.840 -1.4202  1.9810 -0.5018
   71SLPC  H14Y 6225   3.801   5.279   8.678 -0.3093  1.1033 -1.3971
   71SLPC  C315 6226   3.775   5.499   8.703  0.0796  0.5785 -0.1749
   71SLPC  H15X 6227   3.806   5.509   8.597 -0.0889  0.0699 -0.2742
   71SLPC  H15Y 6228   3.840   5.576   8.749  1.7166 -1.5658  1.3328
   71SLPC  C316 6229   3.629   5.523   8.722 -0.0492  0.0240  0.4247
   71SLPC  H16X 6230   3.594   5.495   8.824 -1.1737  0.9694  0.3075
   71SLPC  H16Y 6231   3.579   5.458   8.647  0.3903  1.2420 -0.9569
   71SLPC  C317 6232   3.588   5.670   8.688  0.0086  0.1876 -0.1583
   71SLPC  H17X 6233   3.615   5.686   8.582  2.0294 -1.8769 -0.0415
   71SLPC  H17Y 6234   3.642   5.742   8.753  1.5985 -2.0150  1.1178
   71SLPC  C318 6235   3.440   5.712   8.704  0.1533  0.2448  0.2936
   71SLPC  H18X 6236   3.391   5.678   8.798  0.1440  3.9130  1.7781
   71SLPC  H18Y 6237   3.394   5.667   8.613  0.8798 -0.7273  0.3892
   71SLPC  H18Z 6238   3.447   5.822   8.713  3.3728 -0.0178  3.3585
   72SLPC     N 6239   5.244   3.974  10.611  0.8218  0.4417  0.1030
   72SLPC   C13 6240   5.235   3.824  10.644 -0.2683 -0.1093 -0.2278
   72SLPC  H13A 6241   5.168   3.786  10.569 -0.6408  2.2579 -1.1639
   72SLPC  H13B 6242   5.328   3.770  10.640 -1.0388 -1.6173  1.0488
   72SLPC  H13C 6243   5.201   3.807  10.746 -0.9356  1.6109 -0.1283
   72SLPC   C14 6244   5.360   4.031  10.689 -0.1715  0.9290  0.6658
   72SLPC  H14A 6245   5.333   4.004  10.790 -0.2569  1.0185  0.6681
   72SLPC  H14B 6246   5.456   3.989  10.663  0.1960  2.6266 -0.9523
   72SLPC  H14C 6247   5.371   4.139  10.689  0.3442  0.8777  0.7483
   72SLPC   C15 6248   5.120   4.031  10.675  0.0919 -0.0282 -0.3785
   72SLPC  H15A 6249   5.106   3.993  10.775  1.0282 -0.8494 -0.5378
   72SLPC  H15B 6250   5.116   4.139  10.675 -2.6078 -0.0271 -2.2840
   72SLPC  H15C 6251   5.032   4.001  10.620  0.2443  0.8809 -1.1517
   72SLPC   C12 6252   5.249   4.004  10.468  0.3960  0.2054  0.1997
   72SLPC  H12A 6253   5.270   4.110  10.460  0.2383  0.1566 -1.1091
   72SLPC  H12B 6254   5.146   3.991  10.437 -0.1690  1.2195  1.5617
   72SLPC   C11 6255   5.343   3.921  10.374 -0.7472 -0.3601  0.0476
   72SLPC  H11A 6256   5.336   3.951  10.267  1.2090  0.9272  0.2420
   72SLPC  H11B 6257   5.300   3.818  10.372 -0.8885 -0.3102 -2.2618
   72SLPC     P 6258   5.564   3.801  10.471 -0.3082  0.1346  0.2002
   72SLPC   O13 6259   5.699   3.810  10.411  0.1018  0.0096 -0.0383
   72SLPC   O14 6260   5.555   3.815  10.623 -0.0243  0.0250  0.5081
   72SLPC   O12 6261   5.488   3.917  10.404 -0.0667 -0.3817  0.5142
   72SLPC   O11 6262   5.478   3.672  10.421 -0.3938  0.2731  0.6938
   72SLPC    C1 6263   5.462   3.637  10.285  0.1904 -0.1345  0.3308
   72SLPC    HA 6264   5.361   3.590  10.276 -1.2354  2.7093  0.3729
   72SLPC    HB 6265   5.441   3.722  10.216 -2.7235 -0.5637  0.5564
   72SLPC    C2 6266   5.567   3.538  10.236 -0.1945  0.0099 -0.5357
   72SLPC    HS 6267   5.660   3.597  10.225 -1.3887  1.4880 -3.8689
   72SLPC   O21 6268   5.515   3.487  10.112  0.1373  0.1137  0.2982
   72SLPC   C21 6269   5.596   3.492  10.004 -0.3319 -0.6289 -0.3483
   72SLPC   O22 6270   5.689   3.571   9.991 -0.4045 -0.1177  0.3242
   72SLPC   C22 6271   5.558   3.378   9.921  0.1228  0.3854 -0.1964
   72SLPC   H2R 6272   5.648   3.316   9.944 -0.4553 -0.1055  0.8059
   72SLPC   H2S 6273   5.469   3.325   9.960 -0.0410  0.9910  0.2590
   72SLPC    C3 6274   5.615   3.424  10.330 -0.0045 -0.0493  0.0838
   72SLPC    HX 6275   5.528   3.356  10.343  0.1288 -0.0560  0.9759
   72SLPC    HY 6276   5.633   3.453  10.435 -0.2076 -1.1822  0.4515
   72SLPC   O31 6277   5.729   3.350  10.273  0.1995  0.0561  0.2701
   72SLPC   C31 6278   5.843   3.406  10.257  0.6503 -0.8246  0.2897
   72SLPC   O32 6279   5.871   3.523  10.279 -0.5439  0.3390 -0.0267
   72SLPC   C32 6280   5.961   3.304  10.238  0.8475  1.2782 -0.4566
   72SLPC   H2X 6281   5.924   3.215  10.182 -1.3112  1.3915  0.6869
   72SLPC   H2Y 6282   5.987   3.287  10.344 -0.3261  1.2914 -0.1591
   72SLPC   C23 6283   5.564   3.413   9.772  0.1015 -0.1805 -1.0495
   72SLPC   H3R 6284   5.530   3.320   9.722 -1.1390 -0.6750  0.6274
   72SLPC   H3S 6285   5.669   3.437   9.743  0.3353  0.1391  0.0236
   72SLPC   C24 6286   5.484   3.532   9.719  0.1900  0.5891 -0.1519
   72SLPC   H4R 6287   5.540   3.625   9.741  0.3968  0.8615 -1.6783
   72SLPC   H4S 6288   5.388   3.524   9.775 -0.5739  0.0849 -1.4707
   72SLPC   C25 6289   5.461   3.531   9.568 -0.2735 -0.1579 -0.1198
   72SLPC   H5R 6290   5.559   3.544   9.517  0.7619  0.0881  1.8545
   72SLPC   H5S 6291   5.387   3.613   9.552 -1.3623 -1.2266 -0.7118
   72SLPC   C26 6292   5.395   3.408   9.504  0.3597  0.0630 -0.1274
   72SLPC   H6R 6293   5.286   3.408   9.527  0.2599  1.4888 -0.5015
   72SLPC   H6S 6294   5.448   3.315   9.534  2.8900  1.1039 -1.0570
   72SLPC   C27 6295   5.392   3.406   9.349 -0.0613 -0.6497 -0.0872
   72SLPC   H7R 6296   5.354   3.309   9.311  0.9675 -1.0830 -0.0650
   72SLPC   H7S 6297   5.498   3.411   9.314 -0.1304 -2.4079 -0.6579
   72SLPC   C28 6298   5.312   3.527   9.285 -0.0833 -0.0964  0.0986
   72SLPC   H8R 6299   5.361   3.620   9.319  1.2817 -0.9738  0.6238
   72SLPC   H8S 6300   5.209   3.522   9.327  0.0844  0.1249  0.5421
   72SLPC   C29 6301   5.332   3.517   9.131  0.1508  0.0098 -0.6179
   72SLPC   H9R 6302   5.434   3.491   9.099  0.8816 -0.2894  1.7233
   72SLPC  C210 6303   5.239   3.540   9.035  0.1065 -0.4036  0.0260
   72SLPC  H10R 6304   5.272   3.517   8.933  0.7019  2.1734 -0.4248
   72SLPC  C211 6305   5.090   3.574   9.050  0.8026 -0.3460  0.1798
   72SLPC  H11R 6306   5.070   3.623   9.148  1.2751  1.4537 -0.5789
   72SLPC  H11S 6307   5.031   3.480   9.046 -0.9874  0.5542  2.6775
   72SLPC  C212 6308   5.043   3.675   8.947  0.9822 -0.3786  0.3075
   72SLPC  H12R 6309   5.040   3.780   8.980  0.3534 -0.1559 -0.4335
   72SLPC  C213 6310   4.997   3.645   8.821  0.2432 -0.4801  0.2453
   72SLPC  H13R 6311   4.951   3.723   8.760  2.2718  0.7274  0.1404
   72SLPC  C214 6312   4.981   3.507   8.754  0.5234 -0.7195 -0.4937
   72SLPC  H14R 6313   5.011   3.435   8.832  0.1970  1.3232  1.6283
   72SLPC  H14S 6314   5.062   3.481   8.683  1.9262 -3.5518  1.9111
   72SLPC  C215 6315   4.843   3.473   8.693  0.5395 -0.0711  0.6099
   72SLPC  H15R 6316   4.811   3.557   8.627  2.7808 -0.1167 -0.6402
   72SLPC  H15S 6317   4.755   3.454   8.758  0.5121 -2.6770 -0.0974
   72SLPC  C216 6318   4.851   3.353   8.583  0.6130 -0.2560  0.1969
   72SLPC  H16R 6319   4.749   3.333   8.544  1.1380 -1.4890 -0.5857
   72SLPC  H16S 6320   4.873   3.254   8.629 -1.5802 -1.2936 -0.8499
   72SLPC  C217 6321   4.962   3.371   8.477 -0.6756  0.1049 -0.1589
   72SLPC  H17R 6322   5.061   3.333   8.510 -0.7681 -1.5316 -1.6019
   72SLPC  H17S 6323   4.985   3.478   8.456  1.3685  0.1327  1.7859
   72SLPC  C218 6324   4.942   3.281   8.350 -0.3852 -0.0335 -0.1608
   72SLPC  H18R 6325   5.003   3.318   8.265  0.8189 -0.5588  0.4392
   72SLPC  H18S 6326   4.837   3.285   8.315  0.1512 -1.1127 -2.0366
   72SLPC  H18T 6327   4.963   3.173   8.369  0.9373  0.2943  0.4151
   72SLPC   C33 6328   6.077   3.371  10.160 -0.2868  0.1280  0.5514
   72SLPC   H3X 6329   6.162   3.299  10.153 -1.2202 -1.0221  0.5992
   72SLPC   H3Y 6330   6.102   3.461  10.219  0.8485  0.3461 -0.2454
   72SLPC   C34 6331   6.033   3.413  10.015 -0.2130  0.1173 -0.0169
   72SLPC   H4X 6332   6.118   3.466   9.967 -0.4360  1.3864  0.9191
   72SLPC   H4Y 6333   5.940   3.474  10.023 -0.7977 -0.8889  1.2776
   72SLPC   C35 6334   5.992   3.289   9.922 -0.3612  0.5528 -0.2285
   72SLPC   H5X 6335   5.911   3.232   9.972  0.9894 -1.7026 -0.4760
   72SLPC   H5Y 6336   6.079   3.221   9.908 -0.3859  0.3970  0.3208
   72SLPC   C36 6337   5.935   3.333   9.792  0.3018 -0.2816  0.3253
   72SLPC   H6X 6338   6.023   3.373   9.738  0.6833 -3.8026 -1.9583
   72SLPC   H6Y 6339   5.856   3.412   9.793  0.4779 -0.0551 -1.1169
   72SLPC   C37 6340   5.894   3.220   9.701  0.3409  0.3239 -0.5035
   72SLPC   H7X 6341   5.801   3.171   9.737  0.1601  1.1906  0.2091
   72SLPC   H7Y 6342   5.963   3.133   9.700  0.8222  0.6849 -2.3287
   72SLPC   C38 6343   5.882   3.266   9.552  0.2833  0.1833 -0.1967
   72SLPC   H8X 6344   5.978   3.311   9.517 -1.3132  1.0962 -3.9282
   72SLPC   H8Y 6345   5.803   3.343   9.547  2.7240  2.8093 -1.4249
   72SLPC   C39 6346   5.854   3.148   9.462  0.0151 -1.4059 -0.3518
   72SLPC   H9X 6347   5.748   3.116   9.472  0.3717 -2.2564  0.9553
   72SLPC   H9Y 6348   5.927   3.068   9.487  2.0214  0.6933  0.9120
   72SLPC  C310 6349   5.880   3.170   9.313  0.4887 -0.8625 -0.4299
   72SLPC  H10X 6350   5.891   3.070   9.266 -2.6438 -1.1726 -0.7368
   72SLPC  H10Y 6351   5.979   3.218   9.300 -0.0053  0.3807  0.1845
   72SLPC  C311 6352   5.759   3.233   9.246  0.0320 -0.5038  0.4826
   72SLPC  H11X 6353   5.753   3.340   9.277  0.3775 -0.4827  0.4787
   72SLPC  H11Y 6354   5.672   3.180   9.291  0.4215 -1.4445  0.1384
   72SLPC  C312 6355   5.754   3.213   9.089 -0.1996  0.1549 -0.6410
   72SLPC  H12X 6356   5.759   3.104   9.068 -1.3992  0.2951 -1.8258
   72SLPC  H12Y 6357   5.844   3.260   9.043 -0.6076 -0.7537 -2.4411
   72SLPC  C313 6358   5.623   3.270   9.027  0.0743 -0.2740 -0.2973
   72SLPC  H13X 6359   5.610   3.377   9.054  2.5790 -0.3512  1.4976
   72SLPC  H13Y 6360   5.534   3.211   9.060 -0.0657  0.4374  0.6389
   72SLPC  C314 6361   5.626   3.271   8.870 -0.0167  0.1564 -1.3567
   72SLPC  H14X 6362   5.658   3.174   8.827 -2.1323 -0.3721 -1.8321
   72SLPC  H14Y 6363   5.708   3.340   8.839  0.3158 -0.2831 -1.4798
   72SLPC  C315 6364   5.492   3.312   8.812 -0.0017 -0.0553 -0.0900
   72SLPC  H15X 6365   5.476   3.419   8.836 -0.0228  0.1683 -1.0725
   72SLPC  H15Y 6366   5.409   3.245   8.845 -1.5840  1.3399 -1.1188
   72SLPC  C316 6367   5.493   3.300   8.661  0.0985  0.3022 -0.0278
   72SLPC  H16X 6368   5.490   3.193   8.633 -0.6200  0.5909 -1.0893
   72SLPC  H16Y 6369   5.592   3.337   8.626  0.3991  1.6901  2.0712
   72SLPC  C317 6370   5.376   3.379   8.599 -0.2134 -0.3431  0.6163
   72SLPC  H17X 6371   5.399   3.485   8.623 -2.7584  0.6006 -0.7996
   72SLPC  H17Y 6372   5.279   3.356   8.647 -0.5793 -0.1461 -0.0220
   72SLPC  C318 6373   5.359   3.370   8.446  0.1611  0.1240  0.5160
   72SLPC  H18X 6374   5.279   3.441   8.415  0.0256 -0.0319  0.5077
   72SLPC  H18Y 6375   5.335   3.264   8.424  2.2693  0.1090 -2.1904
   72SLPC  H18Z 6376   5.446   3.393   8.381  1.9143 -0.0565  2.6828
   73SLPC     N 6377   5.651   1.517  10.740  0.6199 -0.2472  0.0403
   73SLPC   C13 6378   5.787   1.530  10.787  0.8811 -0.0610  0.5054
   73SLPC  H13A 6379   5.822   1.631  10.772 -1.5108  0.7113 -0.1951
   73SLPC  H13B 6380   5.798   1.502  10.891 -1.9520  1.3867  1.2999
   73SLPC  H13C 6381   5.853   1.473  10.723 -1.5223  0.4885 -2.6952
   73SLPC   C14 6382   5.551   1.572  10.837 -0.1623 -0.6154 -0.5003
   73SLPC  H14A 6383   5.569   1.530  10.935  1.1035 -0.0752 -0.4855
   73SLPC  H14B 6384   5.560   1.679  10.851 -0.7007 -0.6417  0.1409
   73SLPC  H14C 6385   5.449   1.565  10.802 -0.5945  1.3774  0.2154
   73SLPC   C15 6386   5.622   1.374  10.723  0.1242 -0.4764  0.0724
   73SLPC  H15A 6387   5.646   1.314  10.810  0.5626 -0.1588  0.1775
   73SLPC  H15B 6388   5.526   1.353  10.680 -1.3889  2.4095  1.6852
   73SLPC  H15C 6389   5.697   1.341  10.653  0.0403  1.0532 -0.7655
   73SLPC   C12 6390   5.643   1.596  10.613  0.2889  0.1857  0.2150
   73SLPC  H12A 6391   5.668   1.698  10.638 -1.6158  0.7409  0.0190
   73SLPC  H12B 6392   5.542   1.595  10.575  0.4094 -1.2553 -0.1260
   73SLPC   C11 6393   5.737   1.561  10.492 -0.0476 -0.3446 -0.6507
   73SLPC  H11A 6394   5.708   1.616  10.400  1.3482 -1.0581 -1.5657
   73SLPC  H11B 6395   5.719   1.453  10.471 -0.1636 -0.5125  0.2681
   73SLPC     P 6396   5.942   1.711  10.533  0.0394  0.3637 -0.6628
   73SLPC   O13 6397   5.851   1.793  10.615  0.1685 -0.1784 -0.0679
   73SLPC   O14 6398   6.077   1.695  10.588 -0.1855 -0.1060  0.2553
   73SLPC   O12 6399   5.876   1.571  10.519  0.6090 -0.1670  0.5970
   73SLPC   O11 6400   5.948   1.767  10.387 -0.2508  0.2449  0.6565
   73SLPC    C1 6401   6.009   1.685  10.287  0.0723 -0.3609 -0.0699
   73SLPC    HA 6402   6.117   1.708  10.270  0.0767 -1.6956 -2.2019
   73SLPC    HB 6403   6.014   1.577  10.312  0.1197 -0.5028 -0.6688
   73SLPC    C2 6404   5.940   1.717  10.156  0.1836  0.0027  0.1600
   73SLPC    HS 6405   5.917   1.826  10.156  0.0118 -0.0334  0.1432
   73SLPC   O21 6406   5.816   1.641  10.157 -0.1506 -0.5953 -0.6626
   73SLPC   C21 6407   5.703   1.694  10.115 -0.1214 -0.1630  0.0278
   73SLPC   O22 6408   5.697   1.793  10.048 -0.2297 -0.3773 -0.0461
   73SLPC   C22 6409   5.584   1.604  10.143  0.0494 -0.7866  0.4962
   73SLPC   H2R 6410   5.619   1.499  10.148 -0.3150 -0.9675 -0.4520
   73SLPC   H2S 6411   5.537   1.650  10.233 -0.0101  0.0106  0.0668
   73SLPC    C3 6412   6.027   1.685  10.033  0.5174  0.3107 -0.2671
   73SLPC    HX 6413   6.043   1.576  10.045 -1.9478 -0.0071  0.7775
   73SLPC    HY 6414   6.124   1.739  10.037 -0.1370  1.4703  0.5942
   73SLPC   O31 6415   5.948   1.705   9.908  0.4383  0.4019 -0.2683
   73SLPC   C31 6416   5.939   1.825   9.864  0.7076  0.1571 -0.2304
   73SLPC   O32 6417   5.988   1.926   9.923  0.5267  0.0870  0.2412
   73SLPC   C32 6418   5.871   1.827   9.727  0.4780  0.3038 -0.0506
   73SLPC   H2X 6419   5.841   1.724   9.698  0.0046  0.8010 -1.4072
   73SLPC   H2Y 6420   5.955   1.848   9.657 -0.0228 -0.8808 -1.0354
   73SLPC   C23 6421   5.477   1.609  10.032  0.0634  0.1889  0.8731
   73SLPC   H3R 6422   5.456   1.712   9.998 -0.4137  0.1064  0.9107
   73SLPC   H3S 6423   5.388   1.552  10.066  0.4167 -2.2974 -1.9015
   73SLPC   C24 6424   5.528   1.542   9.908  0.1878  0.9579  0.0420
   73SLPC   H4R 6425   5.536   1.433   9.927  1.2798  0.8056 -1.1662
   73SLPC   H4S 6426   5.631   1.578   9.884  0.3361  0.6842  0.2593
   73SLPC   C25 6427   5.427   1.565   9.788  0.3752  0.1304  0.4218
   73SLPC   H5R 6428   5.416   1.675   9.775 -2.6765 -0.0800  0.5318
   73SLPC   H5S 6429   5.327   1.527   9.817  0.3408 -0.3788 -0.3403
   73SLPC   C26 6430   5.455   1.496   9.660 -0.1391 -0.0565  0.7046
   73SLPC   H6R 6431   5.424   1.392   9.680 -2.4500  0.3934 -0.2324
   73SLPC   H6S 6432   5.563   1.496   9.633 -0.1098 -5.5831 -0.3034
   73SLPC   C27 6433   5.380   1.558   9.540 -0.3673 -0.6603  0.0859
   73SLPC   H7R 6434   5.431   1.657   9.535  0.8360 -1.2370  0.5924
   73SLPC   H7S 6435   5.272   1.558   9.567 -0.4628 -0.5680 -0.2861
   73SLPC   C28 6436   5.409   1.471   9.418 -0.0882 -0.4087  0.5334
   73SLPC   H8R 6437   5.387   1.364   9.442  0.6287 -0.4820  0.8966
   73SLPC   H8S 6438   5.517   1.471   9.392 -0.2242 -0.5373 -0.0424
   73SLPC   C29 6439   5.321   1.512   9.305 -0.0372 -0.0506  0.2923
   73SLPC   H9R 6440   5.222   1.555   9.329  1.4343  2.6219  2.2248
   73SLPC  C210 6441   5.352   1.486   9.177 -0.1688 -0.3456  0.0359
   73SLPC  H10R 6442   5.289   1.544   9.108 -0.9000 -0.0432  0.9435
   73SLPC  C211 6443   5.485   1.448   9.123  0.7420  0.1221 -0.3096
   73SLPC  H11R 6444   5.577   1.477   9.179  0.6406  3.6290 -1.6550
   73SLPC  H11S 6445   5.505   1.509   9.032 -2.8242  1.6408 -0.2572
   73SLPC  C212 6446   5.511   1.296   9.102 -0.2180  0.2982  0.3121
   73SLPC  H12R 6447   5.522   1.218   9.178 -2.1576 -2.6175 -2.1374
   73SLPC  C213 6448   5.509   1.245   8.975 -0.3975  0.0616  0.0556
   73SLPC  H13R 6449   5.511   1.136   8.960  0.8266 -0.3775  2.8079
   73SLPC  C214 6450   5.492   1.325   8.846 -0.8681 -0.1799 -0.5432
   73SLPC  H14R 6451   5.579   1.390   8.824 -0.0377 -1.0893 -0.0508
   73SLPC  H14S 6452   5.412   1.402   8.853 -0.0122  0.6504  0.4474
   73SLPC  C215 6453   5.480   1.234   8.725  0.0755 -0.1406  0.3347
   73SLPC  H15R 6454   5.384   1.180   8.729  0.4101 -0.9108 -1.1156
   73SLPC  H15S 6455   5.556   1.153   8.724 -2.0096 -2.1834  0.1141
   73SLPC  C216 6456   5.478   1.317   8.596 -0.7114  0.8221  0.2733
   73SLPC  H16R 6457   5.581   1.360   8.588 -1.4744  2.9202  1.1489
   73SLPC  H16S 6458   5.407   1.402   8.607  0.4691  1.9825 -0.6384
   73SLPC  C217 6459   5.434   1.243   8.461 -0.6565 -0.2919 -0.8163
   73SLPC  H17R 6460   5.471   1.139   8.464 -0.2444 -0.1241  0.2687
   73SLPC  H17S 6461   5.489   1.292   8.378  1.8358  1.3220  1.5814
   73SLPC  C218 6462   5.289   1.238   8.430 -0.3016  0.0149 -0.2724
   73SLPC  H18R 6463   5.269   1.214   8.323  0.9778  0.9286 -0.7409
   73SLPC  H18S 6464   5.228   1.325   8.462  0.2887  0.0225  0.8788
   73SLPC  H18T 6465   5.258   1.149   8.489 -2.6386  1.6400  1.1140
   73SLPC   C33 6466   5.744   1.925   9.716 -0.1737  0.2065  0.2737
   73SLPC   H3X 6467   5.775   2.031   9.710 -0.0448  0.1392 -0.2891
   73SLPC   H3Y 6468   5.674   1.915   9.801 -1.9993 -0.6650 -1.2582
   73SLPC   C34 6469   5.654   1.890   9.599  0.4873 -0.6316 -0.0302
   73SLPC   H4X 6470   5.572   1.963   9.615  2.9979  1.8773  2.5739
   73SLPC   H4Y 6471   5.606   1.792   9.617 -1.9292  0.2562 -1.2482
   73SLPC   C35 6472   5.719   1.889   9.464 -0.2008  0.3451  0.2516
   73SLPC   H5X 6473   5.823   1.851   9.465 -0.6585 -0.9436  1.1498
   73SLPC   H5Y 6474   5.723   1.991   9.420  0.6804 -0.3212 -1.2795
   73SLPC   C36 6475   5.635   1.817   9.357  0.1591 -0.0211 -0.9108
   73SLPC   H6X 6476   5.527   1.841   9.368  0.2135 -0.8049  2.5580
   73SLPC   H6Y 6477   5.638   1.707   9.371 -0.7557  0.0142 -0.3242
   73SLPC   C37 6478   5.683   1.860   9.216  0.7802  0.1972  0.2315
   73SLPC   H7X 6479   5.791   1.834   9.214  1.2384  1.6643  2.3997
   73SLPC   H7Y 6480   5.664   1.970   9.214 -1.2193 -0.0324  2.4027
   73SLPC   C38 6481   5.604   1.797   9.105 -0.4055  0.3582 -0.2614
   73SLPC   H8X 6482   5.498   1.829   9.113 -1.2292 -2.2024  0.1075
   73SLPC   H8Y 6483   5.605   1.686   9.115  2.2558  0.4190  1.3367
   73SLPC   C39 6484   5.669   1.833   8.974 -0.1628  0.4676  0.5410
   73SLPC   H9X 6485   5.779   1.841   8.973  0.3280 -3.1485 -3.5667
   73SLPC   H9Y 6486   5.624   1.932   8.952 -0.1623 -0.1589 -2.7124
   73SLPC  C310 6487   5.622   1.740   8.858  0.1040  0.0911 -0.2951
   73SLPC  H10X 6488   5.512   1.745   8.851  0.1246  1.4888  0.0288
   73SLPC  H10Y 6489   5.646   1.634   8.881  0.9862 -0.2086 -2.3068
   73SLPC  C311 6490   5.688   1.788   8.727  0.2984 -0.3533 -0.2903
   73SLPC  H11X 6491   5.798   1.768   8.731  0.2284 -0.9630 -1.1461
   73SLPC  H11Y 6492   5.666   1.895   8.707  0.1788  0.4976  3.6106
   73SLPC  C312 6493   5.629   1.708   8.609  0.1609  0.0985  0.0578
   73SLPC  H12X 6494   5.518   1.713   8.616  0.1934  0.6322  0.2892
   73SLPC  H12Y 6495   5.659   1.603   8.624 -0.5799 -0.4197 -1.7929
   73SLPC  C313 6496   5.661   1.771   8.472 -0.0933 -0.3317  0.0208
   73SLPC  H13X 6497   5.772   1.766   8.470 -0.1296 -1.6085  0.3215
   73SLPC  H13Y 6498   5.615   1.872   8.476  2.5852  0.9449  0.8821
   73SLPC  C314 6499   5.630   1.681   8.353 -0.2586 -0.5249  0.4078
   73SLPC  H14X 6500   5.521   1.659   8.354 -0.6458  1.1518  1.6702
   73SLPC  H14Y 6501   5.690   1.588   8.360 -1.7608 -1.8747 -2.7608
   73SLPC  C315 6502   5.654   1.770   8.231 -0.1987 -0.2052  1.1235
   73SLPC  H15X 6503   5.758   1.807   8.240  0.5019 -1.0161 -2.1394
   73SLPC  H15Y 6504   5.591   1.861   8.238  2.4128  1.9009 -0.6915
   73SLPC  C316 6505   5.628   1.694   8.101  0.2118 -0.1197  0.0927
   73SLPC  H16X 6506   5.615   1.757   8.011 -2.9460 -2.1451 -1.0104
   73SLPC  H16Y 6507   5.531   1.643   8.122 -0.3345  1.0197  0.3991
   73SLPC  C317 6508   5.743   1.587   8.071 -0.3735 -0.2713 -0.1689
   73SLPC  H17X 6509   5.762   1.529   8.163 -2.4087  2.0030  1.8548
   73SLPC  H17Y 6510   5.840   1.640   8.062 -1.4231  1.5158 -2.4439
   73SLPC  C318 6511   5.726   1.498   7.944  0.1234  0.0868 -0.0801
   73SLPC  H18X 6512   5.750   1.553   7.851  0.0863  1.5929  0.7663
   73SLPC  H18Y 6513   5.621   1.462   7.938 -0.2704  1.1906 -0.1068
   73SLPC  H18Z 6514   5.799   1.414   7.943  0.0343  0.0151 -0.8770
   74SLPC     N 6515   6.281   3.794  10.698  0.6124  0.2004  0.8140
   74SLPC   C13 6516   6.278   3.710  10.832  0.1882 -0.8186  0.5700
   74SLPC  H13A 6517   6.378   3.693  10.871 -0.1058 -0.1839  1.6597
   74SLPC  H13B 6518   6.223   3.760  10.911  2.3509  0.8609  1.1513
   74SLPC  H13C 6519   6.238   3.612  10.814  0.3929 -0.9285  0.7090
   74SLPC   C14 6520   6.349   3.926  10.720  0.8090 -0.0841 -0.3693
   74SLPC  H14A 6521   6.342   3.953  10.824  1.9572  2.7293 -0.9247
   74SLPC  H14B 6522   6.452   3.909  10.693  0.2643 -2.7190 -1.0329
   74SLPC  H14C 6523   6.307   4.004  10.658 -1.5185 -0.2451  0.8861
   74SLPC   C15 6524   6.137   3.805  10.662 -0.2703 -0.0382 -0.2431
   74SLPC  H15A 6525   6.097   3.706  10.646 -0.5546  0.0920 -0.3402
   74SLPC  H15B 6526   6.074   3.836  10.744 -1.7386 -1.0054 -0.9651
   74SLPC  H15C 6527   6.118   3.861  10.572 -3.0593 -2.2596 -1.1757
   74SLPC   C12 6528   6.349   3.715  10.589  0.1582  0.2610  0.1780
   74SLPC  H12A 6529   6.358   3.777  10.501 -0.6653 -0.4076 -0.3958
   74SLPC  H12B 6530   6.297   3.625  10.561  2.0228 -0.3862 -1.4156
   74SLPC   C11 6531   6.493   3.676  10.619  0.1320  0.2090  0.2595
   74SLPC  H11A 6532   6.514   3.585  10.558  1.4643  0.4047  0.3999
   74SLPC  H11B 6533   6.497   3.637  10.723 -1.1498  0.7541  0.5361
   74SLPC     P 6534   6.641   3.800  10.449 -0.3574  0.0490 -0.2136
   74SLPC   O13 6535   6.526   3.839  10.368  0.2264  0.1399 -0.3947
   74SLPC   O14 6536   6.757   3.892  10.448 -0.5787  0.2122  0.1361
   74SLPC   O12 6537   6.586   3.778  10.595  0.1511 -0.1810 -0.0600
   74SLPC   O11 6538   6.683   3.653  10.408  0.1381 -0.5300  0.1859
   74SLPC    C1 6539   6.763   3.638  10.296 -0.6755  0.2902 -0.4216
   74SLPC    HA 6540   6.783   3.726  10.231 -0.3460  1.0224  0.6412
   74SLPC    HB 6541   6.860   3.591  10.322 -1.8083 -2.3669 -0.7260
   74SLPC    C2 6542   6.712   3.527  10.200 -0.3231  0.0960  0.2738
   74SLPC    HS 6543   6.791   3.490  10.132 -1.5358 -2.2079  0.0424
   74SLPC   O21 6544   6.598   3.578  10.123 -0.1180 -0.1735 -0.2105
   74SLPC   C21 6545   6.620   3.667  10.025 -0.4465 -1.0197 -0.1310
   74SLPC   O22 6546   6.732   3.692   9.984  0.3827 -0.3810 -0.5742
   74SLPC   C22 6547   6.496   3.751   9.986 -0.5026  0.6059  0.2150
   74SLPC   H2R 6548   6.446   3.787  10.079 -2.7620  0.1764 -0.7592
   74SLPC   H2S 6549   6.538   3.837   9.931  1.5272 -0.0547  0.6341
   74SLPC    C3 6550   6.651   3.407  10.278 -0.1806  0.6959 -0.1336
   74SLPC    HX 6551   6.559   3.446  10.327 -1.0579 -0.6835 -0.6246
   74SLPC    HY 6552   6.730   3.376  10.350 -0.0498  2.0959  0.3648
   74SLPC   O31 6553   6.621   3.291  10.200  0.1708 -0.6167  0.0289
   74SLPC   C31 6554   6.498   3.270  10.159 -0.4834 -0.0116 -0.4676
   74SLPC   O32 6555   6.400   3.332  10.191  0.6733  0.1804  0.3198
   74SLPC   C32 6556   6.488   3.158  10.058  0.0035  0.8264  0.2601
   74SLPC   H2X 6557   6.435   3.073  10.108  2.1543 -0.2213  0.8812
   74SLPC   H2Y 6558   6.592   3.122  10.043 -0.4707 -0.5157  0.0632
   74SLPC   C23 6559   6.388   3.670   9.912  0.3172 -0.5878  0.5455
   74SLPC   H3R 6560   6.302   3.722   9.866 -1.7548 -0.5866  4.1059
   74SLPC   H3S 6561   6.340   3.587   9.969  0.8448 -2.4364 -1.5284
   74SLPC   C24 6562   6.450   3.613   9.788 -0.6613 -0.3124  0.0633
   74SLPC   H4R 6563   6.514   3.530   9.823 -0.4752 -1.8719 -3.4911
   74SLPC   H4S 6564   6.504   3.685   9.724 -0.5522 -0.8053 -0.4129
   74SLPC   C25 6565   6.346   3.557   9.685  0.1199  0.3926  0.2036
   74SLPC   H5R 6566   6.243   3.578   9.722  0.0520  0.0698  0.2021
   74SLPC   H5S 6567   6.356   3.448   9.669  1.1600  0.8609 -3.0150
   74SLPC   C26 6568   6.345   3.626   9.549  0.5181 -0.5328  0.1513
   74SLPC   H6R 6569   6.342   3.737   9.555 -1.7959 -0.4470 -1.2042
   74SLPC   H6S 6570   6.246   3.607   9.502 -0.1878 -1.8362  2.0313
   74SLPC   C27 6571   6.459   3.574   9.466  0.1361 -0.1707  0.0211
   74SLPC   H7R 6572   6.479   3.465   9.476  1.8523  0.0803 -0.2926
   74SLPC   H7S 6573   6.553   3.623   9.498  0.0849  0.7831 -1.2186
   74SLPC   C28 6574   6.443   3.583   9.312  0.1693 -0.0734  0.1441
   74SLPC   H8R 6575   6.539   3.561   9.261  0.6475 -0.5090  1.1956
   74SLPC   H8S 6576   6.428   3.691   9.287  0.7184 -0.1294 -0.4327
   74SLPC   C29 6577   6.316   3.502   9.270 -0.3848  0.0099 -0.0386
   74SLPC   H9R 6578   6.255   3.453   9.347  1.3248 -1.1571  0.6129
   74SLPC  C210 6579   6.270   3.491   9.143 -0.2919  0.3841 -0.2421
   74SLPC  H10R 6580   6.170   3.448   9.130 -0.4144  0.6925 -0.3339
   74SLPC  C211 6581   6.328   3.543   9.009 -0.8653  0.0918 -1.0486
   74SLPC  H11R 6582   6.408   3.615   9.037  1.3291 -2.8372  0.7771
   74SLPC  H11S 6583   6.249   3.595   8.951 -0.4804  0.6409 -1.0970
   74SLPC  C212 6584   6.392   3.432   8.932 -0.2855  0.1866  0.2424
   74SLPC  H12R 6585   6.409   3.337   8.984 -2.7251 -0.4904 -0.0732
   74SLPC  C213 6586   6.453   3.448   8.807  0.4252  0.0646  0.1695
   74SLPC  H13R 6587   6.495   3.362   8.752  1.4682  0.3734  0.4713
   74SLPC  C214 6588   6.450   3.571   8.717 -0.0775  0.3256  0.2704
   74SLPC  H14R 6589   6.553   3.613   8.715  0.3129 -0.6116 -1.6763
   74SLPC  H14S 6590   6.384   3.648   8.761 -0.4627  0.0090  0.2547
   74SLPC  C215 6591   6.415   3.548   8.574 -0.1322 -0.0890  0.1695
   74SLPC  H15R 6592   6.478   3.466   8.533  0.6877 -0.1093  1.4258
   74SLPC  H15S 6593   6.444   3.638   8.516 -1.0373  0.2491  0.2264
   74SLPC  C216 6594   6.269   3.518   8.557  0.1457  1.1986 -0.0991
   74SLPC  H16R 6595   6.238   3.456   8.644 -0.2665 -0.5183 -1.4143
   74SLPC  H16S 6596   6.251   3.464   8.462  0.9435  0.4951  0.1279
   74SLPC  C217 6597   6.183   3.645   8.570  0.1675  0.5244 -0.0099
   74SLPC  H17R 6598   6.216   3.713   8.488 -2.7154  1.0853 -0.8090
   74SLPC  H17S 6599   6.199   3.687   8.671  1.2446 -1.9715  0.9619
   74SLPC  C218 6600   6.032   3.621   8.547  0.5250 -0.1147  0.0995
   74SLPC  H18R 6601   5.990   3.722   8.527 -2.9030 -1.3624  0.4626
   74SLPC  H18S 6602   5.979   3.594   8.641 -0.1107  1.0854  0.1120
   74SLPC  H18T 6603   6.009   3.558   8.459 -1.5778  1.5425 -0.6253
   74SLPC   C33 6604   6.434   3.201   9.922 -0.8513  0.0692 -0.5588
   74SLPC   H3X 6605   6.522   3.240   9.867  0.0564 -0.1981  0.6590
   74SLPC   H3Y 6606   6.365   3.287   9.926 -0.5003  0.3148  0.8338
   74SLPC   C34 6607   6.367   3.096   9.829  0.1755  0.3431  0.4729
   74SLPC   H4X 6608   6.290   3.043   9.888 -1.4234  0.0065 -1.8034
   74SLPC   H4Y 6609   6.459   3.038   9.804  0.7236  0.6034  1.7698
   74SLPC   C35 6610   6.325   3.166   9.701  0.7293 -0.6904 -0.0567
   74SLPC   H5X 6611   6.407   3.231   9.662  0.7094  1.0101  2.4952
   74SLPC   H5Y 6612   6.234   3.228   9.718  0.4594 -1.0426 -0.2194
   74SLPC   C36 6613   6.306   3.066   9.590  0.5222  0.2076  0.8380
   74SLPC   H6X 6614   6.201   3.030   9.591  0.8737 -1.1595 -1.9579
   74SLPC   H6Y 6615   6.359   2.968   9.593 -2.0752 -1.2856  0.9479
   74SLPC   C37 6616   6.306   3.132   9.449 -0.8227  0.2603 -0.5288
   74SLPC   H7X 6617   6.414   3.156   9.435 -0.4816  0.4742  2.0015
   74SLPC   H7Y 6618   6.245   3.224   9.464  0.4789  1.0308  0.2545
   74SLPC   C38 6619   6.244   3.044   9.345  0.2828  0.4055  0.3847
   74SLPC   H8X 6620   6.136   3.042   9.369  0.9930  1.2269  4.2998
   74SLPC   H8Y 6621   6.280   2.939   9.340 -1.0175 -0.0441 -4.8896
   74SLPC   C39 6622   6.257   3.096   9.201  0.0975  0.1049  0.4833
   74SLPC   H9X 6623   6.363   3.106   9.169  0.0424 -0.8827 -0.0406
   74SLPC   H9Y 6624   6.200   3.191   9.198 -0.8329 -0.4647 -0.7264
   74SLPC  C310 6625   6.178   3.006   9.100 -0.2117 -0.3080  0.2591
   74SLPC  H10X 6626   6.070   2.992   9.122 -0.3423 -0.0547 -0.2087
   74SLPC  H10Y 6627   6.221   2.904   9.099 -4.1541 -2.3911  4.6642
   74SLPC  C311 6628   6.187   3.067   8.955  0.4707 -0.7007 -0.5581
   74SLPC  H11X 6629   6.276   3.028   8.901  0.7753 -0.2900 -0.3627
   74SLPC  H11Y 6630   6.186   3.178   8.960 -0.2153 -0.6909 -0.8433
   74SLPC  C312 6631   6.056   3.039   8.875 -0.4377 -0.0245 -0.0818
   74SLPC  H12X 6632   5.969   3.054   8.944 -0.8583 -0.4315 -0.5167
   74SLPC  H12Y 6633   6.054   2.930   8.852 -0.7353  0.0111 -0.2296
   74SLPC  C313 6634   6.035   3.128   8.745 -0.1918 -0.1961  1.0498
   74SLPC  H13X 6635   6.129   3.120   8.685 -0.7512 -0.0331  0.1407
   74SLPC  H13Y 6636   6.015   3.230   8.786  1.6899  0.4984  0.3777
   74SLPC  C314 6637   5.912   3.078   8.661 -0.8433 -0.3982 -0.8254
   74SLPC  H14X 6638   5.824   3.072   8.729  0.0757  0.0661  0.4538
   74SLPC  H14Y 6639   5.946   2.975   8.639  1.0309 -0.1606  0.6014
   74SLPC  C315 6640   5.872   3.161   8.539 -0.1771 -0.4861  0.3181
   74SLPC  H15X 6641   5.948   3.177   8.460 -1.4513  1.7909 -0.5327
   74SLPC  H15Y 6642   5.854   3.269   8.557  1.0800 -0.2186  0.0760
   74SLPC  C316 6643   5.741   3.110   8.470 -0.9522 -0.2766 -0.1501
   74SLPC  H16X 6644   5.669   3.087   8.551 -0.7247 -2.6805 -0.5738
   74SLPC  H16Y 6645   5.769   3.011   8.428  3.2386 -0.2470  2.1206
   74SLPC  C317 6646   5.691   3.200   8.354 -0.1565 -0.1760 -0.0429
   74SLPC  H17X 6647   5.690   3.306   8.387  0.8322 -0.3127  0.4742
   74SLPC  H17Y 6648   5.588   3.172   8.324  0.5038 -2.3894 -0.3855
   74SLPC  C318 6649   5.791   3.198   8.237  0.3855 -0.2494  0.3059
   74SLPC  H18X 6650   5.757   3.266   8.156 -2.0775 -2.4201 -0.6015
   74SLPC  H18Y 6651   5.794   3.102   8.180 -0.8510  1.0097 -2.0349
   74SLPC  H18Z 6652   5.895   3.230   8.262  1.2290 -1.0641 -1.8615
   75SLPC     N 6653   4.647   5.331   6.123 -0.0676 -0.0312  0.0186
   75SLPC   C13 6654   4.681   5.184   6.112  0.0158 -0.3037  0.6282
   75SLPC  H13A 6655   4.702   5.154   6.011 -0.0413 -0.8190  0.7654
   75SLPC  H13B 6656   4.768   5.172   6.174  0.3547 -0.5425  0.1087
   75SLPC  H13C 6657   4.606   5.118   6.154  0.7136 -0.3793  1.8225
   75SLPC   C14 6658   4.526   5.356   6.045  0.2727 -0.7983 -0.0032
   75SLPC  H14A 6659   4.497   5.460   6.042  0.4051 -0.7717 -0.6826
   75SLPC  H14B 6660   4.536   5.329   5.941  3.2602 -1.9772  0.4877
   75SLPC  H14C 6661   4.443   5.304   6.089 -0.7024  1.7870  1.4066
   75SLPC   C15 6662   4.769   5.409   6.081  0.4555  0.5699 -0.1463
   75SLPC  H15A 6663   4.847   5.385   6.151  0.3592 -0.7503 -0.4596
   75SLPC  H15B 6664   4.801   5.401   5.978 -1.2860  1.4068 -0.7818
   75SLPC  H15C 6665   4.745   5.513   6.094  0.1792  0.7120 -1.5793
   75SLPC   C12 6666   4.614   5.364   6.265  0.2819  0.6625  0.2610
   75SLPC  H12A 6667   4.519   5.321   6.292  0.9575 -1.0278  0.1252
   75SLPC  H12B 6668   4.613   5.471   6.281 -3.0780  0.5113  2.0219
   75SLPC   C11 6669   4.708   5.308   6.378  0.5417  1.1084 -0.3471
   75SLPC  H11A 6670   4.682   5.202   6.399 -2.2658  1.7155 -0.3773
   75SLPC  H11B 6671   4.684   5.367   6.468 -0.2910 -0.6824  0.6478
   75SLPC     P 6672   4.965   5.271   6.438  0.3969 -0.0334  0.1554
   75SLPC   O13 6673   4.940   5.129   6.471  0.0323 -0.1681 -0.1558
   75SLPC   O14 6674   5.088   5.306   6.366  0.0632  0.3927  0.3818
   75SLPC   O12 6675   4.846   5.325   6.341 -0.1805 -0.0367  0.3198
   75SLPC   O11 6676   4.944   5.359   6.562 -0.5082  0.2987  0.2800
   75SLPC    C1 6677   4.935   5.502   6.559  0.2587 -0.2614 -0.1177
   75SLPC    HA 6678   4.909   5.536   6.456 -0.0884 -0.2131 -0.0143
   75SLPC    HB 6679   4.855   5.547   6.622 -0.2921 -0.5992 -0.5737
   75SLPC    C2 6680   5.073   5.566   6.616  0.0151 -0.2570 -0.2480
   75SLPC    HS 6681   5.152   5.508   6.565  0.4609  0.9057 -0.9169
   75SLPC   O21 6682   5.066   5.571   6.757  0.8437  0.2969 -0.0254
   75SLPC   C21 6683   5.158   5.516   6.828 -0.4041 -0.3617 -0.2315
   75SLPC   O22 6684   5.258   5.454   6.796 -0.0930 -0.1922 -0.1846
   75SLPC   C22 6685   5.146   5.561   6.979  0.8732  0.6685 -0.5757
   75SLPC   H2R 6686   5.058   5.505   7.017  1.8220 -0.1874  0.4409
   75SLPC   H2S 6687   5.237   5.529   7.035  0.1188 -1.3334 -0.4136
   75SLPC    C3 6688   5.081   5.713   6.575 -0.4877 -0.3409  0.0182
   75SLPC    HX 6689   4.976   5.744   6.594 -0.7583 -0.9485 -0.4376
   75SLPC    HY 6690   5.092   5.723   6.464 -0.6415  1.2846  0.1278
   75SLPC   O31 6691   5.175   5.785   6.647 -0.0978  0.3773  0.1433
   75SLPC   C31 6692   5.167   5.917   6.627  0.4692 -0.5057  0.3647
   75SLPC   O32 6693   5.081   5.964   6.551 -0.5523 -0.4849 -0.3902
   75SLPC   C32 6694   5.262   5.995   6.713  0.3167  1.2506 -0.7079
   75SLPC   H2X 6695   5.293   6.086   6.657  0.2324  1.1100 -0.9835
   75SLPC   H2Y 6696   5.353   5.936   6.736  0.1902  1.3919  0.1684
   75SLPC   C23 6697   5.117   5.709   7.002  0.2245  0.1581  0.0605
   75SLPC   H3R 6698   5.032   5.749   6.942 -0.1314  1.9901  1.6623
   75SLPC   H3S 6699   5.212   5.759   6.974  2.2434 -3.5180 -0.2245
   75SLPC   C24 6700   5.105   5.754   7.146 -0.2997 -0.0243  0.3204
   75SLPC   H4R 6701   5.031   5.677   7.177  1.0512 -1.1238  0.9783
   75SLPC   H4S 6702   5.059   5.854   7.152  3.1847  1.7957 -0.3390
   75SLPC   C25 6703   5.225   5.746   7.234  0.5974  0.0157 -0.3884
   75SLPC   H5R 6704   5.299   5.820   7.198  0.6636 -0.0380 -0.3616
   75SLPC   H5S 6705   5.264   5.642   7.227 -0.8889 -0.4689 -2.2242
   75SLPC   C26 6706   5.196   5.785   7.377 -0.1243 -0.2748 -0.3942
   75SLPC   H6R 6707   5.285   5.760   7.439  1.1682  3.0886 -0.6421
   75SLPC   H6S 6708   5.123   5.711   7.416 -1.4679  2.3390  2.4988
   75SLPC   C27 6709   5.137   5.926   7.394 -0.1569 -0.0109  0.4338
   75SLPC   H7R 6710   5.028   5.925   7.372  0.0045  1.9694 -0.6822
   75SLPC   H7S 6711   5.181   5.996   7.320 -1.7710  1.3910  0.7295
   75SLPC   C28 6712   5.167   5.997   7.529  0.2116  0.8897  0.2874
   75SLPC   H8R 6713   5.103   6.087   7.542  0.8284  1.3121  0.3892
   75SLPC   H8S 6714   5.269   6.039   7.535  0.1175  1.2456 -0.4979
   75SLPC   C29 6715   5.134   5.910   7.649  0.8030  0.3679 -0.2644
   75SLPC   H9R 6716   5.038   5.855   7.640  0.9448 -0.1415  1.0695
   75SLPC  C210 6717   5.195   5.892   7.768 -0.0468 -0.2579  0.8028
   75SLPC  H10R 6718   5.148   5.820   7.837  1.9836 -3.0816 -0.5597
   75SLPC  C211 6719   5.324   5.943   7.815 -0.4139 -0.8577 -0.0565
   75SLPC  H11R 6720   5.392   5.943   7.727 -1.7660 -1.9615 -1.1436
   75SLPC  H11S 6721   5.375   5.867   7.878  0.0494  0.2785  0.9954
   75SLPC  C212 6722   5.320   6.077   7.890 -0.4097 -0.2187 -0.4822
   75SLPC  H12R 6723   5.246   6.150   7.856 -1.4625  0.0233  2.1068
   75SLPC  C213 6724   5.390   6.097   7.998 -0.2977 -0.6256 -0.1096
   75SLPC  H13R 6725   5.369   6.186   8.059 -0.3553 -0.8595  0.2151
   75SLPC  C214 6726   5.500   6.006   8.052  0.0233 -0.5021 -0.7982
   75SLPC  H14R 6727   5.549   5.955   7.966  1.4666  1.9575 -1.5237
   75SLPC  H14S 6728   5.452   5.923   8.108  0.5346  0.0102  0.4357
   75SLPC  C215 6729   5.601   6.074   8.142  0.1067  0.1406 -1.1911
   75SLPC  H15R 6730   5.659   5.996   8.196 -0.0218  0.5526 -0.4334
   75SLPC  H15S 6731   5.537   6.133   8.212 -0.3076 -0.2042 -1.2756
   75SLPC  C216 6732   5.693   6.175   8.079 -0.8053 -0.4317  0.2138
   75SLPC  H16R 6733   5.639   6.235   8.003  2.6696  1.1081 -1.2286
   75SLPC  H16S 6734   5.766   6.109   8.028 -0.5092 -0.8032  1.0893
   75SLPC  C217 6735   5.758   6.259   8.187  0.5078  0.3356  0.1721
   75SLPC  H17R 6736   5.846   6.299   8.131 -0.8681  1.0065 -1.6283
   75SLPC  H17S 6737   5.785   6.201   8.278 -0.6761  0.3902  0.5722
   75SLPC  C218 6738   5.672   6.384   8.218 -0.3564 -0.1908  0.0199
   75SLPC  H18R 6739   5.567   6.353   8.235 -0.0417 -0.9387  0.6746
   75SLPC  H18S 6740   5.682   6.464   8.141  0.6109  0.6915  1.0176
   75SLPC  H18T 6741   5.694   6.430   8.317 -1.1667 -0.5844  0.3986
   75SLPC   C33 6742   5.200   6.038   6.851 -0.0250 -0.4568 -0.6422
   75SLPC   H3X 6743   5.125   6.115   6.821  0.6460  0.9022  1.0341
   75SLPC   H3Y 6744   5.158   5.947   6.899  3.1814 -1.4608  0.4955
   75SLPC   C34 6745   5.307   6.108   6.947  0.5268 -0.4343  0.3123
   75SLPC   H4X 6746   5.355   6.186   6.883 -0.5177 -0.4961 -0.5905
   75SLPC   H4Y 6747   5.376   6.036   6.994 -1.8311 -1.0193  3.1753
   75SLPC   C35 6748   5.225   6.180   7.052  0.0437  0.0118 -0.1485
   75SLPC   H5X 6749   5.151   6.105   7.089  1.1247  0.1124  2.4744
   75SLPC   H5Y 6750   5.152   6.252   7.008  1.2415  0.4132 -1.5446
   75SLPC   C36 6751   5.300   6.227   7.173  0.1293 -0.5456 -0.0027
   75SLPC   H6X 6752   5.374   6.302   7.137 -0.9482  2.1549  2.9686
   75SLPC   H6Y 6753   5.355   6.148   7.228  0.1848 -1.7262 -1.6757
   75SLPC   C37 6754   5.206   6.287   7.274  0.2711  0.7248 -0.1411
   75SLPC   H7X 6755   5.126   6.215   7.303  0.5411  0.6843  0.5328
   75SLPC   H7Y 6756   5.139   6.364   7.230 -1.5120 -1.1603 -0.9076
   75SLPC   C38 6757   5.280   6.335   7.401  0.1530  0.1897  0.5499
   75SLPC   H8X 6758   5.370   6.396   7.381  0.7648  0.4037  3.4052
   75SLPC   H8Y 6759   5.313   6.239   7.446  2.4441  0.0527 -1.2833
   75SLPC   C39 6760   5.182   6.401   7.504 -0.6343 -0.6681  0.2975
   75SLPC   H9X 6761   5.085   6.347   7.493 -1.8917  1.8964 -2.8441
   75SLPC   H9Y 6762   5.157   6.502   7.465 -2.5361 -1.7770 -1.6318
   75SLPC  C310 6763   5.247   6.407   7.641  0.4682 -0.1720 -0.5821
   75SLPC  H10X 6764   5.337   6.470   7.624  1.7358 -1.2291  1.7514
   75SLPC  H10Y 6765   5.277   6.305   7.673 -0.9117 -0.1485  0.9120
   75SLPC  C311 6766   5.151   6.451   7.752  0.5183 -0.7808  0.0026
   75SLPC  H11X 6767   5.064   6.381   7.758 -2.2930  2.5565  1.8189
   75SLPC  H11Y 6768   5.093   6.538   7.716 -0.1901 -0.9962  0.5993
   75SLPC  C312 6769   5.200   6.482   7.895 -0.2452  0.0183  1.1840
   75SLPC  H12X 6770   5.283   6.556   7.888  1.0298 -1.4241  0.0982
   75SLPC  H12Y 6771   5.232   6.383   7.934  2.7638 -0.2211 -1.4494
   75SLPC  C313 6772   5.088   6.549   7.980 -0.2930 -0.1009  0.2897
   75SLPC  H13X 6773   5.036   6.465   8.032  2.5056 -2.2377 -0.1040
   75SLPC  H13Y 6774   5.014   6.600   7.916  0.5061 -1.0735 -1.4768
   75SLPC  C314 6775   5.153   6.641   8.087  0.1543 -0.5085  0.1548
   75SLPC  H14X 6776   5.221   6.706   8.028 -1.4281  0.0389 -1.1592
   75SLPC  H14Y 6777   5.207   6.577   8.160 -1.4720 -2.4188 -0.2163
   75SLPC  C315 6778   5.051   6.734   8.157 -0.0024  0.8686  0.6828
   75SLPC  H15X 6779   4.953   6.685   8.174  0.8668 -0.9059  0.9460
   75SLPC  H15Y 6780   5.033   6.812   8.080 -1.4153 -2.2715 -2.4687
   75SLPC  C316 6781   5.101   6.796   8.290  0.6369  0.7251  0.3599
   75SLPC  H16X 6782   5.120   6.711   8.359  1.2595  0.4575 -0.1281
   75SLPC  H16Y 6783   5.016   6.850   8.338  1.3114  1.0480  1.2199
   75SLPC  C317 6784   5.226   6.877   8.277  0.2205 -0.0314 -0.1913
   75SLPC  H17X 6785   5.223   6.927   8.178  1.8172  0.5209  0.0027
   75SLPC  H17Y 6786   5.314   6.809   8.275  1.4187  1.4647 -1.5499
   75SLPC  C318 6787   5.240   6.988   8.380 -0.8268  0.1603  0.1927
   75SLPC  H18X 6788   5.154   7.058   8.371 -1.7108 -1.0320 -0.9487
   75SLPC  H18Y 6789   5.333   7.039   8.346  1.1540 -2.8627  0.6716
   75SLPC  H18Z 6790   5.251   6.951   8.484  0.0995 -0.5129 -0.1308
   76SLPC     N 6791   1.539   4.287   6.152 -0.0404  0.3378  0.3676
   76SLPC   C13 6792   1.680   4.300   6.112  0.1625  0.4033 -0.9204
   76SLPC  H13A 6793   1.721   4.399   6.131  0.2298  0.3933 -1.0131
   76SLPC  H13B 6794   1.737   4.215   6.146 -0.5383  0.0298 -0.6695
   76SLPC  H13C 6795   1.691   4.294   6.005 -1.1007 -0.7808 -1.0073
   76SLPC   C14 6796   1.480   4.164   6.098 -0.1186 -0.1616 -0.5242
   76SLPC  H14A 6797   1.376   4.150   6.125 -0.0354 -1.4965 -0.8062
   76SLPC  H14B 6798   1.482   4.162   5.990  0.1051 -1.4749 -0.5137
   76SLPC  H14C 6799   1.545   4.083   6.129  0.9898 -0.0985 -2.5117
   76SLPC   C15 6800   1.466   4.403   6.096  0.4189 -0.1305  0.1083
   76SLPC  H15A 6801   1.364   4.417   6.127 -0.9471 -2.3569 -2.8374
   76SLPC  H15B 6802   1.524   4.492   6.115  1.4840 -0.1080 -2.6686
   76SLPC  H15C 6803   1.454   4.390   5.989 -0.5690 -1.3977  0.3511
   76SLPC   C12 6804   1.526   4.291   6.308  1.0697  0.6694  0.0111
   76SLPC  H12A 6805   1.524   4.393   6.344  1.1162 -0.0871  2.3365
   76SLPC  H12B 6806   1.606   4.240   6.359 -0.9531 -1.2058  1.5084
   76SLPC   C11 6807   1.392   4.244   6.381 -0.2593  0.0366  0.4070
   76SLPC  H11A 6808   1.409   4.261   6.489 -0.8295  0.7240  0.3947
   76SLPC  H11B 6809   1.384   4.134   6.365 -1.0106 -0.2164  2.3553
   76SLPC     P 6810   1.155   4.239   6.271  0.5722 -0.1247 -0.0906
   76SLPC   O13 6811   1.057   4.335   6.205 -0.2314  0.3515  0.5090
   76SLPC   O14 6812   1.196   4.130   6.184  0.1977 -0.9600 -0.3961
   76SLPC   O12 6813   1.277   4.320   6.336 -0.5394 -0.6271 -0.1414
   76SLPC   O11 6814   1.088   4.179   6.400  0.0105  0.2690  0.0547
   76SLPC    C1 6815   1.060   4.259   6.517  0.1154 -0.5925  0.9483
   76SLPC    HA 6816   1.092   4.189   6.597  0.8463  0.2916  1.4383
   76SLPC    HB 6817   1.124   4.349   6.529 -0.5807 -0.3934  3.8733
   76SLPC    C2 6818   0.913   4.289   6.525 -0.1172  0.1188  0.0191
   76SLPC    HS 6819   0.895   4.348   6.433 -0.8525  2.3382  1.5112
   76SLPC   O21 6820   0.892   4.369   6.638  0.1026 -0.6494 -0.5175
   76SLPC   C21 6821   0.771   4.426   6.653 -0.2067  0.0277 -0.2231
   76SLPC   O22 6822   0.677   4.423   6.573 -0.5155 -0.2120 -0.5838
   76SLPC   C22 6823   0.771   4.509   6.780 -0.3821 -0.1673  0.5621
   76SLPC   H2R 6824   0.872   4.554   6.793 -1.2962  1.8089  1.0938
   76SLPC   H2S 6825   0.697   4.590   6.760 -0.3802 -0.1545  0.6073
   76SLPC    C3 6826   0.823   4.159   6.528  0.1394 -0.0121  0.3778
   76SLPC    HX 6827   0.847   4.109   6.432 -1.3909  0.8523 -0.4909
   76SLPC    HY 6828   0.717   4.190   6.524 -0.1311 -0.8251  0.9252
   76SLPC   O31 6829   0.852   4.078   6.645  0.3648  0.0546  0.2767
   76SLPC   C31 6830   0.770   3.973   6.652 -0.8436  0.5060 -0.4325
   76SLPC   O32 6831   0.688   3.937   6.574 -0.2350 -0.3387 -0.1016
   76SLPC   C32 6832   0.823   3.890   6.770  0.5101 -0.9476 -0.5725
   76SLPC   H2X 6833   0.807   3.959   6.856 -2.8025 -1.7733 -0.4270
   76SLPC   H2Y 6834   0.931   3.869   6.755  0.4514 -0.5246 -1.6709
   76SLPC   C23 6835   0.730   4.436   6.910 -0.4447  0.4471  0.7581
   76SLPC   H3R 6836   0.649   4.365   6.884  0.0445 -0.1592  0.8655
   76SLPC   H3S 6837   0.698   4.520   6.976 -1.9541  1.5453 -1.2687
   76SLPC   C24 6838   0.850   4.359   6.965 -0.6915 -0.2740  0.0438
   76SLPC   H4R 6839   0.923   4.442   6.980  0.2662 -0.5107 -2.6835
   76SLPC   H4S 6840   0.895   4.292   6.888 -0.6937 -0.9767  0.6489
   76SLPC   C25 6841   0.830   4.277   7.086  1.4747 -0.5256 -0.4135
   76SLPC   H5R 6842   0.732   4.224   7.073  0.8509 -0.2967  2.5841
   76SLPC   H5S 6843   0.806   4.351   7.165  0.4596 -2.2999  1.0342
   76SLPC   C26 6844   0.936   4.167   7.115 -0.1382 -0.0217 -0.2378
   76SLPC   H6R 6845   1.038   4.203   7.140 -0.3795 -0.4425  1.4109
   76SLPC   H6S 6846   0.940   4.095   7.030 -0.0780 -0.1054 -0.1640
   76SLPC   C27 6847   0.900   4.096   7.244  0.2058 -0.0761  0.1665
   76SLPC   H7R 6848   0.819   4.031   7.205 -1.3604  1.6250  0.4570
   76SLPC   H7S 6849   0.851   4.161   7.319 -3.8350 -0.9790 -1.3804
   76SLPC   C28 6850   1.013   4.015   7.305  0.3633  0.6193 -0.2606
   76SLPC   H8R 6851   1.048   3.946   7.226  0.4974  1.8931 -1.3587
   76SLPC   H8S 6852   1.099   4.081   7.330 -0.6907  0.6427  4.1127
   76SLPC   C29 6853   0.950   3.946   7.425  0.4995 -0.5917 -0.2095
   76SLPC   H9R 6854   0.841   3.944   7.429  0.3098  1.9142 -1.8108
   76SLPC  C210 6855   1.010   3.895   7.529 -0.4141  0.2516 -0.4330
   76SLPC  H10R 6856   0.941   3.884   7.614 -1.1456  1.5286 -0.8273
   76SLPC  C211 6857   1.155   3.886   7.557 -0.1717  0.0873 -0.0677
   76SLPC  H11R 6858   1.173   3.904   7.665 -0.0609  0.3102 -0.1223
   76SLPC  H11S 6859   1.214   3.966   7.508 -0.2354  0.9934  1.2825
   76SLPC  C212 6860   1.215   3.753   7.514  0.7291  0.5762 -0.9530
   76SLPC  H12R 6861   1.211   3.733   7.406 -0.4100  0.1734 -0.8485
   76SLPC  C213 6862   1.256   3.651   7.601  0.6438 -0.4711 -0.4197
   76SLPC  H13R 6863   1.304   3.561   7.561  1.0360 -0.9966  1.1530
   76SLPC  C214 6864   1.256   3.647   7.754 -0.8165  0.1887 -0.0471
   76SLPC  H14R 6865   1.195   3.563   7.794  0.8619 -1.4270 -0.6949
   76SLPC  H14S 6866   1.222   3.738   7.806  3.1736  1.4004  0.7698
   76SLPC  C215 6867   1.397   3.622   7.814 -0.1809  0.7824  0.2965
   76SLPC  H15R 6868   1.386   3.620   7.925 -2.2236  2.8534  0.2035
   76SLPC  H15S 6869   1.471   3.704   7.800 -1.8581  2.1421 -0.9759
   76SLPC  C216 6870   1.454   3.482   7.791 -0.3281  0.4455 -0.0176
   76SLPC  H16R 6871   1.468   3.473   7.681 -1.5413  1.4645 -0.2803
   76SLPC  H16S 6872   1.374   3.409   7.814  0.1619 -1.1811 -2.9575
   76SLPC  C217 6873   1.571   3.437   7.878 -0.2744  0.0967 -0.0204
   76SLPC  H17R 6874   1.646   3.519   7.873  2.0037 -1.9184 -0.9021
   76SLPC  H17S 6875   1.624   3.349   7.835 -1.2529  0.5611 -2.3190
   76SLPC  C218 6876   1.542   3.420   8.029  0.6006  0.3869  0.4613
   76SLPC  H18R 6877   1.533   3.519   8.078  1.3710 -0.5225  2.5484
   76SLPC  H18S 6878   1.625   3.359   8.071 -1.9156 -1.8040  2.6969
   76SLPC  H18T 6879   1.446   3.364   8.026 -0.7045  2.5333  0.5647
   76SLPC   C33 6880   0.736   3.769   6.789  0.3080 -0.0056  0.0234
   76SLPC   H3X 6881   0.765   3.699   6.707  1.7466  1.4680 -0.7681
   76SLPC   H3Y 6882   0.627   3.787   6.779  0.1605  0.1276  1.6459
   76SLPC   C34 6883   0.755   3.713   6.934 -0.0531 -0.4152 -0.1836
   76SLPC   H4X 6884   0.720   3.796   6.999  4.3648  0.7692  0.9891
   76SLPC   H4Y 6885   0.863   3.702   6.957 -0.1390 -0.2632  0.3209
   76SLPC   C35 6886   0.674   3.594   6.984  0.0098 -0.7596 -0.1244
   76SLPC   H5X 6887   0.695   3.509   6.916 -0.4970  0.5022 -1.9576
   76SLPC   H5Y 6888   0.567   3.625   6.983  0.1494 -0.2595 -0.1554
   76SLPC   C36 6889   0.713   3.554   7.127  0.0118  0.1390 -0.2161
   76SLPC   H6X 6890   0.806   3.494   7.129 -0.3029 -0.3462  0.9537
   76SLPC   H6Y 6891   0.643   3.477   7.167 -0.6251  0.1644 -1.2296
   76SLPC   C37 6892   0.719   3.658   7.229 -0.0468  0.2318  0.3894
   76SLPC   H7X 6893   0.627   3.720   7.235  0.3766  1.4634 -3.1706
   76SLPC   H7Y 6894   0.793   3.739   7.212  1.2037 -0.5932  1.7402
   76SLPC   C38 6895   0.754   3.606   7.372 -0.7415 -0.3675 -0.5901
   76SLPC   H8X 6896   0.800   3.689   7.431  0.7199 -2.2989  1.1162
   76SLPC   H8Y 6897   0.827   3.522   7.371 -2.3512 -1.8193 -0.2325
   76SLPC   C39 6898   0.633   3.546   7.451  1.0600  0.1414  1.0805
   76SLPC   H9X 6899   0.577   3.466   7.399  0.7457  0.6939  0.5505
   76SLPC   H9Y 6900   0.550   3.614   7.478 -1.5216 -2.5753  0.4275
   76SLPC  C310 6901   0.667   3.490   7.584 -0.4422  0.4519  0.2347
   76SLPC  H10X 6902   0.751   3.418   7.582  0.0565  0.9600  1.4034
   76SLPC  H10Y 6903   0.577   3.434   7.616 -2.1329  2.4630 -0.7585
   76SLPC  C311 6904   0.679   3.600   7.696  0.4121  0.0836  0.1568
   76SLPC  H11X 6905   0.580   3.644   7.719  0.4500  0.0325  0.4331
   76SLPC  H11Y 6906   0.745   3.684   7.666 -0.1918  1.0424  1.4144
   76SLPC  C312 6907   0.729   3.538   7.824 -0.4237  0.5067  0.3372
   76SLPC  H12X 6908   0.833   3.503   7.810 -0.5075 -0.3132  1.6099
   76SLPC  H12Y 6909   0.662   3.451   7.845 -0.8241  0.4432 -1.1086
   76SLPC  C313 6910   0.728   3.634   7.937  0.0776  0.1157 -0.2127
   76SLPC  H13X 6911   0.628   3.682   7.946 -0.1113 -0.3732  0.3913
   76SLPC  H13Y 6912   0.794   3.722   7.927 -1.1247  0.9443 -1.1587
   76SLPC  C314 6913   0.759   3.566   8.072 -0.6426  0.9110 -0.1956
   76SLPC  H14X 6914   0.865   3.532   8.070 -0.4841  1.1188  1.9622
   76SLPC  H14Y 6915   0.690   3.481   8.089  0.2637  0.3509  0.7815
   76SLPC  C315 6916   0.729   3.663   8.188 -0.9180  1.0430  0.0766
   76SLPC  H15X 6917   0.626   3.707   8.191  0.3328  4.2208  1.1467
   76SLPC  H15Y 6918   0.798   3.749   8.175  0.3368  0.2310  1.2179
   76SLPC  C316 6919   0.736   3.604   8.327 -0.5824  0.2489  0.3630
   76SLPC  H16X 6920   0.708   3.497   8.320  1.7307 -0.4085  0.3077
   76SLPC  H16Y 6921   0.668   3.656   8.397 -0.5999 -1.3997  1.6353
   76SLPC  C317 6922   0.869   3.611   8.405 -0.3340  0.4544 -0.0727
   76SLPC  H17X 6923   0.891   3.718   8.426 -1.2241  0.8185 -0.9314
   76SLPC  H17Y 6924   0.948   3.570   8.338 -1.1079  1.4841 -1.6474
   76SLPC  C318 6925   0.874   3.532   8.538  0.4026  0.2854 -0.2336
   76SLPC  H18X 6926   0.966   3.531   8.600 -0.1095 -0.4627  0.5446
   76SLPC  H18Y 6927   0.843   3.430   8.507 -0.3365  0.0155  1.3131
   76SLPC  H18Z 6928   0.799   3.576   8.607  1.2756  1.0193  0.2742
   77SLPC     N 6929   2.829   3.387   6.117  0.3599  0.2283 -0.8852
   77SLPC   C13 6930   2.716   3.377   6.013  0.0980  0.3136 -0.3954
   77SLPC  H13A 6931   2.739   3.310   5.931  1.4057 -0.0905  0.2656
   77SLPC  H13B 6932   2.628   3.343   6.066 -1.0528 -0.1107 -2.4783
   77SLPC  H13C 6933   2.702   3.473   5.967 -0.6162  0.1965 -0.4289
   77SLPC   C14 6934   2.936   3.463   6.043  0.3767  0.0389 -0.1302
   77SLPC  H14A 6935   2.896   3.547   5.988  0.5206 -0.7661 -1.5130
   77SLPC  H14B 6936   3.005   3.502   6.115 -0.6541  2.0787 -0.1863
   77SLPC  H14C 6937   2.992   3.406   5.970  0.5261  0.3654 -0.2694
   77SLPC   C15 6938   2.879   3.253   6.155 -0.0839  0.2514 -0.5080
   77SLPC  H15A 6939   2.799   3.205   6.210 -0.3629  0.5053 -0.6882
   77SLPC  H15B 6940   2.909   3.196   6.068 -1.6911 -0.0245 -0.9195
   77SLPC  H15C 6941   2.965   3.263   6.221 -0.3426  0.5597 -0.2117
   77SLPC   C12 6942   2.781   3.467   6.236  0.0271 -0.0048  0.9446
   77SLPC  H12A 6943   2.777   3.572   6.213  2.3090 -0.0430  0.1477
   77SLPC  H12B 6944   2.871   3.456   6.295  1.8087 -0.2470 -1.6521
   77SLPC   C11 6945   2.667   3.410   6.317  0.0987  0.1259  0.0541
   77SLPC  H11A 6946   2.670   3.461   6.416  0.4210  0.1986  0.0080
   77SLPC  H11B 6947   2.675   3.300   6.333 -0.1807 -0.1544 -1.5550
   77SLPC     P 6948   2.477   3.579   6.236 -0.1218 -0.2500 -0.2141
   77SLPC   O13 6949   2.570   3.683   6.293 -0.4878 -0.2586 -0.2612
   77SLPC   O14 6950   2.431   3.606   6.100 -0.4614  0.1400  0.4526
   77SLPC   O12 6951   2.544   3.435   6.245  0.6990  0.9057 -0.1640
   77SLPC   O11 6952   2.355   3.556   6.338 -0.5059 -0.0400  0.5415
   77SLPC    C1 6953   2.319   3.663   6.429  0.1725  0.4573  0.3542
   77SLPC    HA 6954   2.361   3.762   6.402 -0.7184  1.6725  3.0309
   77SLPC    HB 6955   2.208   3.667   6.433  0.0905 -0.0921 -0.9395
   77SLPC    C2 6956   2.361   3.624   6.573  0.6143 -0.5569  0.0012
   77SLPC    HS 6957   2.472   3.622   6.581  0.5781 -2.0389  0.5409
   77SLPC   O21 6958   2.301   3.495   6.598 -0.2634 -0.4211  0.6808
   77SLPC   C21 6959   2.379   3.404   6.653 -0.8417  0.3568 -0.6483
   77SLPC   O22 6960   2.493   3.420   6.692 -0.2533 -0.1845 -0.2267
   77SLPC   C22 6961   2.303   3.270   6.663 -0.4122 -0.0912  0.1217
   77SLPC   H2R 6962   2.212   3.288   6.602 -0.4735  3.5307  1.0124
   77SLPC   H2S 6963   2.371   3.197   6.614 -0.2282  1.6552 -2.4254
   77SLPC    C3 6964   2.305   3.724   6.684 -0.1784  0.6371  0.8442
   77SLPC    HX 6965   2.194   3.723   6.673 -0.4216 -1.3130  2.8461
   77SLPC    HY 6966   2.349   3.826   6.672  0.9876  0.1125  0.5753
   77SLPC   O31 6967   2.334   3.670   6.812  0.2158 -0.2406 -0.5350
   77SLPC   C31 6968   2.449   3.709   6.870  0.2112 -0.7287 -0.7610
   77SLPC   O32 6969   2.536   3.781   6.819  0.1956  0.1432 -0.4768
   77SLPC   C32 6970   2.444   3.657   7.018 -0.5387 -0.0449 -0.7184
   77SLPC   H2X 6971   2.420   3.549   7.010 -1.0247  0.0630 -0.7309
   77SLPC   H2Y 6972   2.366   3.708   7.079  0.2711 -1.0282  1.2540
   77SLPC   C23 6973   2.269   3.228   6.810  0.1270 -0.0296  0.7128
   77SLPC   H3R 6974   2.345   3.264   6.883 -1.2219 -0.1307  2.2299
   77SLPC   H3S 6975   2.260   3.117   6.805 -1.1375  0.1297 -2.2046
   77SLPC   C24 6976   2.134   3.280   6.855  0.5045 -0.1434 -0.2364
   77SLPC   H4R 6977   2.049   3.238   6.797 -0.8935 -0.2824  1.8112
   77SLPC   H4S 6978   2.113   3.388   6.841  1.3746  0.0630  0.0295
   77SLPC   C25 6979   2.103   3.249   7.005  0.0739  0.6726 -1.0305
   77SLPC   H5R 6980   2.179   3.300   7.067  0.2118  0.2556 -0.8495
   77SLPC   H5S 6981   2.117   3.139   7.011  1.0455  0.7734 -1.4144
   77SLPC   C26 6982   1.969   3.300   7.041 -0.5479  0.1764 -0.0651
   77SLPC   H6R 6983   1.882   3.260   6.985 -0.7029 -1.0561  1.0040
   77SLPC   H6S 6984   1.967   3.410   7.029 -0.8963  0.5349  2.6625
   77SLPC   C27 6985   1.945   3.292   7.195 -0.1001 -0.3082  0.6640
   77SLPC   H7R 6986   1.858   3.358   7.213 -0.6254 -0.5371 -0.8482
   77SLPC   H7S 6987   2.027   3.342   7.251  0.6877 -0.7409 -0.0749
   77SLPC   C28 6988   1.946   3.157   7.264 -0.1434 -0.1307  0.0819
   77SLPC   H8R 6989   1.893   3.163   7.362 -0.2560 -1.3990  0.1201
   77SLPC   H8S 6990   2.047   3.128   7.300  0.7805  0.6329 -1.8082
   77SLPC   C29 6991   1.897   3.059   7.171  0.0358  0.0609 -0.5235
   77SLPC   H9R 6992   1.983   3.016   7.118  1.6834 -0.8211  2.6118
   77SLPC  C210 6993   1.777   3.002   7.169 -0.1516  0.0000 -0.3535
   77SLPC  H10R 6994   1.770   2.928   7.087  2.3458 -0.1378 -0.5088
   77SLPC  C211 6995   1.652   3.039   7.248  0.9194 -0.1032 -0.1579
   77SLPC  H11R 6996   1.566   3.070   7.184  0.7127 -2.0560 -0.8927
   77SLPC  H11S 6997   1.669   3.121   7.320 -2.9218 -0.9717  2.0420
   77SLPC  C212 6998   1.613   2.921   7.335  0.4680  0.3022 -0.5634
   77SLPC  H12R 6999   1.573   2.838   7.276  0.7062 -0.4824  0.3547
   77SLPC  C213 7000   1.628   2.905   7.469  0.0061 -0.0010 -0.4306
   77SLPC  H13R 7001   1.603   2.810   7.518  2.1919 -0.1605  0.4598
   77SLPC  C214 7002   1.693   3.006   7.569 -0.5549  0.5573  1.0142
   77SLPC  H14R 7003   1.610   3.070   7.606 -0.7040  0.5577  0.6836
   77SLPC  H14S 7004   1.770   3.072   7.523  0.8003 -0.9718  0.9745
   77SLPC  C215 7005   1.767   2.924   7.679 -0.0924  0.3410 -0.4240
   77SLPC  H15R 7006   1.862   2.897   7.629 -0.6406  2.0113 -2.4561
   77SLPC  H15S 7007   1.710   2.837   7.718  1.1258  0.5116  1.9051
   77SLPC  C216 7008   1.782   3.018   7.800 -0.8475  0.4631 -0.4824
   77SLPC  H16R 7009   1.702   3.008   7.875  1.1299  1.0522  1.8409
   77SLPC  H16S 7010   1.775   3.122   7.761  0.0964  0.6770 -0.1014
   77SLPC  C217 7011   1.915   3.002   7.871 -0.2263 -0.6951 -0.3630
   77SLPC  H17R 7012   1.989   3.017   7.790  0.7913  0.3247  0.7313
   77SLPC  H17S 7013   1.921   2.898   7.911  1.2000 -0.8901 -1.0323
   77SLPC  C218 7014   1.942   3.114   7.976 -0.5184  0.3240 -0.3173
   77SLPC  H18R 7015   2.043   3.108   8.022 -0.0043  0.2096 -1.4430
   77SLPC  H18S 7016   1.858   3.096   8.048 -0.1844 -0.9601 -0.2235
   77SLPC  H18T 7017   1.930   3.215   7.932  1.5331  1.2835  1.1965
   77SLPC   C33 7018   2.576   3.652   7.106 -0.7800 -0.1576 -0.1500
   77SLPC   H3X 7019   2.588   3.757   7.141 -1.4671  0.2429 -1.0868
   77SLPC   H3Y 7020   2.665   3.641   7.039 -1.5605  0.9819 -1.4236
   77SLPC   C34 7021   2.582   3.562   7.227 -0.4064 -0.0366 -0.0506
   77SLPC   H4X 7022   2.669   3.494   7.225  0.7441  1.3734  0.1509
   77SLPC   H4Y 7023   2.484   3.510   7.238 -1.0049  1.0200 -0.2177
   77SLPC   C35 7024   2.588   3.623   7.372 -0.6357  0.1608 -0.6883
   77SLPC   H5X 7025   2.555   3.541   7.440  0.7399 -0.7774 -1.1054
   77SLPC   H5Y 7026   2.506   3.697   7.377 -1.3011 -0.5782 -0.3520
   77SLPC   C36 7027   2.727   3.683   7.410  0.1631  0.3541 -0.5852
   77SLPC   H6X 7028   2.765   3.742   7.323  0.6234 -0.5468 -1.0123
   77SLPC   H6Y 7029   2.796   3.597   7.427 -2.3285 -1.5143  0.6730
   77SLPC   C37 7030   2.732   3.763   7.543 -0.7793  0.1299  0.1877
   77SLPC   H7X 7031   2.627   3.793   7.566 -0.5158  0.5716  0.8559
   77SLPC   H7Y 7032   2.785   3.859   7.521 -2.5584  1.1619  0.2141
   77SLPC   C38 7033   2.809   3.703   7.659 -0.0354  1.0135  0.3305
   77SLPC   H8X 7034   2.918   3.714   7.641  0.5743 -1.7142  1.9212
   77SLPC   H8Y 7035   2.766   3.602   7.672  0.6710  0.7154  0.4229
   77SLPC   C39 7036   2.786   3.777   7.786  0.2575 -0.1806  0.2243
   77SLPC   H9X 7037   2.679   3.802   7.777  0.3429 -0.3805 -1.9444
   77SLPC   H9Y 7038   2.843   3.872   7.788  0.3943 -0.1449 -2.0289
   77SLPC  C310 7039   2.817   3.704   7.914  0.6275 -0.3122  0.1395
   77SLPC  H10X 7040   2.755   3.612   7.921 -0.2315  0.3724  3.3957
   77SLPC  H10Y 7041   2.796   3.770   8.001 -0.1999 -1.6568  1.0046
   77SLPC  C311 7042   2.966   3.668   7.926  0.0940  0.0791 -0.2492
   77SLPC  H11X 7043   3.017   3.749   7.869  0.6866 -0.6284 -0.7467
   77SLPC  H11Y 7044   2.989   3.568   7.883 -1.3735 -0.5019  0.2662
   77SLPC  C312 7045   3.018   3.657   8.072  0.3541 -0.4973 -0.0030
   77SLPC  H12X 7046   2.934   3.632   8.140  1.0033  2.7807  2.2206
   77SLPC  H12Y 7047   3.051   3.757   8.105  0.2503 -0.1350 -0.9746
   77SLPC  C313 7048   3.135   3.557   8.101 -0.2830 -0.1056 -0.8078
   77SLPC  H13X 7049   3.234   3.577   8.054  1.3978  0.0099  2.4756
   77SLPC  H13Y 7050   3.107   3.454   8.069  3.1763 -1.3868 -0.2012
   77SLPC  C314 7051   3.158   3.555   8.250  0.3662 -0.4692 -0.4439
   77SLPC  H14X 7052   3.077   3.502   8.304  1.1434  0.0667  1.3161
   77SLPC  H14Y 7053   3.154   3.663   8.277  1.1663 -0.1268 -1.6115
   77SLPC  C315 7054   3.287   3.486   8.311  0.2371  0.4396 -0.1416
   77SLPC  H15X 7055   3.298   3.389   8.258 -0.4559 -0.1781  0.8185
   77SLPC  H15Y 7056   3.258   3.472   8.417 -1.2169 -1.2955 -0.7228
   77SLPC  C316 7057   3.409   3.580   8.308 -0.5972 -0.2893 -0.5761
   77SLPC  H16X 7058   3.410   3.650   8.394  1.9874 -1.2183  0.2352
   77SLPC  H16Y 7059   3.404   3.639   8.214  1.0537  1.8929  0.6106
   77SLPC  C317 7060   3.543   3.507   8.321 -0.0291 -0.0570  0.2000
   77SLPC  H17X 7061   3.584   3.487   8.219 -1.9083 -1.8891 -0.2475
   77SLPC  H17Y 7062   3.518   3.414   8.376 -2.1904 -0.0107 -0.6217
   77SLPC  C318 7063   3.650   3.595   8.402  0.3945  0.6196  0.3655
   77SLPC  H18X 7064   3.717   3.652   8.334  0.1605 -1.3788 -1.6656
   77SLPC  H18Y 7065   3.723   3.524   8.445 -1.0456 -2.0375 -1.2366
   77SLPC  H18Z 7066   3.615   3.657   8.486  1.3626 -1.1426  2.1475
   78SLPC     N 7067   5.740   4.910   6.045 -0.4392 -0.0416 -0.5677
   78SLPC   C13 7068   5.639   4.999   6.113 -0.0358 -0.0190 -0.7815
   78SLPC  H13A 7069   5.643   4.984   6.220  1.9264  1.6891 -0.5452
   78SLPC  H13B 7070   5.664   5.103   6.101 -1.1357  0.4323  0.5513
   78SLPC  H13C 7071   5.539   4.988   6.074 -0.6996  0.7235  0.6326
   78SLPC   C14 7072   5.781   4.951   5.905  0.3824 -0.3196  0.0351
   78SLPC  H14A 7073   5.861   4.893   5.860  0.8377 -0.5825  1.1625
   78SLPC  H14B 7074   5.692   4.943   5.844  0.4567 -2.3845  0.1145
   78SLPC  H14C 7075   5.811   5.055   5.905  2.9651 -0.9836 -1.1646
   78SLPC   C15 7076   5.686   4.779   6.037 -0.1689  0.5513 -0.4831
   78SLPC  H15A 7077   5.665   4.741   6.136  0.4287  1.6150  0.0702
   78SLPC  H15B 7078   5.598   4.792   5.976  0.1043  1.7305 -0.6416
   78SLPC  H15C 7079   5.758   4.714   5.990 -0.4942 -0.0656 -0.1427
   78SLPC   C12 7080   5.863   4.905   6.136  0.6972  0.4082  0.0303
   78SLPC  H12A 7081   5.876   5.010   6.159 -1.9512  0.7598  0.3027
   78SLPC  H12B 7082   5.947   4.874   6.076  0.1474  0.1839 -0.6352
   78SLPC   C11 7083   5.868   4.819   6.263  0.2275 -0.5855 -0.9292
   78SLPC  H11A 7084   5.786   4.846   6.333 -0.3619 -1.4706 -1.2560
   78SLPC  H11B 7085   5.958   4.848   6.321 -0.7984 -0.3992  0.6516
   78SLPC     P 7086   5.850   4.567   6.341 -0.3729  0.1322 -0.1938
   78SLPC   O13 7087   5.705   4.544   6.374  0.2487 -0.2352 -0.3187
   78SLPC   O14 7088   5.930   4.456   6.285  0.2372 -0.2609  0.3305
   78SLPC   O12 7089   5.871   4.680   6.232 -0.6853  0.6181  0.2680
   78SLPC   O11 7090   5.926   4.638   6.464  0.4409 -1.3648 -0.0986
   78SLPC    C1 7091   6.070   4.656   6.462  0.2042 -0.7621 -0.3718
   78SLPC    HA 7092   6.122   4.649   6.364  0.0321  0.1636 -0.5367
   78SLPC    HB 7093   6.076   4.764   6.489  0.7118 -0.7941 -0.3490
   78SLPC    C2 7094   6.142   4.558   6.553  0.4036 -0.4122 -0.1539
   78SLPC    HS 7095   6.126   4.454   6.516 -3.6240  0.6810 -1.9608
   78SLPC   O21 7096   6.102   4.577   6.692  0.1068  0.2685  0.2977
   78SLPC   C21 7097   5.994   4.508   6.713 -0.3412 -0.0220 -1.3802
   78SLPC   O22 7098   5.942   4.425   6.639 -0.3267 -0.3724 -0.9202
   78SLPC   C22 7099   5.945   4.544   6.851 -0.4502 -0.2349  0.1623
   78SLPC   H2R 7100   5.935   4.654   6.862 -0.8579 -0.4232  1.8817
   78SLPC   H2S 7101   5.847   4.498   6.875  0.1591 -1.7497 -0.1514
   78SLPC    C3 7102   6.290   4.586   6.555  0.1618 -0.6537  0.0612
   78SLPC    HX 7103   6.300   4.695   6.573  1.4970 -0.8149  0.3640
   78SLPC    HY 7104   6.320   4.566   6.451  0.3182 -0.8504  0.1444
   78SLPC   O31 7105   6.357   4.509   6.653 -0.1950  0.6462 -0.4706
   78SLPC   C31 7106   6.487   4.531   6.658  0.1190  0.7781  0.1127
   78SLPC   O32 7107   6.547   4.599   6.578 -0.5384 -0.1508 -0.5057
   78SLPC   C32 7108   6.548   4.460   6.782  0.4018 -0.7189 -0.0314
   78SLPC   H2X 7109   6.643   4.515   6.799 -0.4676  0.2371  2.1847
   78SLPC   H2Y 7110   6.567   4.356   6.748  0.1698 -0.4317 -1.0538
   78SLPC   C23 7111   6.051   4.501   6.962  0.5922 -0.5984  0.3632
   78SLPC   H3R 7112   6.142   4.562   6.943 -1.2004  2.2938  0.4071
   78SLPC   H3S 7113   6.073   4.393   6.951 -1.4341 -1.1194  0.9008
   78SLPC   C24 7114   6.003   4.515   7.113 -0.2211  0.2648 -0.5919
   78SLPC   H4R 7115   5.931   4.435   7.140  1.2949 -0.2024  2.4230
   78SLPC   H4S 7116   5.942   4.608   7.108  0.7785  1.0216  0.7229
   78SLPC   C25 7117   6.116   4.520   7.209  0.1978 -0.5343  0.2790
   78SLPC   H5R 7118   6.190   4.599   7.186  0.3403 -0.5305  0.7403
   78SLPC   H5S 7119   6.161   4.419   7.223  0.2316 -0.4054  1.1389
   78SLPC   C26 7120   6.054   4.561   7.347  0.0196 -0.1873 -0.7493
   78SLPC   H6R 7121   5.979   4.481   7.367 -0.7885  0.8077  0.2865
   78SLPC   H6S 7122   6.011   4.662   7.336 -2.0738 -1.0840 -1.2166
   78SLPC   C27 7123   6.152   4.562   7.471  0.0712 -0.6192 -0.6245
   78SLPC   H7R 7124   6.240   4.629   7.461 -1.3226  1.3692 -0.1418
   78SLPC   H7S 7125   6.200   4.462   7.485 -2.8569 -1.8188  2.2026
   78SLPC   C28 7126   6.079   4.595   7.613 -0.1314 -0.6426 -0.2984
   78SLPC   H8R 7127   5.991   4.526   7.611 -2.5851  2.2937 -1.9979
   78SLPC   H8S 7128   6.045   4.699   7.597  0.0170 -0.7396 -1.2872
   78SLPC   C29 7129   6.162   4.587   7.738  0.4798 -0.9734 -0.0236
   78SLPC   H9R 7130   6.267   4.616   7.724 -0.6076  2.5308 -2.0010
   78SLPC  C210 7131   6.124   4.541   7.854  0.4227 -0.2034  0.7149
   78SLPC  H10R 7132   6.196   4.555   7.936 -0.4167  0.5007  1.3457
   78SLPC  C211 7133   5.999   4.468   7.899 -0.4798 -0.0876  0.3016
   78SLPC  H11R 7134   5.984   4.385   7.827  2.1324 -1.3409  1.0632
   78SLPC  H11S 7135   5.908   4.532   7.901  0.0490  0.7194  2.7473
   78SLPC  C212 7136   6.026   4.409   8.038  0.0180  0.1794 -0.2038
   78SLPC  H12R 7137   6.121   4.358   8.060  0.0207  0.5807  0.7918
   78SLPC  C213 7138   5.943   4.416   8.144 -0.2990  0.1500  0.1597
   78SLPC  H13R 7139   5.984   4.381   8.240  1.5514  0.4523 -0.4890
   78SLPC  C214 7140   5.810   4.482   8.153 -0.6537 -0.0806  0.4461
   78SLPC  H14R 7141   5.782   4.552   8.072 -2.2068 -0.9876  0.1672
   78SLPC  H14S 7142   5.815   4.552   8.240 -1.6033  0.5088  0.0396
   78SLPC  C215 7143   5.689   4.388   8.188 -0.3846  0.1029  0.8948
   78SLPC  H15R 7144   5.678   4.315   8.105  1.9453  1.2078 -0.4852
   78SLPC  H15S 7145   5.596   4.448   8.193 -1.2020 -1.1153  0.8949
   78SLPC  C216 7146   5.711   4.303   8.318  0.0021  0.2898 -0.3444
   78SLPC  H16R 7147   5.762   4.372   8.389 -1.8302 -0.2877  1.6126
   78SLPC  H16S 7148   5.782   4.222   8.290  0.1684  0.4190 -0.3005
   78SLPC  C217 7149   5.580   4.257   8.392  0.5394  0.2016 -0.6081
   78SLPC  H17R 7150   5.528   4.185   8.326  3.3343 -1.4277 -1.1979
   78SLPC  H17S 7151   5.529   4.355   8.402 -2.1265 -1.1973  0.2190
   78SLPC  C218 7152   5.611   4.206   8.536 -0.0253  0.5581  0.7215
   78SLPC  H18R 7153   5.650   4.105   8.511 -2.2111  0.2786 -2.1743
   78SLPC  H18S 7154   5.520   4.197   8.599 -0.6644 -0.1152 -0.2471
   78SLPC  H18T 7155   5.680   4.270   8.594  1.4539 -2.1124  2.0853
   78SLPC   C33 7156   6.455   4.461   6.901  0.3881 -0.2154 -0.5981
   78SLPC   H3X 7157   6.353   4.425   6.876 -0.6151  1.4793  0.8200
   78SLPC   H3Y 7158   6.442   4.568   6.926  1.5750  0.0809 -1.2154
   78SLPC   C34 7159   6.510   4.359   6.999 -0.1322  0.0395 -0.0673
   78SLPC   H4X 7160   6.605   4.400   7.039 -0.4126  1.2741 -0.6458
   78SLPC   H4Y 7161   6.530   4.259   6.954  0.1271 -1.6962  3.4830
   78SLPC   C35 7162   6.407   4.352   7.120 -0.0031 -0.2223 -0.1739
   78SLPC   H5X 7163   6.302   4.355   7.084  0.7049  0.6316 -2.3684
   78SLPC   H5Y 7164   6.417   4.426   7.202 -0.0368 -1.8085  1.3200
   78SLPC   C36 7165   6.424   4.212   7.193 -0.2705 -0.0953 -0.0167
   78SLPC   H6X 7166   6.522   4.222   7.246  0.1922 -0.5931 -0.7641
   78SLPC   H6Y 7167   6.441   4.121   7.133  0.0088 -0.1768  0.1797
   78SLPC   C37 7168   6.309   4.193   7.295  0.6996 -0.5505  0.3663
   78SLPC   H7X 7169   6.217   4.155   7.246  0.0868 -0.0959  1.1368
   78SLPC   H7Y 7170   6.311   4.287   7.355  1.8843 -0.2957 -0.0325
   78SLPC   C38 7171   6.343   4.075   7.387 -0.5895  0.1705  0.8825
   78SLPC   H8X 7172   6.442   4.098   7.431 -0.0183  1.5761 -1.0293
   78SLPC   H8Y 7173   6.363   3.991   7.317 -3.4427  0.3444 -0.2575
   78SLPC   C39 7174   6.235   4.027   7.483 -0.4700 -0.4445 -0.2583
   78SLPC   H9X 7175   6.269   3.945   7.550  0.4022  0.1424  0.0400
   78SLPC   H9Y 7176   6.148   3.979   7.433  0.7678 -3.7588  0.5189
   78SLPC  C310 7177   6.189   4.137   7.584 -0.4942 -0.0638 -0.1217
   78SLPC  H10X 7178   6.121   4.204   7.528 -0.9802 -1.1576 -0.8719
   78SLPC  H10Y 7179   6.278   4.193   7.619  0.4752 -0.4485 -1.8430
   78SLPC  C311 7180   6.124   4.079   7.706 -0.4182 -0.0424  0.4645
   78SLPC  H11X 7181   6.065   3.998   7.656 -1.0404  0.9742 -0.5024
   78SLPC  H11Y 7182   6.057   4.154   7.752  1.2661  1.0963  1.1373
   78SLPC  C312 7183   6.218   4.030   7.812  0.2325 -0.3245 -0.2949
   78SLPC  H12X 7184   6.260   4.121   7.860 -1.3426 -1.4126  3.5003
   78SLPC  H12Y 7185   6.302   3.977   7.761 -0.1323 -0.4003 -0.8273
   78SLPC  C313 7186   6.165   3.929   7.916  0.3898 -0.0262 -0.3712
   78SLPC  H13X 7187   6.145   3.832   7.866 -1.0496 -0.6436  1.2984
   78SLPC  H13Y 7188   6.071   3.961   7.967  0.7731 -1.7430  1.5365
   78SLPC  C314 7189   6.267   3.894   8.020 -0.4151  0.3175 -0.0704
   78SLPC  H14X 7190   6.294   3.988   8.073  0.6513  0.8176 -1.4427
   78SLPC  H14Y 7191   6.364   3.864   7.975 -0.8896  1.1339 -1.7386
   78SLPC  C315 7192   6.220   3.787   8.122  0.3034 -0.0277  0.1587
   78SLPC  H15X 7193   6.145   3.829   8.193  1.5814 -0.3458  1.7478
   78SLPC  H15Y 7194   6.309   3.756   8.180  1.0522 -0.5413 -1.2258
   78SLPC  C316 7195   6.161   3.660   8.060  0.1286  1.0806  0.3265
   78SLPC  H16X 7196   6.224   3.630   7.973 -0.5305  1.3460 -0.2504
   78SLPC  H16Y 7197   6.065   3.685   8.010  0.3771 -0.4085 -0.9821
   78SLPC  C317 7198   6.141   3.538   8.159 -0.7738 -0.4616  0.4678
   78SLPC  H17X 7199   6.069   3.560   8.241  0.0859 -1.6989  1.5820
   78SLPC  H17Y 7200   6.239   3.513   8.205 -0.2006 -0.8172 -0.9081
   78SLPC  C318 7201   6.096   3.409   8.082 -0.0239 -0.2956 -0.6540
   78SLPC  H18X 7202   5.993   3.431   8.047  0.3952 -0.3282 -1.9403
   78SLPC  H18Y 7203   6.086   3.329   8.159  1.4102  1.1120  1.1011
   78SLPC  H18Z 7204   6.159   3.366   8.002 -0.0315  0.5162 -1.1056
   79SLPC     N 7205   3.831   5.216   6.052  0.0735 -0.3383 -0.7900
   79SLPC   C13 7206   3.882   5.338   6.127 -0.7318  0.0032 -0.4203
   79SLPC  H13A 7207   3.976   5.317   6.176 -2.4467 -2.7173  2.0123
   79SLPC  H13B 7208   3.885   5.425   6.062 -0.9874  1.0358  0.8945
   79SLPC  H13C 7209   3.820   5.368   6.211  0.4744  2.0610 -0.1924
   79SLPC   C14 7210   3.886   5.232   5.913 -0.0916 -0.0608  0.9972
   79SLPC  H14A 7211   3.988   5.198   5.921  0.5830  1.9554  1.3719
   79SLPC  H14B 7212   3.826   5.173   5.845 -1.6406 -0.0238  2.2740
   79SLPC  H14C 7213   3.881   5.334   5.878 -0.8694  0.7957  3.3565
   79SLPC   C15 7214   3.687   5.223   6.042  0.4261 -0.3656  0.1034
   79SLPC  H15A 7215   3.657   5.292   5.964  1.9815 -0.6937 -0.8307
   79SLPC  H15B 7216   3.633   5.132   6.020  0.6613 -0.4995  0.0770
   79SLPC  H15C 7217   3.645   5.266   6.132 -1.5645  1.7477 -1.6844
   79SLPC   C12 7218   3.878   5.089   6.116  0.1451 -0.1952  0.1489
   79SLPC  H12A 7219   3.983   5.100   6.135 -0.1252 -0.7590  2.1447
   79SLPC  H12B 7220   3.879   5.008   6.044 -0.1319  0.1679 -0.2732
   79SLPC   C11 7221   3.805   5.056   6.255 -0.4711  0.2913 -0.6493
   79SLPC  H11A 7222   3.808   5.141   6.327 -3.2058 -0.5702  0.6430
   79SLPC  H11B 7223   3.874   4.986   6.307  1.6884  0.8322 -2.6141
   79SLPC     P 7224   3.644   4.858   6.257  0.8540 -0.2727  0.0656
   79SLPC   O13 7225   3.509   4.822   6.205 -0.0586  0.1341  0.5856
   79SLPC   O14 7226   3.764   4.780   6.210  0.1877  0.0834  0.3789
   79SLPC   O12 7227   3.676   5.007   6.232 -0.0305 -0.0682  0.4499
   79SLPC   O11 7228   3.642   4.854   6.410  0.1976  0.5941  0.4426
   79SLPC    C1 7229   3.546   4.921   6.486  0.2439 -0.0210 -0.3817
   79SLPC    HA 7230   3.524   5.027   6.459  1.6467  0.4699  0.3260
   79SLPC    HB 7231   3.450   4.866   6.493 -1.1502  2.5015  3.4638
   79SLPC    C2 7232   3.579   4.923   6.638 -1.0021  0.3484 -0.9552
   79SLPC    HS 7233   3.644   5.010   6.663  1.5120 -2.0254  1.4596
   79SLPC   O21 7234   3.636   4.797   6.686 -0.3007  0.0383 -0.1403
   79SLPC   C21 7235   3.771   4.790   6.688 -0.2315 -0.1207  0.3662
   79SLPC   O22 7236   3.847   4.882   6.654 -0.3687  0.0610  0.3098
   79SLPC   C22 7237   3.810   4.663   6.768 -0.0564  0.0587 -0.1268
   79SLPC   H2R 7238   3.733   4.587   6.743  0.1306  0.3731 -1.7126
   79SLPC   H2S 7239   3.906   4.634   6.721 -0.5459 -1.2098 -0.3741
   79SLPC    C3 7240   3.451   4.938   6.732 -0.2449 -0.0690 -0.4759
   79SLPC    HX 7241   3.391   4.845   6.721 -1.2898  0.6404 -0.9995
   79SLPC    HY 7242   3.378   5.003   6.679 -1.5162 -1.2219 -0.1948
   79SLPC   O31 7243   3.474   4.963   6.876  0.1172 -0.0929  0.5923
   79SLPC   C31 7244   3.496   5.095   6.899  0.7954  0.4777 -0.3788
   79SLPC   O32 7245   3.484   5.184   6.817 -0.2083  0.0767  0.8238
   79SLPC   C32 7246   3.533   5.116   7.044 -0.7195  0.3409  0.3320
   79SLPC   H2X 7247   3.477   5.209   7.071  1.9465  2.7685 -1.8899
   79SLPC   H2Y 7248   3.642   5.134   7.040 -0.6755 -0.1497 -2.2758
   79SLPC   C23 7249   3.826   4.679   6.912 -0.3681 -0.2175 -0.0111
   79SLPC   H3R 7250   3.888   4.766   6.941  0.5728 -0.8065 -0.2207
   79SLPC   H3S 7251   3.877   4.585   6.944  1.1729  0.0056 -1.6980
   79SLPC   C24 7252   3.694   4.696   6.993 -0.4334  0.4324 -0.1607
   79SLPC   H4R 7253   3.636   4.607   6.960  1.1366 -0.4186 -0.7165
   79SLPC   H4S 7254   3.650   4.794   6.966  0.1601  0.3690 -1.4506
   79SLPC   C25 7255   3.704   4.695   7.144  0.4377 -0.1545  0.0652
   79SLPC   H5R 7256   3.600   4.696   7.180  0.2028  3.6419 -0.3612
   79SLPC   H5S 7257   3.747   4.795   7.167  0.6427 -0.7304  2.4204
   79SLPC   C26 7258   3.785   4.577   7.196  0.7299  0.1053  0.4450
   79SLPC   H6R 7259   3.893   4.585   7.174  0.3738 -0.1685 -1.6192
   79SLPC   H6S 7260   3.745   4.481   7.156 -0.3509 -0.0966  1.9338
   79SLPC   C27 7261   3.778   4.572   7.351  0.5244  0.2872 -0.2548
   79SLPC   H7R 7262   3.793   4.673   7.393 -0.3558  0.7160 -0.9432
   79SLPC   H7S 7263   3.860   4.511   7.395 -2.3953 -2.5511  1.7543
   79SLPC   C28 7264   3.655   4.491   7.412  0.6567 -0.6188  0.2404
   79SLPC   H8R 7265   3.677   4.383   7.408 -1.3241 -1.0981  1.0023
   79SLPC   H8S 7266   3.567   4.531   7.357 -0.2372 -1.2631  1.1723
   79SLPC   C29 7267   3.633   4.521   7.561  0.2032  0.1558  0.4576
   79SLPC   H9R 7268   3.576   4.610   7.594  0.0126  0.6378 -1.1107
   79SLPC  C210 7269   3.668   4.441   7.659 -0.6135  0.0420  0.0555
   79SLPC  H10R 7270   3.650   4.473   7.763 -0.5976 -0.3738  0.1862
   79SLPC  C211 7271   3.741   4.313   7.653 -0.4943 -0.3591  0.4606
   79SLPC  H11R 7272   3.847   4.338   7.637 -0.8713  0.5081 -0.8004
   79SLPC  H11S 7273   3.706   4.255   7.564  1.2696  0.4920 -0.8372
   79SLPC  C212 7274   3.731   4.228   7.772 -0.1031  0.4123 -0.5106
   79SLPC  H12R 7275   3.637   4.173   7.787  0.1925  0.2916  1.1133
   79SLPC  C213 7276   3.827   4.225   7.874  0.0026  0.6132 -0.1042
   79SLPC  H13R 7277   3.806   4.186   7.975  0.8977 -0.5758 -0.3526
   79SLPC  C214 7278   3.953   4.296   7.884  0.1140 -0.2506 -0.4896
   79SLPC  H14R 7279   3.997   4.303   7.782 -0.9314 -1.0723 -1.0296
   79SLPC  H14S 7280   4.022   4.237   7.948 -2.1341 -2.8690 -0.2369
   79SLPC  C215 7281   3.946   4.441   7.942  0.0166 -0.2289  0.6260
   79SLPC  H15R 7282   3.888   4.510   7.878 -1.3284 -1.7496  0.1483
   79SLPC  H15S 7283   4.049   4.483   7.935 -0.5302  0.8510 -4.5787
   79SLPC  C216 7284   3.904   4.445   8.090 -0.1912 -0.2959  0.2889
   79SLPC  H16R 7285   3.806   4.393   8.097  0.5879 -2.2550 -1.9836
   79SLPC  H16S 7286   3.874   4.549   8.118 -2.0105  0.4983 -3.7514
   79SLPC  C217 7287   4.002   4.382   8.190  0.1406 -0.5544  0.4478
   79SLPC  H17R 7288   4.097   4.441   8.189 -0.3497  0.2887  1.6644
   79SLPC  H17S 7289   4.040   4.282   8.163  0.5872  0.1468 -1.7768
   79SLPC  C218 7290   3.957   4.389   8.333  0.1748 -0.2102  0.4203
   79SLPC  H18R 7291   3.880   4.314   8.358 -1.4892  0.8411 -1.3281
   79SLPC  H18S 7292   3.920   4.490   8.361  1.4781  0.2320  0.6197
   79SLPC  H18T 7293   4.047   4.377   8.398  1.1035 -1.6669 -1.0499
   79SLPC   C33 7294   3.497   5.003   7.137 -0.4684 -0.0228  0.4464
   79SLPC   H3X 7295   3.525   4.905   7.091  0.6838 -0.2833  1.6427
   79SLPC   H3Y 7296   3.389   4.995   7.161 -0.6572 -0.2036 -0.4417
   79SLPC   C34 7297   3.576   5.018   7.267 -0.0130 -0.0943 -0.1130
   79SLPC   H4X 7298   3.575   5.121   7.307  4.3885 -0.2454  0.8346
   79SLPC   H4Y 7299   3.685   5.009   7.251  0.4371  2.5574  1.0626
   79SLPC   C35 7300   3.525   4.923   7.374 -0.4716 -0.1035  0.6927
   79SLPC   H5X 7301   3.566   4.828   7.333 -1.6941 -0.3120 -0.0886
   79SLPC   H5Y 7302   3.414   4.917   7.380 -0.7899  1.6513 -1.9459
   79SLPC   C36 7303   3.567   4.965   7.513 -0.4928 -0.1553  0.0540
   79SLPC   H6X 7304   3.536   4.879   7.575 -0.6747  0.4275  0.7804
   79SLPC   H6Y 7305   3.505   5.054   7.537 -1.6590 -0.4397 -1.7299
   79SLPC   C37 7306   3.713   5.005   7.517 -0.5954  0.3404 -0.3963
   79SLPC   H7X 7307   3.739   5.096   7.460  0.6314 -2.1416 -4.2360
   79SLPC   H7Y 7308   3.776   4.926   7.470 -1.7760 -1.2082  0.5298
   79SLPC   C38 7309   3.772   5.032   7.659  0.3628  0.5360 -0.3459
   79SLPC   H8X 7310   3.879   5.007   7.644  0.6693  0.4871  1.6677
   79SLPC   H8Y 7311   3.732   4.960   7.733  1.6594  0.2891  0.1404
   79SLPC   C39 7312   3.744   5.179   7.703 -0.6753 -0.4328  0.3261
   79SLPC   H9X 7313   3.634   5.192   7.711 -1.2067 -2.9323 -1.5204
   79SLPC   H9Y 7314   3.779   5.240   7.617 -0.8752 -0.6397  0.0928
   79SLPC  C310 7315   3.818   5.213   7.833 -0.0846  0.3479 -0.2471
   79SLPC  H10X 7316   3.924   5.182   7.825  0.0673  0.4368  1.1997
   79SLPC  H10Y 7317   3.779   5.145   7.912 -2.3206 -1.4512 -2.7157
   79SLPC  C311 7318   3.797   5.357   7.872 -0.6175 -0.6502  0.4543
   79SLPC  H11X 7319   3.691   5.387   7.881 -1.0340 -2.1434  0.7537
   79SLPC  H11Y 7320   3.844   5.427   7.800  0.8772 -0.3010  1.7060
   79SLPC  C312 7321   3.863   5.372   8.011  0.3319  0.2269  0.3911
   79SLPC  H12X 7322   3.961   5.321   8.000 -0.4037 -1.2431  0.5415
   79SLPC  H12Y 7323   3.810   5.304   8.081 -0.3800 -0.5030 -0.8398
   79SLPC  C313 7324   3.884   5.519   8.054  1.3221  0.4628 -0.0272
   79SLPC  H13X 7325   3.796   5.553   8.113 -0.9412 -1.0729 -2.2903
   79SLPC  H13Y 7326   3.873   5.584   7.965 -1.2440 -0.4188 -0.4547
   79SLPC  C314 7327   4.026   5.542   8.106  0.1063 -0.5389  0.5045
   79SLPC  H14X 7328   4.099   5.525   8.024 -3.0801 -0.4551 -2.5918
   79SLPC  H14Y 7329   4.054   5.471   8.187  1.2857 -0.5610  0.0988
   79SLPC  C315 7330   4.059   5.683   8.171  0.0759 -0.0420 -0.8238
   79SLPC  H15X 7331   4.024   5.759   8.098 -0.8895 -0.5323 -0.8808
   79SLPC  H15Y 7332   4.169   5.687   8.191  0.9843 -1.5013 -4.6004
   79SLPC  C316 7333   3.994   5.712   8.305  0.7243  0.3309  0.3774
   79SLPC  H16X 7334   4.003   5.632   8.382 -0.2584  1.3220  1.5584
   79SLPC  H16Y 7335   3.888   5.731   8.280  0.4165  0.4148  1.6728
   79SLPC  C317 7336   4.039   5.846   8.357 -0.0203 -0.1532 -0.0450
   79SLPC  H17X 7337   4.014   5.925   8.282 -0.5186 -0.6367 -0.3903
   79SLPC  H17Y 7338   4.150   5.847   8.359  0.0745 -1.4698 -1.8116
   79SLPC  C318 7339   3.984   5.877   8.496 -0.6262 -0.1144  0.0387
   79SLPC  H18X 7340   4.026   5.797   8.561  1.4742  0.2981 -0.7285
   79SLPC  H18Y 7341   3.873   5.870   8.504 -0.5114 -0.9845  1.0510
   79SLPC  H18Z 7342   4.028   5.966   8.546  1.4894 -0.0395 -1.7927
   80SLPC     N 7343   5.721   3.989   6.115 -0.6490 -0.2000 -0.6322
   80SLPC   C13 7344   5.854   3.989   6.045 -0.8282  0.2203  0.2494
   80SLPC  H13A 7345   5.934   4.024   6.109 -0.7534 -0.9698  0.8332
   80SLPC  H13B 7346   5.868   3.888   6.010 -1.5280 -0.0306  0.6549
   80SLPC  H13C 7347   5.846   4.048   5.955  1.3308 -0.1179 -0.2297
   80SLPC   C14 7348   5.623   3.963   6.006 -0.0907 -0.0209 -0.0145
   80SLPC  H14A 7349   5.519   3.964   6.037  0.1098 -0.1389  0.6782
   80SLPC  H14B 7350   5.632   4.039   5.930 -2.1489 -0.9659 -1.3100
   80SLPC  H14C 7351   5.630   3.864   5.964 -0.1019 -0.1954  0.3869
   80SLPC   C15 7352   5.676   4.121   6.167 -0.1190  0.1135  0.2737
   80SLPC  H15A 7353   5.720   4.156   6.259 -0.2053  5.0693 -1.3216
   80SLPC  H15B 7354   5.693   4.193   6.089 -2.2694  0.2233 -0.1635
   80SLPC  H15C 7355   5.568   4.118   6.172 -0.1371  0.1881 -0.0793
   80SLPC   C12 7356   5.716   3.885   6.226  0.3232  0.5515  0.3835
   80SLPC  H12A 7357   5.619   3.882   6.273  0.9961  2.7740  2.0974
   80SLPC  H12B 7358   5.766   3.925   6.312 -0.9363  1.7717  0.5800
   80SLPC   C11 7359   5.764   3.739   6.200 -0.8296 -0.8178  0.0360
   80SLPC  H11A 7360   5.748   3.674   6.288 -1.4133  0.7875  1.1568
   80SLPC  H11B 7361   5.873   3.747   6.179 -0.9904 -0.8300 -0.8595
   80SLPC     P 7362   5.577   3.587   6.091 -0.0038 -0.3559 -0.1356
   80SLPC   O13 7363   5.456   3.668   6.112 -0.3312 -0.6703 -0.5008
   80SLPC   O14 7364   5.576   3.493   5.976 -0.7354 -0.3008 -0.0821
   80SLPC   O12 7365   5.706   3.684   6.077 -0.2649 -0.2016  0.1138
   80SLPC   O11 7366   5.606   3.494   6.219  0.8382  0.3703 -0.0722
   80SLPC    C1 7367   5.485   3.450   6.296  0.4625 -0.1409  0.6156
   80SLPC    HA 7368   5.388   3.478   6.249  1.0188  1.8219  0.5431
   80SLPC    HB 7369   5.479   3.341   6.316  2.8469 -0.7172 -1.3207
   80SLPC    C2 7370   5.481   3.521   6.433 -0.7188 -0.7570 -0.1679
   80SLPC    HS 7371   5.484   3.629   6.406 -0.0300 -1.1524 -1.7690
   80SLPC   O21 7372   5.585   3.474   6.519 -0.0457  0.7484  0.2499
   80SLPC   C21 7373   5.612   3.547   6.624 -0.3113 -0.0762  0.2409
   80SLPC   O22 7374   5.574   3.657   6.650 -0.0542  0.1597  0.0981
   80SLPC   C22 7375   5.728   3.480   6.694 -0.0788  0.3906 -0.3466
   80SLPC   H2R 7376   5.731   3.377   6.652 -1.8687  0.2018 -0.0744
   80SLPC   H2S 7377   5.823   3.537   6.679  0.5119 -1.0331 -2.6617
   80SLPC    C3 7378   5.337   3.491   6.492  0.4518 -0.2275 -0.3236
   80SLPC    HX 7379   5.318   3.382   6.481  2.0763 -0.4020 -1.9248
   80SLPC    HY 7380   5.258   3.533   6.425 -0.2477  1.5096  1.5042
   80SLPC   O31 7381   5.319   3.527   6.625  0.3997  0.2362 -0.1697
   80SLPC   C31 7382   5.279   3.653   6.645  0.1376 -0.8387  0.2422
   80SLPC   O32 7383   5.273   3.740   6.561  0.6214  0.1792  0.3462
   80SLPC   C32 7384   5.230   3.687   6.789  0.0617  0.3196 -0.2190
   80SLPC   H2X 7385   5.188   3.595   6.833  0.9891  1.0857  2.5123
   80SLPC   H2Y 7386   5.146   3.759   6.778 -0.1368  0.0617 -0.3954
   80SLPC   C23 7387   5.720   3.459   6.846 -0.3573 -0.1046  0.3106
   80SLPC   H3R 7388   5.717   3.561   6.889 -0.6034  0.3182 -0.6670
   80SLPC   H3S 7389   5.821   3.416   6.864 -0.1248 -0.2260 -1.1112
   80SLPC   C24 7390   5.604   3.366   6.892 -0.3269 -0.3884  0.2165
   80SLPC   H4R 7391   5.610   3.277   6.827  0.4260  0.2536 -0.6253
   80SLPC   H4S 7392   5.506   3.417   6.875 -1.2249 -0.9023  3.2640
   80SLPC   C25 7393   5.613   3.332   7.048 -0.6473 -0.0145  0.3544
   80SLPC   H5R 7394   5.709   3.284   7.078 -0.1818  1.3395  1.1077
   80SLPC   H5S 7395   5.522   3.270   7.062 -2.0758  1.4383 -1.8732
   80SLPC   C26 7396   5.606   3.453   7.135  0.0308 -0.8328  0.8895
   80SLPC   H6R 7397   5.524   3.526   7.121 -1.2511 -2.2976  0.4459
   80SLPC   H6S 7398   5.703   3.501   7.109 -1.1425  1.1887  0.0203
   80SLPC   C27 7399   5.609   3.427   7.289 -0.1955  0.2941  0.0490
   80SLPC   H7R 7400   5.594   3.512   7.358  0.9183  0.3647  0.2225
   80SLPC   H7S 7401   5.698   3.371   7.325 -0.4640  0.5252  1.0869
   80SLPC   C28 7402   5.495   3.331   7.333  0.0133  0.2042  0.6056
   80SLPC   H8R 7403   5.524   3.303   7.436  1.1612 -0.8150  0.0304
   80SLPC   H8S 7404   5.501   3.237   7.273 -1.1431  1.6635 -1.9723
   80SLPC   C29 7405   5.360   3.405   7.344  0.3766 -1.0930 -0.6324
   80SLPC   H9R 7406   5.332   3.459   7.252  0.7028  2.6643  1.3011
   80SLPC  C210 7407   5.281   3.412   7.447  0.0585 -1.1483 -0.3766
   80SLPC  H10R 7408   5.189   3.468   7.422 -0.3207 -1.5409  0.1173
   80SLPC  C211 7409   5.289   3.339   7.585  0.0927  0.0581  0.3001
   80SLPC  H11R 7410   5.387   3.371   7.628 -0.8623 -0.4603  3.0744
   80SLPC  H11S 7411   5.294   3.230   7.569  0.0249  0.1305 -0.2246
   80SLPC  C212 7412   5.180   3.375   7.677 -0.2142 -0.0740  0.1407
   80SLPC  H12R 7413   5.083   3.342   7.638 -0.8014  0.0810  1.4153
   80SLPC  C213 7414   5.196   3.431   7.797  0.3147  0.4575  0.9329
   80SLPC  H13R 7415   5.102   3.458   7.849 -0.5525  0.7433 -0.6980
   80SLPC  C214 7416   5.321   3.468   7.871 -0.2473 -0.0365 -0.2075
   80SLPC  H14R 7417   5.337   3.576   7.853  2.7725 -0.5985 -1.6544
   80SLPC  H14S 7418   5.415   3.428   7.826 -1.7742 -0.9753 -2.7653
   80SLPC  C215 7419   5.318   3.430   8.025  0.2085 -0.5061  0.6990
   80SLPC  H15R 7420   5.249   3.502   8.072  0.8436  0.3301  0.3791
   80SLPC  H15S 7421   5.419   3.460   8.062  0.7188  0.0387 -1.0222
   80SLPC  C216 7422   5.270   3.288   8.058 -0.0546 -0.2481 -0.3762
   80SLPC  H16R 7423   5.168   3.282   8.016 -0.1783 -0.0502 -0.1097
   80SLPC  H16S 7424   5.272   3.268   8.168  0.9856 -2.4821 -0.7332
   80SLPC  C217 7425   5.374   3.180   8.014  0.1603 -0.1078  0.8017
   80SLPC  H17R 7426   5.479   3.209   8.036  0.2681  0.3482 -0.2769
   80SLPC  H17S 7427   5.361   3.181   7.904  1.2130  1.9125  0.6459
   80SLPC  C218 7428   5.354   3.041   8.070  0.6680  0.1965  0.0137
   80SLPC  H18R 7429   5.384   3.026   8.176  0.2147 -1.2124 -0.0441
   80SLPC  H18S 7430   5.405   2.976   7.996 -0.2618  2.2548 -2.6150
   80SLPC  H18T 7431   5.246   3.014   8.063  0.0995  1.8006  1.7220
   80SLPC   C33 7432   5.336   3.731   6.895  0.6802  0.7217  0.2204
   80SLPC   H3X 7433   5.372   3.834   6.873 -0.2871  1.3709  1.5402
   80SLPC   H3Y 7434   5.426   3.669   6.876  1.3109  1.0352  2.0338
   80SLPC   C34 7435   5.299   3.694   7.039 -0.0333  0.0671  0.0722
   80SLPC   H4X 7436   5.382   3.704   7.111  0.0608  0.6901 -0.1226
   80SLPC   H4Y 7437   5.267   3.588   7.049 -2.0523  0.7472  1.5525
   80SLPC   C35 7438   5.177   3.768   7.086 -0.7580  0.0542 -0.2691
   80SLPC   H5X 7439   5.084   3.749   7.028  0.7633 -0.0183 -2.8797
   80SLPC   H5Y 7440   5.198   3.876   7.072 -0.6714  0.2586  1.3376
   80SLPC   C36 7441   5.149   3.731   7.234  0.3791 -0.5678  0.0679
   80SLPC   H6X 7442   5.186   3.628   7.253  1.5915 -0.1351  0.1699
   80SLPC   H6Y 7443   5.040   3.722   7.250  0.4582 -0.5923  0.6185
   80SLPC   C37 7444   5.212   3.833   7.331 -0.1783 -0.3356 -0.4211
   80SLPC   H7X 7445   5.170   3.930   7.295  0.3420 -0.5289 -1.5880
   80SLPC   H7Y 7446   5.323   3.833   7.339 -0.2297 -1.7118  0.7440
   80SLPC   C38 7447   5.166   3.801   7.477 -0.1335 -0.6938  0.2288
   80SLPC   H8X 7448   5.205   3.700   7.498 -0.9484 -1.1515 -0.4056
   80SLPC   H8Y 7449   5.055   3.792   7.469 -0.1965  1.0330 -2.3135
   80SLPC   C39 7450   5.217   3.902   7.583 -0.2993  0.1573  0.9737
   80SLPC   H9X 7451   5.152   3.991   7.600  0.9422  1.4966 -0.8468
   80SLPC   H9Y 7452   5.309   3.944   7.537 -1.5677 -0.1964 -2.1820
   80SLPC  C310 7453   5.251   3.829   7.716  0.3495 -0.4044 -0.6272
   80SLPC  H10X 7454   5.322   3.899   7.765  1.2134 -0.9170 -1.1173
   80SLPC  H10Y 7455   5.318   3.742   7.699 -0.2787 -0.8476 -0.8235
   80SLPC  C311 7456   5.122   3.795   7.787 -0.4153 -1.0010  0.0166
   80SLPC  H11X 7457   5.139   3.754   7.889  2.1064  0.1637  0.1499
   80SLPC  H11Y 7458   5.069   3.714   7.733  1.8434 -1.4329 -1.6930
   80SLPC  C312 7459   5.024   3.915   7.805 -0.5284 -0.1123  0.6084
   80SLPC  H12X 7460   4.974   3.936   7.708 -1.3475 -0.9872  0.8310
   80SLPC  H12Y 7461   5.083   4.003   7.840 -1.1494  0.5188  0.1033
   80SLPC  C313 7462   4.928   3.888   7.918  0.7745 -1.0145 -0.1009
   80SLPC  H13X 7463   4.973   3.848   8.012  1.1121 -1.6673 -0.5360
   80SLPC  H13Y 7464   4.856   3.811   7.883  2.0308 -1.5441 -1.6064
   80SLPC  C314 7465   4.836   4.008   7.955  0.8155  0.2581  0.2509
   80SLPC  H14X 7466   4.820   4.069   7.864 -2.0027 -0.7673 -0.0413
   80SLPC  H14Y 7467   4.870   4.072   8.040  2.3319 -0.1853  0.0037
   80SLPC  C315 7468   4.698   3.947   7.999  0.5194  0.0244 -0.3037
   80SLPC  H15X 7469   4.705   3.883   8.090  0.5304  2.3942  1.4693
   80SLPC  H15Y 7470   4.659   3.890   7.913  1.7125 -3.2961  1.1968
   80SLPC  C316 7471   4.584   4.046   8.037 -0.5797 -0.0275 -0.5114
   80SLPC  H16X 7472   4.496   3.979   8.047  0.7702 -1.7568  0.4737
   80SLPC  H16Y 7473   4.577   4.124   7.958 -2.7119 -0.1302 -0.4713
   80SLPC  C317 7474   4.594   4.103   8.176  0.3020 -0.4205 -1.0091
   80SLPC  H17X 7475   4.689   4.155   8.201  0.0408 -1.0250  1.4968
   80SLPC  H17Y 7476   4.580   4.035   8.263  1.0033  1.5965  0.7578
   80SLPC  C318 7477   4.489   4.214   8.195  0.5108 -0.1016 -0.2394
   80SLPC  H18X 7478   4.502   4.300   8.126  3.3111 -0.2854 -0.0425
   80SLPC  H18Y 7479   4.497   4.249   8.300 -4.0868 -0.7924  0.5714
   80SLPC  H18Z 7480   4.390   4.171   8.169  0.7542  0.8223 -3.0312
   81SAPS     N 7481   4.049   6.378  10.825  0.0868 -0.3173 -0.5721
   81SAPS   HN1 7482   4.013   6.295  10.774 -0.5924 -0.0317 -0.5706
   81SAPS   HN2 7483   4.121   6.423  10.765  0.7636 -0.1068  0.3685
   81SAPS   HN3 7484   4.094   6.345  10.913  0.2901 -1.4181 -1.0693
   81SAPS   C12 7485   3.922   6.451  10.873 -0.8779  0.7166  0.0505
   81SAPS  H12A 7486   3.866   6.464  10.781 -1.8350 -0.2514  0.4771
   81SAPS   C13 7487   3.846   6.359  10.968 -0.7322  0.4304  0.2765
   81SAPS  O13A 7488   3.914   6.277  11.037  0.9154  1.1106 -0.3893
   81SAPS  O13B 7489   3.738   6.398  11.014 -0.4597 -0.7633  0.0430
   81SAPS   C11 7490   3.943   6.584  10.944  0.1138 -0.1258  0.3789
   81SAPS  H11A 7491   3.987   6.564  11.044  0.3544 -0.8115  0.1450
   81SAPS  H11B 7492   3.840   6.625  10.955  0.0256 -0.6328  1.7350
   81SAPS     P 7493   3.975   6.750  10.739 -0.6839 -0.2779  0.4885
   81SAPS   O13 7494   3.854   6.828  10.776  0.3346 -0.6952 -0.1565
   81SAPS   O14 7495   4.093   6.816  10.677 -0.4472 -0.2047  0.0875
   81SAPS   O12 7496   4.022   6.670  10.866 -0.4190 -0.2553 -0.0031
   81SAPS   O11 7497   3.923   6.637  10.643 -0.1742  0.1344  0.0739
   81SAPS    C1 7498   4.002   6.587  10.545 -0.9998 -0.4288 -0.0134
   81SAPS    HA 7499   4.111   6.607  10.558 -1.3335  1.2829  0.3547
   81SAPS    HB 7500   4.005   6.475  10.546 -1.9365 -0.4558  0.8918
   81SAPS    C2 7501   3.969   6.655  10.412 -0.0898  0.2581  0.3972
   81SAPS    HS 7502   3.952   6.762  10.436 -0.1451  0.2812  0.2573
   81SAPS   O21 7503   3.853   6.592  10.351 -0.8408 -0.8019  0.1392
   81SAPS   C21 7504   3.776   6.682  10.292 -0.1384  0.0244  0.0968
   81SAPS   O22 7505   3.786   6.800  10.276 -0.6576 -0.4488  0.5775
   81SAPS   C22 7506   3.652   6.609  10.244  0.4682  0.3380  0.6445
   81SAPS   H2R 7507   3.648   6.502  10.273  3.0328  0.0758  0.2845
   81SAPS   H2S 7508   3.568   6.662  10.295  0.2591 -1.2290  2.0029
   81SAPS    C3 7509   4.086   6.647  10.304  0.3217  1.1235 -0.0556
   81SAPS    HX 7510   4.103   6.538  10.291 -1.7308  0.5971  1.2296
   81SAPS    HY 7511   4.178   6.692  10.346 -0.1741  0.1934  2.1491
   81SAPS   O31 7512   4.055   6.696  10.173 -0.2468 -0.5075 -0.0136
   81SAPS   C31 7513   4.058   6.832  10.162  0.1570  0.4171 -0.5199
   81SAPS   O32 7514   4.099   6.906  10.251 -0.1703 -0.0811 -0.7112
   81SAPS   C32 7515   3.987   6.879  10.034  0.0533 -0.4064 -0.3743
   81SAPS   H2X 7516   3.908   6.807  10.004  0.4964 -0.1157 -2.3410
   81SAPS   H2Y 7517   4.073   6.868   9.965 -0.4659  0.2814 -1.1428
   81SAPS   C23 7518   3.621   6.610  10.087 -0.4852 -0.0442  0.1604
   81SAPS   H3R 7519   3.612   6.715  10.051 -1.7838 -0.4929 -0.8673
   81SAPS   H3S 7520   3.521   6.565  10.078  0.1429 -1.0158 -3.8531
   81SAPS   C24 7521   3.737   6.549  10.001 -0.2923  0.1433  0.0764
   81SAPS   H4R 7522   3.761   6.444  10.028  1.9683  0.2048 -1.3841
   81SAPS   H4S 7523   3.834   6.603   9.998 -1.0285  1.7080  2.0565
   81SAPS   C25 7524   3.692   6.566   9.856 -0.6050 -0.3797 -0.1661
   81SAPS   H5R 7525   3.611   6.640   9.846 -2.8674 -2.5669  0.9529
   81SAPS   C26 7526   3.749   6.499   9.755  0.6935 -0.8708 -0.8982
   81SAPS   H6R 7527   3.707   6.524   9.657 -1.8269 -0.1786  0.2650
   81SAPS   C27 7528   3.852   6.392   9.768  0.0986  0.0378  0.5956
   81SAPS   H7R 7529   3.874   6.365   9.874  1.2145 -0.9363  0.1460
   81SAPS   H7S 7530   3.948   6.434   9.732  0.3564 -1.3468 -0.4420
   81SAPS   C28 7531   3.795   6.265   9.706 -0.4624  0.3100 -0.6255
   81SAPS   H8R 7532   3.707   6.224   9.758  0.8168 -1.9777 -0.1061
   81SAPS   C29 7533   3.855   6.196   9.605  0.2345  0.1909  0.5765
   81SAPS   H9R 7534   3.810   6.106   9.561  4.0392 -1.0006 -1.3416
   81SAPS  C210 7535   3.980   6.225   9.536  0.1630 -0.4020  0.1311
   81SAPS  H10R 7536   4.042   6.134   9.552  0.1892 -0.2762  0.7690
   81SAPS  H10S 7537   4.040   6.300   9.592  0.1547 -0.3994  0.1371
   81SAPS  C211 7538   3.966   6.274   9.394 -0.1737  0.2948 -0.3055
   81SAPS  H11R 7539   3.957   6.184   9.330  0.4399  0.1509 -0.1930
   81SAPS  C212 7540   3.967   6.396   9.345  0.1340  0.2470  0.2086
   81SAPS  H12R 7541   3.953   6.403   9.236  0.7297  1.1562  0.1704
   81SAPS  C213 7542   3.983   6.523   9.424  0.4463  0.2621  0.2935
   81SAPS  H13R 7543   4.089   6.524   9.456  0.2448  1.0355  0.9630
   81SAPS  H13S 7544   3.919   6.525   9.515 -1.2737  0.3593 -0.8601
   81SAPS  C214 7545   3.961   6.651   9.345 -0.3191  0.9146 -0.6324
   81SAPS  H14R 7546   3.972   6.645   9.235 -2.4371  1.1698 -0.8974
   81SAPS  C215 7547   3.941   6.776   9.402  0.2094 -0.3494 -0.2996
   81SAPS  H15R 7548   3.917   6.864   9.340  0.1058 -0.0787  0.1178
   81SAPS  C216 7549   3.930   6.802   9.550 -0.4272 -1.4405 -0.1245
   81SAPS  H16R 7550   3.990   6.894   9.570 -0.5275 -1.9034  2.7677
   81SAPS  H16S 7551   3.978   6.720   9.608  0.3049 -2.4011 -2.0287
   81SAPS  C217 7552   3.785   6.829   9.602  0.5987  0.0663 -0.0110
   81SAPS  H17R 7553   3.797   6.815   9.712 -0.7001  2.2230  0.4612
   81SAPS  H17S 7554   3.721   6.746   9.566 -0.7115  0.9719  0.1612
   81SAPS  C218 7555   3.724   6.966   9.574  0.1850  0.0163  0.0917
   81SAPS  H18R 7556   3.719   6.989   9.465 -2.4600  0.4500  0.2321
   81SAPS  H18S 7557   3.789   7.036   9.630  1.8216  0.2694 -1.9915
   81SAPS  C219 7558   3.583   6.980   9.629 -0.6364 -0.5688  0.4431
   81SAPS  H19R 7559   3.512   6.899   9.601 -2.3205  1.6858 -2.4112
   81SAPS  H19S 7560   3.543   7.072   9.580  3.0068  1.1608  0.4023
   81SAPS  C220 7561   3.569   6.998   9.782 -0.3053 -0.4684  0.3160
   81SAPS  H20R 7562   3.604   7.099   9.812 -0.6117 -0.2560 -0.0242
   81SAPS  H20S 7563   3.639   6.924   9.826  1.5013  1.4982  0.8954
   81SAPS  H20T 7564   3.466   6.977   9.819 -0.2496 -0.3956  0.5127
   81SAPS   C33 7565   3.931   7.028  10.032  0.1314  0.1990 -0.1904
   81SAPS   H3X 7566   3.982   7.095  10.104  2.1909 -0.5334 -0.8883
   81SAPS   H3Y 7567   3.824   7.029  10.062  0.5527  0.6715  1.3692
   81SAPS   C34 7568   3.954   7.087   9.890  0.0642 -0.7761  0.6039
   81SAPS   H4X 7569   3.896   7.180   9.870 -0.8187 -1.3654  0.3369
   81SAPS   H4Y 7570   3.918   7.011   9.817  1.1286 -0.8260  0.1206
   81SAPS   C35 7571   4.101   7.132   9.860  0.4980  0.4955  0.0172
   81SAPS   H5X 7572   4.168   7.052   9.900  0.6731 -0.4595 -2.0736
   81SAPS   H5Y 7573   4.134   7.222   9.916 -1.1421  0.7166  0.6731
   81SAPS   C36 7574   4.130   7.135   9.709  0.6945 -0.9052 -0.2200
   81SAPS   H6X 7575   4.086   7.049   9.653  1.3785 -0.9113 -0.7562
   81SAPS   H6Y 7576   4.238   7.125   9.684  0.5260  0.4685 -1.6796
   81SAPS   C37 7577   4.079   7.263   9.651  0.1308 -0.7257  0.3315
   81SAPS   H7X 7578   4.122   7.347   9.711  2.6416 -1.3605 -0.4550
   81SAPS   H7Y 7579   3.971   7.269   9.676 -0.3168 -0.5093 -1.4770
   81SAPS   C38 7580   4.088   7.275   9.497  0.9984 -0.1489  0.2349
   81SAPS   H8X 7581   4.194   7.268   9.467  1.0996  2.5295 -0.3007
   81SAPS   H8Y 7582   4.036   7.365   9.456  0.1622 -1.0427 -0.7052
   81SAPS   C39 7583   4.015   7.167   9.412  0.0324 -0.1114  0.6906
   81SAPS   H9X 7584   3.925   7.148   9.474 -1.5730  1.4043 -1.0475
   81SAPS   H9Y 7585   4.075   7.073   9.414 -0.1339 -0.2436 -0.0487
   81SAPS  C310 7586   3.980   7.214   9.274  0.4882  0.4223 -0.6008
   81SAPS  H10X 7587   4.072   7.241   9.218  1.1011 -1.2872 -0.4771
   81SAPS  H10Y 7588   3.915   7.303   9.282 -0.2985 -0.2947  2.3821
   81SAPS  C311 7589   3.892   7.116   9.199 -0.3132 -0.2719  0.4230
   81SAPS  H11X 7590   3.799   7.085   9.252 -0.1670 -1.6248 -0.0638
   81SAPS  H11Y 7591   3.949   7.021   9.195 -0.8706 -0.6857  1.6566
   81SAPS  C312 7592   3.867   7.149   9.059  0.4143 -0.2269  0.0933
   81SAPS  H12X 7593   3.967   7.131   9.014  0.0717  0.6040 -1.0470
   81SAPS  H12Y 7594   3.827   7.252   9.047 -0.5993 -0.6701 -0.4895
   81SAPS  C313 7595   3.787   7.038   8.988 -0.3431 -0.0882  0.2826
   81SAPS  H13X 7596   3.689   7.030   9.039  0.2858 -1.9409  1.2873
   81SAPS  H13Y 7597   3.848   6.945   8.995 -2.4100 -1.5430  0.0321
   81SAPS  C314 7598   3.782   7.079   8.838 -0.4451 -0.1342 -0.2939
   81SAPS  H14X 7599   3.883   7.106   8.801 -0.9219  2.0920 -0.1200
   81SAPS  H14Y 7600   3.719   7.170   8.825 -1.3022 -0.4762  1.2617
   81SAPS  C315 7601   3.721   6.967   8.753 -0.2996  0.3669 -0.0655
   81SAPS  H15X 7602   3.626   6.934   8.799 -0.7155 -0.1101 -1.2329
   81SAPS  H15Y 7603   3.796   6.886   8.752 -2.9904 -2.2903  0.4596
   81SAPS  C316 7604   3.710   7.010   8.610 -0.4427 -0.1843 -0.3300
   81SAPS  H16X 7605   3.793   7.082   8.590 -0.0163 -0.4218  0.5211
   81SAPS  H16Y 7606   3.612   7.044   8.571  0.2980  0.7513 -1.4546
   81SAPS  C317 7607   3.721   6.891   8.512 -0.9598 -0.2009 -1.0918
   81SAPS  H17X 7608   3.814   6.829   8.511 -0.6221  0.2980 -1.0260
   81SAPS  H17Y 7609   3.710   6.932   8.410 -2.6629  3.1739  0.3016
   81SAPS  C318 7610   3.594   6.800   8.535 -0.1003 -0.0738 -0.4631
   81SAPS  H18X 7611   3.579   6.754   8.635 -2.4068  1.5273  0.0076
   81SAPS  H18Y 7612   3.593   6.716   8.461  0.2312 -0.1547 -0.3763
   81SAPS  H18Z 7613   3.498   6.856   8.526 -0.0914  0.0710  0.3096
   82SAPS     N 7614   2.364   6.115  10.650  0.2903 -0.1578 -0.4927
   82SAPS   HN1 7615   2.270   6.110  10.608  0.1366  2.2183 -0.5361
   82SAPS   HN2 7616   2.434   6.071  10.586  0.8574 -1.3951  0.8984
   82SAPS   HN3 7617   2.348   6.060  10.737 -0.4075 -0.8289 -1.0315
   82SAPS   C12 7618   2.383   6.261  10.668 -0.8497 -0.2588  0.7743
   82SAPS  H12A 7619   2.403   6.308  10.573 -1.7969 -0.8621  0.2617
   82SAPS   C13 7620   2.269   6.329  10.740  0.4812  0.0261  0.0840
   82SAPS  O13A 7621   2.176   6.254  10.785 -0.4317 -0.4134  0.1711
   82SAPS  O13B 7622   2.274   6.454  10.768  0.5789  0.2330 -0.0218
   82SAPS   C11 7623   2.511   6.279  10.754  0.1038 -0.1342  1.1325
   82SAPS  H11A 7624   2.490   6.251  10.860  3.3663 -0.7979  1.7166
   82SAPS  H11B 7625   2.542   6.386  10.754 -4.0947  1.2654  0.5537
   82SAPS     P 7626   2.749   6.235  10.641  0.0191 -0.4014 -0.2295
   82SAPS   O13 7627   2.771   6.377  10.680  0.1660 -0.0661 -0.1737
   82SAPS   O14 7628   2.862   6.140  10.664 -0.1067  0.0086 -0.4721
   82SAPS   O12 7629   2.615   6.192  10.719  0.3049 -0.1214 -0.3293
   82SAPS   O11 7630   2.706   6.235  10.490 -0.2773 -0.0005 -0.0125
   82SAPS    C1 7631   2.799   6.174  10.399 -0.5120  0.5582  0.3191
   82SAPS    HA 7632   2.899   6.224  10.398  0.3352 -1.0546  1.2434
   82SAPS    HB 7633   2.819   6.066  10.414  2.4436  0.5066 -2.6854
   82SAPS    C2 7634   2.761   6.197  10.245  0.2022  0.9314 -0.2113
   82SAPS    HS 7635   2.761   6.306  10.222  0.7353  1.7194  2.9580
   82SAPS   O21 7636   2.633   6.132  10.219 -0.1028  0.0183  0.5938
   82SAPS   C21 7637   2.520   6.200  10.225  0.4444  0.1972 -0.8150
   82SAPS   O22 7638   2.506   6.316  10.267  0.0655 -0.6305 -0.3506
   82SAPS   C22 7639   2.412   6.127  10.158  0.4281  0.3342 -0.1902
   82SAPS   H2R 7640   2.360   6.059  10.228  0.6780  1.4861  1.1669
   82SAPS   H2S 7641   2.341   6.207  10.129 -0.8048 -0.4487  0.5837
   82SAPS    C3 7642   2.864   6.123  10.151  0.5870 -0.8555 -0.2939
   82SAPS    HX 7643   2.819   6.118  10.050  1.2299  2.3920 -0.8386
   82SAPS    HY 7644   2.874   6.015  10.179  0.6556 -0.4412  1.3888
   82SAPS   O31 7645   2.999   6.187  10.166  0.6924  0.6458  0.1038
   82SAPS   C31 7646   3.014   6.278  10.073 -0.0943 -0.6654 -0.0560
   82SAPS   O32 7647   2.946   6.295   9.972  0.4901  0.4770 -0.0849
   82SAPS   C32 7648   3.145   6.349  10.100 -0.1730  0.0771 -0.4725
   82SAPS   H2X 7649   3.222   6.269  10.100 -0.3624 -0.1089 -1.0660
   82SAPS   H2Y 7650   3.135   6.397  10.200  0.2019  1.1638 -0.9490
   82SAPS   C23 7651   2.452   6.038  10.034 -0.1004 -0.0501 -0.0886
   82SAPS   H3R 7652   2.487   5.943  10.078  0.4171  0.9506  1.7680
   82SAPS   H3S 7653   2.527   6.102   9.981  0.3961  0.9886  1.7672
   82SAPS   C24 7654   2.333   6.001   9.950  0.6451  0.9232  0.0373
   82SAPS   H4R 7655   2.267   5.935  10.011  0.6372 -1.0388 -1.9773
   82SAPS   H4S 7656   2.380   5.933   9.876  0.2745  0.1979  0.4538
   82SAPS   C25 7657   2.254   6.107   9.879  0.0988  0.4460  0.5569
   82SAPS   H5R 7658   2.192   6.165   9.949 -0.6372  0.7356 -0.3124
   82SAPS   C26 7659   2.261   6.159   9.753  0.2976  0.0684  0.4947
   82SAPS   H6R 7660   2.207   6.250   9.720  0.0617 -0.4123 -0.4693
   82SAPS   C27 7661   2.348   6.106   9.640  0.5093 -0.1841  0.7146
   82SAPS   H7R 7662   2.288   6.117   9.547 -0.2196 -0.4364  1.1445
   82SAPS   H7S 7663   2.367   5.998   9.658  2.1163  0.2849  2.0555
   82SAPS   C28 7664   2.476   6.186   9.662 -0.0034  0.0799  0.2622
   82SAPS   H8R 7665   2.512   6.195   9.765  0.6321 -1.0848  0.1655
   82SAPS   C29 7666   2.550   6.233   9.560 -0.7476 -0.0094 -0.6007
   82SAPS   H9R 7667   2.644   6.283   9.586 -0.8680 -0.9327  1.8871
   82SAPS  C210 7668   2.507   6.216   9.418 -0.3847  0.1492 -1.0541
   82SAPS  H10R 7669   2.421   6.285   9.403  0.2515  1.1968 -0.0971
   82SAPS  H10S 7670   2.480   6.110   9.402  1.5645 -0.4491 -0.7059
   82SAPS  C211 7671   2.615   6.251   9.318 -1.0534  1.0570 -0.4457
   82SAPS  H11R 7672   2.712   6.283   9.360 -0.0259 -0.1328 -1.8427
   82SAPS  C212 7673   2.609   6.231   9.185  0.1891  0.5255  0.2632
   82SAPS  H12R 7674   2.690   6.248   9.113 -0.2726 -2.4274 -1.0774
   82SAPS  C213 7675   2.489   6.180   9.110 -0.4692 -0.2345 -0.5074
   82SAPS  H13R 7676   2.458   6.258   9.037 -2.3561 -2.2938 -2.0448
   82SAPS  H13S 7677   2.397   6.170   9.172 -0.2962 -3.1604 -0.5710
   82SAPS  C214 7678   2.512   6.040   9.054 -0.5209  0.7396 -1.2165
   82SAPS  H14R 7679   2.574   5.981   9.123 -0.4427 -0.2306 -2.0832
   82SAPS  C215 7680   2.478   5.990   8.939  0.5957 -0.5181 -0.4627
   82SAPS  H15R 7681   2.493   5.882   8.922 -0.5356 -1.5306  3.6689
   82SAPS  C216 7682   2.394   6.072   8.850  0.4374 -0.2581  0.6121
   82SAPS  H16R 7683   2.319   6.137   8.900 -1.6885 -1.2547 -1.1034
   82SAPS  H16S 7684   2.325   6.005   8.794  0.0501 -0.3266  1.1638
   82SAPS  C217 7685   2.479   6.154   8.755 -0.8873 -0.1195 -0.1709
   82SAPS  H17R 7686   2.566   6.102   8.709 -1.1409  0.9201 -1.8786
   82SAPS  H17S 7687   2.516   6.241   8.813 -1.1521 -2.1012  3.2248
   82SAPS  C218 7688   2.387   6.213   8.654 -0.1482 -0.7187 -0.3082
   82SAPS  H18R 7689   2.302   6.266   8.701  0.2273 -0.1695 -0.2380
   82SAPS  H18S 7690   2.339   6.136   8.590  0.0574  0.2290 -1.6570
   82SAPS  C219 7691   2.460   6.302   8.552  0.1090 -0.6592 -0.7603
   82SAPS  H19R 7692   2.510   6.379   8.615  0.6292 -2.0216  0.5702
   82SAPS  H19S 7693   2.383   6.348   8.487  1.9267  0.6676 -2.0752
   82SAPS  C220 7694   2.555   6.240   8.449 -0.2125 -0.5102  0.0616
   82SAPS  H20R 7695   2.598   6.319   8.384 -2.0339  1.3535  0.9650
   82SAPS  H20S 7696   2.502   6.168   8.383  0.5080 -1.1625  0.1855
   82SAPS  H20T 7697   2.634   6.188   8.507 -0.1854  2.0744  2.5597
   82SAPS   C33 7698   3.188   6.463  10.000  0.1641 -0.3116  0.1081
   82SAPS   H3X 7699   3.249   6.537  10.056 -0.1858  0.4391 -0.4800
   82SAPS   H3Y 7700   3.099   6.516   9.959 -0.6115 -1.0729  0.7529
   82SAPS   C34 7701   3.276   6.419   9.887  0.4442 -0.1180  0.2575
   82SAPS   H4X 7702   3.218   6.335   9.842 -1.8053  0.0104  2.6594
   82SAPS   H4Y 7703   3.375   6.388   9.924  1.7410  3.2268 -0.0781
   82SAPS   C35 7704   3.299   6.520   9.773 -0.0236  0.1779 -0.1572
   82SAPS   H5X 7705   3.361   6.604   9.812 -0.9088  0.7213  0.0954
   82SAPS   H5Y 7706   3.199   6.565   9.757 -0.1344 -0.1458 -0.3785
   82SAPS   C36 7707   3.353   6.462   9.637 -0.0438  0.1027  0.7725
   82SAPS   H6X 7708   3.274   6.406   9.583  1.0388  2.1367 -3.3977
   82SAPS   H6Y 7709   3.426   6.384   9.669 -1.0358 -0.3919  1.8870
   82SAPS   C37 7710   3.427   6.565   9.544 -0.0337  0.0199  0.3273
   82SAPS   H7X 7711   3.521   6.595   9.595  0.7361 -0.8561 -0.5244
   82SAPS   H7Y 7712   3.357   6.649   9.525  1.2005  1.1493  0.6376
   82SAPS   C38 7713   3.467   6.517   9.403 -0.7989  0.3785 -0.0556
   82SAPS   H8X 7714   3.396   6.438   9.370  1.0661 -0.6841 -1.7318
   82SAPS   H8Y 7715   3.564   6.466   9.419 -0.9144  0.7897  2.2353
   82SAPS   C39 7716   3.501   6.628   9.299 -1.4447  0.2860 -0.0054
   82SAPS   H9X 7717   3.569   6.702   9.348  1.2148 -1.2444 -1.1513
   82SAPS   H9Y 7718   3.407   6.681   9.275 -1.6467  0.3252  0.8521
   82SAPS  C310 7719   3.574   6.571   9.170  0.7619 -0.2667 -0.5916
   82SAPS  H10X 7720   3.540   6.465   9.164 -0.7629  0.0158  1.8699
   82SAPS  H10Y 7721   3.682   6.581   9.193  0.5583  0.1095  0.2305
   82SAPS  C311 7722   3.543   6.657   9.044 -0.0056  0.1339 -0.3608
   82SAPS  H11X 7723   3.591   6.756   9.057  1.8755 -0.6778 -0.7126
   82SAPS  H11Y 7724   3.433   6.668   9.036 -0.1026  0.4670  1.1500
   82SAPS  C312 7725   3.608   6.589   8.920 -0.2732 -0.0531  0.0117
   82SAPS  H12X 7726   3.709   6.550   8.948 -0.3183  0.4113  0.8520
   82SAPS  H12Y 7727   3.626   6.667   8.843 -2.1491 -0.6053 -1.0322
   82SAPS  C313 7728   3.535   6.457   8.855 -0.5706 -0.1489  0.1745
   82SAPS  H13X 7729   3.425   6.466   8.841 -0.4098  0.0191 -1.0922
   82SAPS  H13Y 7730   3.540   6.379   8.934  0.5491  1.2322  1.5437
   82SAPS  C314 7731   3.598   6.402   8.720 -0.4533 -0.0101  0.5678
   82SAPS  H14X 7732   3.698   6.364   8.750 -0.6258  1.0347  2.7160
   82SAPS  H14Y 7733   3.621   6.483   8.647 -2.6046 -0.3326 -0.5551
   82SAPS  C315 7734   3.513   6.292   8.648 -0.4138 -0.0713  0.6237
   82SAPS  H15X 7735   3.484   6.208   8.714 -1.7592 -1.3250 -1.4318
   82SAPS  H15Y 7736   3.571   6.250   8.562 -0.0577  0.4238  0.6200
   82SAPS  C316 7737   3.380   6.353   8.597 -0.4119 -0.1106  0.1889
   82SAPS  H16X 7738   3.307   6.356   8.680 -0.4988 -1.3776  0.1707
   82SAPS  H16Y 7739   3.336   6.293   8.515  1.7139  0.3826 -1.4238
   82SAPS  C317 7740   3.376   6.496   8.536  0.1915  0.3588 -0.1069
   82SAPS  H17X 7741   3.455   6.515   8.461  2.8486 -1.3480  2.0804
   82SAPS  H17Y 7742   3.397   6.561   8.624  0.6890 -1.3263  1.0868
   82SAPS  C318 7743   3.233   6.534   8.483 -0.4798 -0.9323  0.4471
   82SAPS  H18X 7744   3.204   6.471   8.396  1.7688 -0.7908 -0.4951
   82SAPS  H18Y 7745   3.246   6.641   8.456  1.1803 -0.9707  0.9691
   82SAPS  H18Z 7746   3.153   6.527   8.559 -0.0233  0.5429  1.0846
   83SAPS     N 7747   5.618   0.891  10.849 -0.6366  0.5491 -0.1803
   83SAPS   HN1 7748   5.657   0.985  10.870 -0.8446  0.4941  0.4540
   83SAPS   HN2 7749   5.534   0.882  10.909 -0.8627  1.7735 -0.2913
   83SAPS   HN3 7750   5.683   0.813  10.871 -0.1039  1.7084  2.7223
   83SAPS   C12 7751   5.572   0.890  10.703  0.5572 -0.1644 -0.5137
   83SAPS  H12A 7752   5.649   0.900  10.627 -0.1086 -0.5668 -1.2584
   83SAPS   C13 7753   5.504   0.759  10.655  0.2225 -0.6731 -0.3692
   83SAPS  O13A 7754   5.489   0.655  10.725  0.2045  0.0119  0.7320
   83SAPS  O13B 7755   5.449   0.765  10.541 -0.2323  0.1586  0.3011
   83SAPS   C11 7756   5.479   1.013  10.676  0.0078 -0.5143 -0.2361
   83SAPS  H11A 7757   5.433   1.015  10.574 -0.8215  1.6300  0.1385
   83SAPS  H11B 7758   5.541   1.105  10.672  2.8008 -2.0967  2.4552
   83SAPS     P 7759   5.275   1.160  10.779  0.4768  0.0807  0.6757
   83SAPS   O13 7760   5.144   1.116  10.734  0.0681  0.0555  0.4655
   83SAPS   O14 7761   5.287   1.212  10.917  0.0020  0.6561  0.1833
   83SAPS   O12 7762   5.379   1.032  10.774  0.0009  0.4443 -0.0333
   83SAPS   O11 7763   5.345   1.264  10.682 -0.1954  0.7475  0.3461
   83SAPS    C1 7764   5.266   1.364  10.608 -0.3852  0.0409 -0.3693
   83SAPS    HA 7765   5.171   1.386  10.662  0.4501  1.4304  0.5699
   83SAPS    HB 7766   5.308   1.465  10.623  2.0576 -1.0838  0.7610
   83SAPS    C2 7767   5.255   1.324  10.458 -0.4400  0.6361  0.6760
   83SAPS    HS 7768   5.227   1.420  10.408  1.5488  0.5128 -0.8205
   83SAPS   O21 7769   5.160   1.216  10.435 -0.0133  0.2459 -0.4337
   83SAPS   C21 7770   5.028   1.258  10.425  1.0233 -0.1307  0.6401
   83SAPS   O22 7771   4.988   1.370  10.453  0.1852 -0.1628  0.3228
   83SAPS   C22 7772   4.943   1.147  10.359 -0.8576  0.7127 -0.4955
   83SAPS   H2R 7773   5.011   1.102  10.282  1.2146 -0.2818  1.7671
   83SAPS   H2S 7774   4.938   1.066  10.434 -0.1168 -1.0624 -2.2581
   83SAPS    C3 7775   5.381   1.279  10.388 -0.3466  0.0039  0.5002
   83SAPS    HX 7776   5.419   1.183  10.430 -0.0301 -0.9013 -1.6761
   83SAPS    HY 7777   5.460   1.357  10.391 -0.5125  0.2213 -0.3539
   83SAPS   O31 7778   5.363   1.263  10.248 -0.0312 -0.1424 -0.2767
   83SAPS   C31 7779   5.343   1.146  10.198  0.2191 -0.0761 -0.3072
   83SAPS   O32 7780   5.352   1.034  10.251 -0.2210  0.2771 -0.0975
   83SAPS   C32 7781   5.299   1.168  10.052 -0.3559 -0.2416  0.2494
   83SAPS   H2X 7782   5.370   1.235  10.000  0.0113 -0.9810 -0.2186
   83SAPS   H2Y 7783   5.201   1.219  10.065  0.1894  0.1749  3.6160
   83SAPS   C23 7784   4.802   1.180  10.299 -0.1673  0.1111  0.1838
   83SAPS   H3R 7785   4.741   1.228  10.378 -0.2657 -1.2193  0.9527
   83SAPS   H3S 7786   4.745   1.088  10.272 -1.4899  0.9255  0.1384
   83SAPS   C24 7787   4.804   1.268  10.177  0.1271  0.5595  0.4627
   83SAPS   H4R 7788   4.860   1.361  10.199 -0.6079  1.2295 -0.3998
   83SAPS   H4S 7789   4.701   1.302  10.152  0.1937  0.4262 -0.0147
   83SAPS   C25 7790   4.855   1.203  10.051 -0.3127  0.0548 -1.3551
   83SAPS   H5R 7791   4.965   1.209  10.041 -0.1401  2.1406  0.8296
   83SAPS   C26 7792   4.784   1.179   9.943 -0.3950 -0.1681  0.2559
   83SAPS   H6R 7793   4.854   1.143   9.867  2.6118  0.6416  2.4637
   83SAPS   C27 7794   4.644   1.201   9.917  0.6920 -0.0035  0.6382
   83SAPS   H7R 7795   4.594   1.256  10.000 -2.0938  0.5284 -1.2752
   83SAPS   H7S 7796   4.591   1.104   9.905  2.6173 -0.8143 -2.2016
   83SAPS   C28 7797   4.629   1.295   9.805  0.3476  0.1698  0.2982
   83SAPS   H8R 7798   4.650   1.400   9.830 -1.1522  0.7382 -0.6591
   83SAPS   C29 7799   4.586   1.273   9.681 -0.0550 -0.5047 -0.1741
   83SAPS   H9R 7800   4.585   1.361   9.615 -0.3760  0.4854  1.1152
   83SAPS  C210 7801   4.554   1.132   9.627  0.4667 -0.3839  0.4700
   83SAPS  H10R 7802   4.510   1.076   9.711 -1.4991  0.9738  0.4164
   83SAPS  H10S 7803   4.647   1.087   9.587 -0.1696 -0.8172 -0.5749
   83SAPS  C211 7804   4.445   1.113   9.524 -0.6607 -0.2239 -0.9848
   83SAPS  H11R 7805   4.347   1.079   9.558 -0.8120 -0.5790 -1.7507
   83SAPS  C212 7806   4.462   1.124   9.394 -0.8614 -0.4416 -0.2408
   83SAPS  H12R 7807   4.381   1.088   9.329 -1.3651  2.3363 -1.3063
   83SAPS  C213 7808   4.600   1.166   9.332  0.5874 -0.2789 -1.2142
   83SAPS  H13R 7809   4.678   1.087   9.335  1.4695  0.5425 -1.9976
   83SAPS  H13S 7810   4.644   1.250   9.390 -0.2964 -0.0037 -0.9276
   83SAPS  C214 7811   4.591   1.207   9.184 -0.0825 -0.4818 -0.7367
   83SAPS  H14R 7812   4.628   1.309   9.170  1.6159 -0.4784  2.7071
   83SAPS  C215 7813   4.554   1.124   9.087 -0.2399  0.1469 -0.4218
   83SAPS  H15R 7814   4.540   1.165   8.985 -0.9018  1.9129  0.3378
   83SAPS  C216 7815   4.514   0.980   9.107 -0.2185 -0.2148  0.0123
   83SAPS  H16R 7816   4.403   0.972   9.112 -0.3507  0.2450 -1.6172
   83SAPS  H16S 7817   4.547   0.941   9.205 -0.1562 -0.8933 -0.2717
   83SAPS  C217 7818   4.571   0.887   9.003  0.2112  0.5726 -0.1834
   83SAPS  H17R 7819   4.544   0.784   9.038 -1.7039  0.7288 -1.0376
   83SAPS  H17S 7820   4.681   0.894   8.994  0.0154  3.1318 -1.4445
   83SAPS  C218 7821   4.492   0.897   8.866 -0.7591 -0.0915 -0.7675
   83SAPS  H18R 7822   4.522   0.996   8.823  1.9373 -0.8118 -0.7336
   83SAPS  H18S 7823   4.386   0.883   8.897 -0.2799  0.5962  1.3927
   83SAPS  C219 7824   4.520   0.791   8.761 -0.5383  0.3315  0.1613
   83SAPS  H19R 7825   4.630   0.798   8.746 -0.2649 -1.8310  0.6957
   83SAPS  H19S 7826   4.466   0.818   8.668 -0.5197  2.2813  0.6839
   83SAPS  C220 7827   4.473   0.652   8.805 -0.5881 -0.0286 -0.5992
   83SAPS  H20R 7828   4.517   0.622   8.903 -0.3510 -0.5535 -0.8655
   83SAPS  H20S 7829   4.494   0.569   8.735 -0.8797 -0.4914 -0.1449
   83SAPS  H20T 7830   4.362   0.656   8.808 -0.6544 -1.3415 -0.8502
   83SAPS   C33 7831   5.298   1.028   9.990  0.3120 -0.3238  0.4517
   83SAPS   H3X 7832   5.246   0.950  10.049  0.1397  1.5947  3.0222
   83SAPS   H3Y 7833   5.400   0.987  10.006  1.7415  2.2096 -1.2797
   83SAPS   C34 7834   5.264   1.033   9.836  0.3891  0.0459 -0.5511
   83SAPS   H4X 7835   5.233   1.132   9.796 -2.3648 -0.3291  0.4756
   83SAPS   H4Y 7836   5.169   0.976   9.838 -0.0064  0.7007  1.2323
   83SAPS   C35 7837   5.375   0.971   9.755  0.5406  0.2948 -0.5987
   83SAPS   H5X 7838   5.310   0.917   9.684  0.9255 -1.9855  0.6831
   83SAPS   H5Y 7839   5.416   0.886   9.815 -3.6025 -0.8778  0.8998
   83SAPS   C36 7840   5.461   1.078   9.695 -1.5161 -0.5592  0.6257
   83SAPS   H6X 7841   5.498   1.143   9.777 -0.1032 -2.2880  1.4471
   83SAPS   H6Y 7842   5.407   1.147   9.626  1.1778  2.8294  1.6318
   83SAPS   C37 7843   5.589   1.019   9.616 -0.2443 -0.0586 -0.3066
   83SAPS   H7X 7844   5.547   0.934   9.557 -0.8726 -1.5932  2.1853
   83SAPS   H7Y 7845   5.655   0.975   9.694  1.7261  3.2956  0.1116
   83SAPS   C38 7846   5.662   1.118   9.530 -0.8061  0.2526 -0.4394
   83SAPS   H8X 7847   5.706   1.202   9.588  0.1305 -1.1720  0.9893
   83SAPS   H8Y 7848   5.594   1.171   9.459  0.8799  2.2600 -0.6360
   83SAPS   C39 7849   5.779   1.049   9.457 -0.5018  0.3922  1.1621
   83SAPS   H9X 7850   5.740   0.971   9.389  1.3078  0.8375 -0.4619
   83SAPS   H9Y 7851   5.849   1.003   9.529 -0.8050 -2.5391 -0.2913
   83SAPS  C310 7852   5.848   1.145   9.360 -0.0888 -0.4469  0.9388
   83SAPS  H10X 7853   5.910   1.215   9.421  2.6083 -2.3844  0.5823
   83SAPS  H10Y 7854   5.766   1.203   9.310  1.8194  1.7638  0.1656
   83SAPS  C311 7855   5.921   1.077   9.246 -1.0214 -0.7691 -0.2943
   83SAPS  H11X 7856   5.978   0.992   9.290 -0.4811  0.6603  1.9763
   83SAPS  H11Y 7857   5.997   1.145   9.201 -1.1626 -1.3007 -1.3647
   83SAPS  C312 7858   5.823   1.056   9.129  0.0302 -0.3884  0.8442
   83SAPS  H12X 7859   5.797   1.154   9.084  2.6696 -0.4118 -0.9953
   83SAPS  H12Y 7860   5.722   1.024   9.161 -0.4140  2.2712  2.3997
   83SAPS  C313 7861   5.883   0.961   9.027  0.4512  0.0585 -0.4914
   83SAPS  H13X 7862   5.883   0.865   9.084 -1.2419  1.0607  1.3392
   83SAPS  H13Y 7863   5.984   0.991   8.994  1.0440  0.5058  1.5720
   83SAPS  C314 7864   5.793   0.941   8.908 -0.5568  0.5341 -0.0844
   83SAPS  H14X 7865   5.774   1.038   8.858 -0.2147 -0.4207 -2.2124
   83SAPS  H14Y 7866   5.698   0.896   8.945 -0.4116  0.4623  0.1984
   83SAPS  C315 7867   5.869   0.854   8.807 -0.4395  0.0382 -0.7614
   83SAPS  H15X 7868   5.938   0.782   8.856  0.0905 -0.2842 -1.9360
   83SAPS  H15Y 7869   5.921   0.930   8.744 -1.0229 -0.9845 -2.5328
   83SAPS  C316 7870   5.774   0.782   8.720  0.0044  0.0544 -0.0895
   83SAPS  H16X 7871   5.713   0.714   8.784  1.5285  0.1832  1.5765
   83SAPS  H16Y 7872   5.837   0.720   8.653 -0.7451 -2.6296  1.5261
   83SAPS  C317 7873   5.680   0.866   8.629  0.1507  0.2315  0.8268
   83SAPS  H17X 7874   5.737   0.948   8.580  0.6406 -0.7942 -0.3748
   83SAPS  H17Y 7875   5.603   0.911   8.695 -0.6800  1.4171 -0.8451
   83SAPS  C318 7876   5.637   0.788   8.504  0.0878  0.5808 -0.0949
   83SAPS  H18X 7877   5.560   0.715   8.536 -0.0215  1.3659  1.5550
   83SAPS  H18Y 7878   5.719   0.733   8.452 -1.2544 -0.2869 -1.3655
   83SAPS  H18Z 7879   5.581   0.858   8.439 -1.6414  0.7584  1.5179
   84SAPS     N 7880   5.915   0.337  10.955  0.1303 -0.5279  0.3571
   84SAPS   HN1 7881   5.829   0.289  10.991 -1.3114  0.3287 -1.7536
   84SAPS   HN2 7882   5.878   0.398  10.880 -2.4383 -0.0103  1.8898
   84SAPS   HN3 7883   5.984   0.268  10.920 -1.4802 -1.8601 -0.3739
   84SAPS   C12 7884   5.976   0.420  11.062  0.6397  0.0197 -1.3235
   84SAPS  H12A 7885   5.946   0.522  11.043 -0.0316 -0.4370 -2.9211
   84SAPS   C13 7886   5.924   0.381  11.202  0.0214  0.2218  0.6122
   84SAPS  O13A 7887   5.837   0.291  11.219  0.1356  0.3291 -0.3356
   84SAPS  O13B 7888   5.963   0.455  11.290  0.6058 -0.4176 -0.0476
   84SAPS   C11 7889   6.127   0.413  11.049  0.6400  0.5279 -0.3864
   84SAPS  H11A 7890   6.162   0.310  11.071  1.9613  0.8411 -0.9234
   84SAPS  H11B 7891   6.186   0.472  11.123  0.6497  0.0903 -0.0360
   84SAPS     P 7892   6.198   0.580  10.854  0.2823  0.3504  0.1775
   84SAPS   O13 7893   6.092   0.679  10.861  0.0971  0.6322 -0.0485
   84SAPS   O14 7894   6.331   0.615  10.912 -0.2815 -0.5324  0.1653
   84SAPS   O12 7895   6.159   0.430  10.915 -0.1460 -0.6896  0.8997
   84SAPS   O11 7896   6.227   0.558  10.703  0.1851 -0.9652  0.4930
   84SAPS    C1 7897   6.129   0.504  10.615  1.2285  0.1730  0.5139
   84SAPS    HA 7898   6.077   0.416  10.658 -1.5469  0.6854 -1.5230
   84SAPS    HB 7899   6.051   0.582  10.602 -0.0284 -1.0004  0.7712
   84SAPS    C2 7900   6.196   0.462  10.476 -0.7229 -0.0081 -0.2205
   84SAPS    HS 7901   6.257   0.546  10.436  2.0876 -1.5307  0.6277
   84SAPS   O21 7902   6.101   0.426  10.376 -0.4797 -0.6641  1.0850
   84SAPS   C21 7903   6.027   0.529  10.335 -0.0114  0.2142 -0.2012
   84SAPS   O22 7904   6.045   0.644  10.364  0.1614 -0.8733  0.0788
   84SAPS   C22 7905   5.924   0.486  10.242  0.7844  0.2484  0.5033
   84SAPS   H2R 7906   5.854   0.570  10.220 -0.6668 -0.6598  1.4950
   84SAPS   H2S 7907   5.982   0.485  10.147  0.5855  3.3068  0.2415
   84SAPS    C3 7908   6.285   0.333  10.493  0.3052 -0.6091 -0.4390
   84SAPS    HX 7909   6.211   0.250  10.494  0.3969 -0.7594 -2.6758
   84SAPS    HY 7910   6.332   0.333  10.594 -0.6930 -0.6517  0.0408
   84SAPS   O31 7911   6.378   0.318  10.387 -0.0362  0.0150  0.2104
   84SAPS   C31 7912   6.446   0.211  10.391 -0.5619 -0.0996  0.4264
   84SAPS   O32 7913   6.437   0.117  10.468  0.3431 -0.5556  0.2264
   84SAPS   C32 7914   6.537   0.209  10.264  0.2654  0.3322 -0.5453
   84SAPS   H2X 7915   6.474   0.236  10.177  1.2636  1.5915 -0.9082
   84SAPS   H2Y 7916   6.578   0.107  10.248 -3.3545 -1.0178 -2.1612
   84SAPS   C23 7917   5.847   0.353  10.276 -0.0108  1.1400 -0.2470
   84SAPS   H3R 7918   5.769   0.376  10.352  0.1028 -4.3147  2.0273
   84SAPS   H3S 7919   5.932   0.289  10.310 -1.1111 -1.1453 -1.5299
   84SAPS   C24 7920   5.775   0.277  10.165  0.8547  0.1541  0.3200
   84SAPS   H4R 7921   5.735   0.183  10.207 -1.9171  0.5330 -1.2567
   84SAPS   H4S 7922   5.843   0.244  10.083 -0.6445 -0.2885 -0.7738
   84SAPS   C25 7923   5.671   0.366  10.109  0.0362  0.4154  0.3245
   84SAPS   H5R 7924   5.597   0.394  10.185  2.1032  1.9297  1.9046
   84SAPS   C26 7925   5.635   0.397   9.982 -0.5762  0.0429  0.3679
   84SAPS   H6R 7926   5.547   0.464   9.978 -1.1366 -0.6622  0.6566
   84SAPS   C27 7927   5.709   0.366   9.852 -1.1975  0.3619  1.1240
   84SAPS   H7R 7928   5.636   0.358   9.770 -1.2676  0.0322  1.2197
   84SAPS   H7S 7929   5.759   0.267   9.856  0.5326  1.1543  0.5236
   84SAPS   C28 7930   5.806   0.477   9.825 -0.2686 -0.2517 -1.0887
   84SAPS   H8R 7931   5.896   0.468   9.887 -0.8155 -0.7340 -0.3423
   84SAPS   C29 7932   5.800   0.569   9.724 -0.2552 -0.1803  0.2506
   84SAPS   H9R 7933   5.887   0.635   9.708 -1.5494  1.4030 -0.4958
   84SAPS  C210 7934   5.689   0.583   9.630 -0.0342  0.5305 -0.3071
   84SAPS  H10R 7935   5.591   0.593   9.682  1.1947  1.8425  1.8763
   84SAPS  H10S 7936   5.678   0.486   9.575  0.2973  1.7661 -2.6851
   84SAPS  C211 7937   5.705   0.682   9.515  0.4653 -0.1416 -0.1058
   84SAPS  H11R 7938   5.671   0.785   9.536  0.3037 -0.0251 -0.9014
   84SAPS  C212 7939   5.744   0.651   9.389  0.7706 -0.7811  0.4767
   84SAPS  H12R 7940   5.763   0.735   9.321 -1.1451 -0.2939  0.4775
   84SAPS  C213 7941   5.792   0.522   9.334 -0.4884 -0.3250 -0.5141
   84SAPS  H13R 7942   5.797   0.447   9.416  0.7344  0.4782  0.1873
   84SAPS  H13S 7943   5.897   0.530   9.297 -0.2335 -2.2738 -0.3172
   84SAPS  C214 7944   5.707   0.462   9.227 -0.1228 -0.9950  0.0371
   84SAPS  H14R 7945   5.607   0.439   9.265 -1.0221  1.2529 -0.7654
   84SAPS  C215 7946   5.734   0.436   9.098 -0.1650 -0.9197  0.3385
   84SAPS  H15R 7947   5.660   0.380   9.039 -1.4976 -1.1306  2.1422
   84SAPS  C216 7948   5.867   0.471   9.043 -0.1041  0.0471  0.2627
   84SAPS  H16R 7949   5.960   0.437   9.093 -1.2146 -2.7542  0.5862
   84SAPS  H16S 7950   5.879   0.581   9.033 -1.6495  0.0021 -4.4870
   84SAPS  C217 7951   5.890   0.425   8.894 -0.9135 -0.2303 -0.3145
   84SAPS  H17R 7952   5.974   0.486   8.852 -0.0383 -0.1236  1.4724
   84SAPS  H17S 7953   5.802   0.442   8.829 -0.3037 -0.9435 -1.3637
   84SAPS  C218 7954   5.924   0.272   8.887 -0.2328 -0.4083  0.3303
   84SAPS  H18R 7955   5.832   0.215   8.911 -0.8731  0.8861  1.0954
   84SAPS  H18S 7956   6.003   0.243   8.959  0.6349  0.7142 -0.1404
   84SAPS  C219 7957   5.981   0.249   8.750 -0.1794  0.7716  0.3407
   84SAPS  H19R 7958   6.060   0.172   8.757 -0.6217  0.4161  1.5264
   84SAPS  H19S 7959   6.026   0.338   8.701  1.0569  1.1599  2.1261
   84SAPS  C220 7960   5.871   0.199   8.660  0.0518  0.8812 -0.0134
   84SAPS  H20R 7961   5.786   0.270   8.654 -1.7608 -1.1038  0.6404
   84SAPS  H20S 7962   5.836   0.099   8.695 -0.3043  1.6533  1.9408
   84SAPS  H20T 7963   5.898   0.182   8.553 -1.2119  2.0932 -0.5520
   84SAPS   C33 7964   6.652   0.315  10.278  0.4505  0.2004  0.2780
   84SAPS   H3X 7965   6.707   0.305  10.373 -0.2988 -2.3396  0.5166
   84SAPS   H3Y 7966   6.616   0.420  10.276 -0.5842 -0.1353 -1.7325
   84SAPS   C34 7967   6.756   0.297  10.168 -0.2989  0.9655  0.2118
   84SAPS   H4X 7968   6.806   0.200  10.190 -1.2676  0.7977  1.8192
   84SAPS   H4Y 7969   6.840   0.370  10.166 -0.1548  0.8025 -2.4073
   84SAPS   C35 7970   6.706   0.301  10.022 -0.6742 -0.1275 -0.1818
   84SAPS   H5X 7971   6.628   0.225  10.001  0.1589 -1.4371  1.2790
   84SAPS   H5Y 7972   6.797   0.277   9.964  0.5960  0.8160  1.3194
   84SAPS   C36 7973   6.666   0.440   9.977 -0.0004  0.0540 -0.2162
   84SAPS   H6X 7974   6.754   0.505   9.956 -1.1630  1.4290 -0.9953
   84SAPS   H6Y 7975   6.612   0.496  10.056 -1.7305  0.4289 -1.6217
   84SAPS   C37 7976   6.586   0.451   9.850 -0.4230 -0.2449 -0.4251
   84SAPS   H7X 7977   6.548   0.550   9.816  1.8209  0.1625 -1.9511
   84SAPS   H7Y 7978   6.498   0.384   9.855 -0.1842 -0.4835  0.9865
   84SAPS   C38 7979   6.682   0.409   9.726  1.2061 -0.0566 -1.0123
   84SAPS   H8X 7980   6.718   0.307   9.751 -1.3626 -0.9096 -0.4275
   84SAPS   H8Y 7981   6.759   0.489   9.720 -0.0101  1.1111 -1.7768
   84SAPS   C39 7982   6.605   0.397   9.591 -0.1634  0.0972 -0.4943
   84SAPS   H9X 7983   6.567   0.501   9.579  2.2943  1.0274 -0.9097
   84SAPS   H9Y 7984   6.514   0.334   9.597 -0.4828  0.1560 -3.4680
   84SAPS  C310 7985   6.701   0.356   9.481  0.4090 -0.8723  0.0849
   84SAPS  H10X 7986   6.714   0.247   9.501 -2.0906 -0.8432  2.3729
   84SAPS  H10Y 7987   6.797   0.411   9.476  0.1538 -0.5038 -1.2264
   84SAPS  C311 7988   6.635   0.374   9.346  0.2097  0.5395  0.3185
   84SAPS  H11X 7989   6.661   0.477   9.311 -0.3466  0.5685 -0.0145
   84SAPS  H11Y 7990   6.526   0.353   9.352  0.0049  1.8005  1.7166
   84SAPS  C312 7991   6.701   0.272   9.244  0.7540 -0.6231 -0.1400
   84SAPS  H12X 7992   6.640   0.290   9.152 -1.3123 -3.8795  0.4423
   84SAPS  H12Y 7993   6.677   0.168   9.275  0.8222 -0.4701  0.4449
   84SAPS  C313 7994   6.848   0.281   9.203 -0.6213  0.1885  0.2161
   84SAPS  H13X 7995   6.917   0.257   9.286 -0.1648  0.6148 -0.0333
   84SAPS  H13Y 7996   6.869   0.381   9.158 -0.3607 -1.1637 -2.9109
   84SAPS  C314 7997   6.876   0.171   9.103  0.1144 -0.2043  0.6269
   84SAPS  H14X 7998   6.793   0.155   9.031  0.4718 -2.3054  0.6332
   84SAPS  H14Y 7999   6.896   0.078   9.160 -1.8882  1.6251  4.7599
   84SAPS  C315 8000   7.012   0.198   9.026  0.3732 -0.9633  0.1796
   84SAPS  H15X 8001   7.099   0.183   9.093  1.0340  0.8091 -0.2206
   84SAPS  H15Y 8002   7.013   0.304   8.991  0.2594 -0.8270  0.5864
   84SAPS  C316 8003   7.024   0.094   8.906 -0.2782  0.5047  0.1802
   84SAPS  H16X 8004   7.010  -0.005   8.954 -2.2610  1.1768  1.0702
   84SAPS  H16Y 8005   7.132   0.099   8.879  0.2724  2.4390  2.3803
   84SAPS  C317 8006   6.934   0.115   8.786  0.1758  0.1219  0.3946
   84SAPS  H17X 8007   6.827   0.111   8.814  0.3862 -0.9576  1.1064
   84SAPS  H17Y 8008   6.955   0.031   8.716 -2.7704 -2.1553  2.0075
   84SAPS  C318 8009   6.955   0.247   8.708  0.1162  0.1172  0.1184
   84SAPS  H18X 8010   6.875   0.269   8.635 -0.1212  1.7630  0.8122
   84SAPS  H18Y 8011   7.055   0.237   8.663  0.2889  2.2810 -0.0995
   84SAPS  H18Z 8012   6.975   0.338   8.769  0.4830 -0.5387  0.9985
   85SAPS     N 8013   3.604   3.901  10.853  0.0845 -0.4698 -0.1450
   85SAPS   HN1 8014   3.620   3.910  10.955  0.1400  4.1690 -0.3406
   85SAPS   HN2 8015   3.687   3.947  10.811  0.1463 -2.2656 -2.1260
   85SAPS   HN3 8016   3.516   3.956  10.838  1.1310  0.9624 -1.3547
   85SAPS   C12 8017   3.591   3.763  10.793  0.5928 -0.2342 -1.3277
   85SAPS  H12A 8018   3.556   3.767  10.691  0.4186 -0.3201 -1.2718
   85SAPS   C13 8019   3.724   3.682  10.786 -0.2207 -0.5327 -0.1230
   85SAPS  O13A 8020   3.836   3.734  10.827  0.9236  0.4815 -0.2653
   85SAPS  O13B 8021   3.724   3.582  10.720  0.9473  0.4719  0.3757
   85SAPS   C11 8022   3.469   3.686  10.859 -0.1803  0.2283 -0.2668
   85SAPS  H11A 8023   3.482   3.664  10.967  0.1864  1.0077 -0.1478
   85SAPS  H11B 8024   3.468   3.591  10.800  0.8183 -0.1144  0.2309
   85SAPS     P 8025   3.213   3.710  10.909  0.1341 -0.2574  0.0149
   85SAPS   O13 8026   3.208   3.768  11.045 -0.5004  0.2322 -0.0169
   85SAPS   O14 8027   3.112   3.745  10.810  0.3093 -0.4188 -0.1618
   85SAPS   O12 8028   3.347   3.753  10.840 -0.0805  0.1439 -0.6336
   85SAPS   O11 8029   3.222   3.554  10.915  0.3076 -0.2397  0.0330
   85SAPS    C1 8030   3.121   3.465  10.847 -0.1958 -0.0182 -0.5865
   85SAPS    HA 8031   3.107   3.375  10.910  0.7066 -0.3164 -0.7995
   85SAPS    HB 8032   3.019   3.509  10.842 -0.6413 -1.0094 -0.5638
   85SAPS    C2 8033   3.154   3.424  10.697 -0.5552 -0.7445 -0.3354
   85SAPS    HS 8034   3.223   3.338  10.706 -1.1325 -1.1959 -0.1757
   85SAPS   O21 8035   3.220   3.531  10.636 -0.2391  0.3994 -0.3656
   85SAPS   C21 8036   3.295   3.499  10.529 -0.9775 -0.1209 -0.3421
   85SAPS   O22 8037   3.344   3.390  10.508  0.1716  0.6505  0.0963
   85SAPS   C22 8038   3.314   3.617  10.443 -0.5264  0.6084  0.3860
   85SAPS   H2R 8039   3.292   3.716  10.488 -0.4250  1.0234 -0.4549
   85SAPS   H2S 8040   3.421   3.616  10.412 -0.1187  0.1887  1.7189
   85SAPS    C3 8041   3.030   3.388  10.614 -0.1177 -0.7337  0.5993
   85SAPS    HX 8042   2.975   3.481  10.590  2.3234  0.7680  0.4796
   85SAPS    HY 8043   2.962   3.321  10.671 -2.1297  1.8326  1.4094
   85SAPS   O31 8044   3.064   3.334  10.486  0.4338 -0.6463  0.0725
   85SAPS   C31 8045   3.072   3.199  10.474 -0.4048 -0.5361  0.3931
   85SAPS   O32 8046   3.057   3.122  10.564 -0.6316 -0.3627 -0.3024
   85SAPS   C32 8047   3.109   3.160  10.325 -0.5309 -0.0302  0.1042
   85SAPS   H2X 8048   3.199   3.218  10.294 -0.9423  0.7608  0.3663
   85SAPS   H2Y 8049   3.024   3.190  10.260 -0.4923 -0.3222 -0.0807
   85SAPS   C23 8050   3.231   3.616  10.313  0.9077  0.1517 -0.2983
   85SAPS   H3R 8051   3.127   3.632  10.349  0.4610  1.5587 -2.0652
   85SAPS   H3S 8052   3.247   3.515  10.268  1.7216  0.1421  0.0076
   85SAPS   C24 8053   3.251   3.728  10.218  0.0253 -0.2386  0.5516
   85SAPS   H4R 8054   3.217   3.826  10.259 -1.1937  0.1791 -1.3446
   85SAPS   H4S 8055   3.183   3.708  10.133  0.8387  1.6282 -0.5935
   85SAPS   C25 8056   3.395   3.742  10.194 -1.3085  0.5645 -0.2533
   85SAPS   H5R 8057   3.452   3.794  10.272 -0.2488 -0.0293 -0.6167
   85SAPS   C26 8058   3.462   3.699  10.082 -0.7627 -0.6103  0.1127
   85SAPS   H6R 8059   3.572   3.700  10.081 -0.7310 -0.5500  1.7067
   85SAPS   C27 8060   3.396   3.641   9.954 -0.4234 -0.2474 -0.1616
   85SAPS   H7R 8061   3.437   3.689   9.863 -2.6803 -0.2435 -1.2641
   85SAPS   H7S 8062   3.286   3.659   9.945 -0.7986 -1.9991  0.5212
   85SAPS   C28 8063   3.402   3.491   9.950  0.0857  0.7785 -0.2328
   85SAPS   H8R 8064   3.362   3.450  10.043  0.9369  1.9660  0.6962
   85SAPS   C29 8065   3.427   3.413   9.845 -0.6904 -0.1894 -0.2348
   85SAPS   H9R 8066   3.428   3.303   9.856  1.6189 -0.3449 -1.3462
   85SAPS  C210 8067   3.483   3.464   9.713 -0.2228 -0.2160  0.7514
   85SAPS  H10R 8068   3.553   3.390   9.668 -0.2754 -0.0581  0.4040
   85SAPS  H10S 8069   3.547   3.554   9.722 -0.0174  0.5007 -4.4402
   85SAPS  C211 8070   3.382   3.511   9.614  0.5128 -0.9923 -0.2790
   85SAPS  H11R 8071   3.289   3.544   9.664  0.5649 -0.7224 -0.3594
   85SAPS  C212 8072   3.398   3.532   9.481  0.2798 -0.1692  0.1576
   85SAPS  H12R 8073   3.310   3.572   9.429  0.5745  1.4523  0.8256
   85SAPS  C213 8074   3.526   3.501   9.393  0.2034 -0.0517  0.3476
   85SAPS  H13R 8075   3.510   3.395   9.364 -1.4912  0.0002  0.9617
   85SAPS  H13S 8076   3.619   3.506   9.453 -0.2781  0.5542  1.0746
   85SAPS  C214 8077   3.539   3.591   9.274  0.1874 -0.1147  0.0776
   85SAPS  H14R 8078   3.490   3.686   9.303 -1.5510 -1.3004  1.1733
   85SAPS  C215 8079   3.587   3.577   9.147  0.2370  0.3321  0.6745
   85SAPS  H15R 8080   3.593   3.662   9.077  1.6110 -1.7075 -1.8378
   85SAPS  C216 8081   3.645   3.446   9.100  0.6849 -0.3031  0.0776
   85SAPS  H16R 8082   3.636   3.371   9.181 -2.4750 -3.2006 -2.6320
   85SAPS  H16S 8083   3.750   3.450   9.063  1.6602 -1.4946  2.4815
   85SAPS  C217 8084   3.567   3.385   8.980  0.2004  0.1097 -0.1381
   85SAPS  H17R 8085   3.468   3.352   9.017 -0.2730  1.2405 -0.3678
   85SAPS  H17S 8086   3.608   3.283   8.963  0.3607  0.2126 -0.3722
   85SAPS  C218 8087   3.533   3.460   8.855  0.5125  0.1671  0.1552
   85SAPS  H18R 8088   3.519   3.569   8.871 -3.0929 -0.1596 -0.1447
   85SAPS  H18S 8089   3.431   3.433   8.820  2.2787 -1.8159 -4.3331
   85SAPS  C219 8090   3.617   3.422   8.726  0.2288  0.2127  0.5545
   85SAPS  H19R 8091   3.570   3.474   8.640 -0.3675  0.3545  0.9511
   85SAPS  H19S 8092   3.597   3.315   8.707  1.5763  0.0790 -0.1900
   85SAPS  C220 8093   3.763   3.456   8.725 -0.3173  0.0807 -0.1281
   85SAPS  H20R 8094   3.807   3.399   8.809  1.5381  2.3118  0.5285
   85SAPS  H20S 8095   3.798   3.561   8.729  0.1314 -0.0605 -0.2368
   85SAPS  H20T 8096   3.807   3.422   8.628  2.4094  2.1334  0.2815
   85SAPS   C33 8097   3.141   3.012  10.321  0.2487 -0.2445 -0.2648
   85SAPS   H3X 8098   3.050   2.952  10.344  1.5420 -1.9874  0.5253
   85SAPS   H3Y 8099   3.198   2.974  10.408 -0.5084 -0.5355  0.1150
   85SAPS   C34 8100   3.212   2.977  10.186  0.7531  0.4610 -0.3410
   85SAPS   H4X 8101   3.137   3.017  10.114 -1.4877  1.4018  2.3383
   85SAPS   H4Y 8102   3.214   2.866  10.179  3.4207  0.2793  1.7808
   85SAPS   C35 8103   3.352   3.032  10.172  0.5494 -0.0497 -0.1016
   85SAPS   H5X 8104   3.425   3.013  10.253 -1.1858 -1.4568  1.1933
   85SAPS   H5Y 8105   3.341   3.140  10.145  1.5988  0.0462 -0.1968
   85SAPS   C36 8106   3.408   2.977  10.036 -0.1818 -0.0599 -1.3470
   85SAPS   H6X 8107   3.334   2.991   9.954  1.9715  1.1711 -3.1812
   85SAPS   H6Y 8108   3.426   2.867  10.045 -1.6433 -0.1543  1.5757
   85SAPS   C37 8109   3.531   3.056   9.990 -0.4795 -0.5076  0.5628
   85SAPS   H7X 8110   3.604   3.048  10.073  1.4446  1.8747 -0.7830
   85SAPS   H7Y 8111   3.500   3.162   9.977 -0.4603 -0.7174 -1.6061
   85SAPS   C38 8112   3.587   2.986   9.863  0.2180  0.4327  0.1958
   85SAPS   H8X 8113   3.553   2.880   9.864 -1.0280  0.8197  0.6030
   85SAPS   H8Y 8114   3.697   2.997   9.879  0.1934 -0.1891  0.8923
   85SAPS   C39 8115   3.544   3.061   9.735 -0.0769 -0.6455 -0.2899
   85SAPS   H9X 8116   3.554   3.169   9.757 -2.1934 -0.5411  0.3849
   85SAPS   H9Y 8117   3.435   3.046   9.719 -0.9054  0.9940  2.8927
   85SAPS  C310 8118   3.617   3.030   9.610  0.7148  0.2805 -0.0808
   85SAPS  H10X 8119   3.596   2.930   9.567 -0.6795  0.9038 -0.9351
   85SAPS  H10Y 8120   3.725   3.048   9.629  1.4179  0.0328 -3.2895
   85SAPS  C311 8121   3.580   3.125   9.495  0.3715 -0.1449 -0.2689
   85SAPS  H11X 8122   3.597   3.220   9.549  1.1029 -0.0261 -0.6982
   85SAPS  H11Y 8123   3.471   3.121   9.474  0.2199  1.6944  0.0380
   85SAPS  C312 8124   3.654   3.107   9.368  0.2993 -0.4027  0.8936
   85SAPS  H12X 8125   3.761   3.087   9.393  0.4393 -2.4756 -1.0334
   85SAPS  H12Y 8126   3.651   3.204   9.315  0.8566  0.4998  2.4556
   85SAPS  C313 8127   3.595   2.997   9.281 -0.2678 -0.1478  0.0319
   85SAPS  H13X 8128   3.487   3.011   9.261 -0.7280 -1.8631  1.0766
   85SAPS  H13Y 8129   3.611   2.894   9.322 -2.1741 -0.6610 -0.4155
   85SAPS  C314 8130   3.659   2.988   9.142 -0.3560  0.0010  0.7588
   85SAPS  H14X 8131   3.766   2.965   9.159  0.2024  1.1873 -0.9026
   85SAPS  H14Y 8132   3.649   3.088   9.095  0.4538  0.9783  2.5405
   85SAPS  C315 8133   3.609   2.872   9.048  0.5112  0.2085  0.0027
   85SAPS  H15X 8134   3.498   2.882   9.047  0.2708 -1.9970  0.5705
   85SAPS  H15Y 8135   3.624   2.780   9.108 -1.0777  0.4655  0.8506
   85SAPS  C316 8136   3.670   2.857   8.905  0.2030 -0.1956  0.9497
   85SAPS  H16X 8137   3.626   2.768   8.854  1.6373 -0.6455  0.4443
   85SAPS  H16Y 8138   3.775   2.820   8.916 -0.1826 -1.3065  1.0267
   85SAPS  C317 8139   3.660   2.982   8.818  0.5207  0.3797  0.3853
   85SAPS  H17X 8140   3.710   3.068   8.869  0.4540  1.0335 -0.6181
   85SAPS  H17Y 8141   3.554   3.014   8.810 -0.5572 -3.0252 -0.5941
   85SAPS  C318 8142   3.714   2.949   8.677 -0.4598 -0.0441  0.1495
   85SAPS  H18X 8143   3.806   2.888   8.688 -0.3464  0.0580 -0.2268
   85SAPS  H18Y 8144   3.729   3.043   8.620 -1.9557 -0.0970 -0.3989
   85SAPS  H18Z 8145   3.642   2.887   8.620 -0.3073 -0.4363  0.3740
   86SAPS     N 8146   5.210   2.594  11.027 -0.2115 -0.5844  0.1894
   86SAPS   HN1 8147   5.246   2.655  11.104 -1.2163  1.6890 -1.0482
   86SAPS   HN2 8148   5.274   2.609  10.947 -0.1796 -0.5202  0.2266
   86SAPS   HN3 8149   5.114   2.625  11.001  0.6915  0.3915 -2.2278
   86SAPS   C12 8150   5.216   2.450  11.060 -0.3435 -0.1941  0.0126
   86SAPS  H12A 8151   5.319   2.435  11.090 -0.3200 -2.8272 -1.1116
   86SAPS   C13 8152   5.129   2.401  11.182  0.4583  0.2956  0.4234
   86SAPS  O13A 8153   5.057   2.494  11.235  0.0192 -0.0515 -0.2065
   86SAPS  O13B 8154   5.160   2.301  11.253  0.1831 -0.4699  0.2924
   86SAPS   C11 8155   5.186   2.364  10.936  0.9873  0.4074 -0.4736
   86SAPS  H11A 8156   5.083   2.379  10.897 -0.0204 -0.2915  1.7638
   86SAPS  H11B 8157   5.182   2.257  10.965  0.9067  0.0862 -1.6126
   86SAPS     P 8158   5.272   2.451  10.707 -0.2117 -0.0787 -0.1862
   86SAPS   O13 8159   5.224   2.583  10.750 -0.3152 -0.2219  0.4963
   86SAPS   O14 8160   5.401   2.431  10.638 -0.0143  0.4592  0.6878
   86SAPS   O12 8161   5.293   2.378  10.848  0.8521 -0.2676 -0.0894
   86SAPS   O11 8162   5.150   2.370  10.632 -0.5070  0.0358 -0.4558
   86SAPS    C1 8163   5.185   2.264  10.548  0.0240  0.1027 -0.1467
   86SAPS    HA 8164   5.247   2.296  10.462 -1.6389  1.2425 -0.9696
   86SAPS    HB 8165   5.232   2.189  10.615 -1.1250 -0.2326  0.3159
   86SAPS    C2 8166   5.056   2.182  10.511 -0.7910  0.3712  0.6942
   86SAPS    HS 8167   5.019   2.162  10.614 -0.3737  0.8380  0.9411
   86SAPS   O21 8168   5.092   2.063  10.439  0.0886 -0.0044  0.4198
   86SAPS   C21 8169   4.998   1.969  10.443 -0.8228  0.1357 -0.6692
   86SAPS   O22 8170   4.897   1.979  10.504 -0.0702  0.3692 -0.7662
   86SAPS   C22 8171   5.035   1.860  10.339  0.1811  0.5369  0.1585
   86SAPS   H2R 8172   5.070   1.921  10.253 -1.4599  1.7290  0.2881
   86SAPS   H2S 8173   5.116   1.802  10.389 -0.6049 -1.4903 -0.8027
   86SAPS    C3 8174   4.952   2.262  10.442  0.2183 -0.4902 -0.1416
   86SAPS    HX 8175   4.949   2.357  10.500  3.9930  0.3990 -1.1068
   86SAPS    HY 8176   4.854   2.209  10.438  0.3514 -0.7205 -0.4431
   86SAPS   O31 8177   4.993   2.304  10.309 -0.0168 -0.0205  0.2713
   86SAPS   C31 8178   4.936   2.233  10.205 -0.3786  0.1707 -0.0458
   86SAPS   O32 8179   4.855   2.144  10.213  0.3963 -0.6480 -0.1972
   86SAPS   C32 8180   4.997   2.284  10.066  0.1172 -0.0822 -0.9125
   86SAPS   H2X 8181   5.095   2.231  10.061 -0.0883 -0.4955 -0.6593
   86SAPS   H2Y 8182   5.009   2.394  10.068  0.6722 -0.1470 -0.2275
   86SAPS   C23 8183   4.915   1.777  10.312  0.3334  0.2683  0.6448
   86SAPS   H3R 8184   4.830   1.849  10.306  0.9846  1.5209  4.1295
   86SAPS   H3S 8185   4.892   1.703  10.392 -1.3732 -1.8622 -1.6327
   86SAPS   C24 8186   4.918   1.692  10.187 -0.7149  0.8357 -0.3906
   86SAPS   H4R 8187   4.919   1.762  10.101  0.2300 -0.0370 -1.1091
   86SAPS   H4S 8188   4.824   1.633  10.199 -0.5385  1.0102  2.3850
   86SAPS   C25 8189   5.046   1.607  10.194 -0.2117  0.8907 -0.0807
   86SAPS   H5R 8190   5.092   1.608  10.294  1.2594  2.2680 -0.7219
   86SAPS   C26 8191   5.110   1.541  10.095  0.6006 -0.7625  0.2047
   86SAPS   H6R 8192   5.199   1.481  10.117  0.5735 -0.7521  0.3436
   86SAPS   C27 8193   5.064   1.529   9.950  0.1248 -0.1233 -1.4856
   86SAPS   H7R 8194   4.975   1.463   9.947 -0.2570  0.4164 -2.6401
   86SAPS   H7S 8195   5.138   1.475   9.886  0.2537  1.5298 -2.7799
   86SAPS   C28 8196   5.029   1.653   9.874  0.1259  0.5399 -0.0932
   86SAPS   H8R 8197   5.018   1.745   9.934  2.2110  0.4353  0.5160
   86SAPS   C29 8198   5.013   1.646   9.738  0.4183 -0.0380 -0.1511
   86SAPS   H9R 8199   4.992   1.739   9.684  1.3844  0.2589 -0.0421
   86SAPS  C210 8200   5.038   1.522   9.650  0.2809  0.0696 -0.5012
   86SAPS  H10R 8201   5.116   1.460   9.700  1.5217  1.2338 -0.9431
   86SAPS  H10S 8202   5.069   1.553   9.548 -1.9372  0.5975 -1.0606
   86SAPS  C211 8203   4.915   1.437   9.641  0.9626 -0.0319 -0.4989
   86SAPS  H11R 8204   4.874   1.403   9.737 -0.2265 -1.2826 -1.4009
   86SAPS  C212 8205   4.872   1.384   9.526  0.0172 -0.7234 -0.2022
   86SAPS  H12R 8206   4.782   1.321   9.536 -0.4177 -0.3662 -1.6299
   86SAPS  C213 8207   4.915   1.405   9.384 -0.1665 -0.0317  0.4701
   86SAPS  H13R 8208   4.912   1.309   9.328 -0.4540  1.2297 -1.8336
   86SAPS  H13S 8209   5.017   1.448   9.387 -1.1246  2.8605 -2.3073
   86SAPS  C214 8210   4.821   1.508   9.316  0.3680 -0.3667 -0.1808
   86SAPS  H14R 8211   4.744   1.552   9.380 -0.1144 -1.0233 -0.3027
   86SAPS  C215 8212   4.823   1.536   9.183  0.1871 -0.1268 -0.0326
   86SAPS  H15R 8213   4.755   1.606   9.132  1.1697 -0.8743 -2.5741
   86SAPS  C216 8214   4.913   1.473   9.082  0.3512  0.1879  0.0452
   86SAPS  H16R 8215   4.962   1.381   9.120  2.1306 -0.0042 -2.4534
   86SAPS  H16S 8216   4.988   1.547   9.049 -0.7759  0.5646 -1.8336
   86SAPS  C217 8217   4.841   1.428   8.953  0.2652 -0.0305  0.9764
   86SAPS  H17R 8218   4.829   1.511   8.879  2.6711 -0.0687  0.4723
   86SAPS  H17S 8219   4.741   1.383   8.973  0.1054 -0.1375 -0.0147
   86SAPS  C218 8220   4.920   1.323   8.868 -0.2796 -0.3632 -0.1548
   86SAPS  H18R 8221   4.852   1.287   8.788 -0.2477  0.7325 -0.6943
   86SAPS  H18S 8222   4.942   1.239   8.937 -0.5446  1.3684  2.1856
   86SAPS  C219 8223   5.056   1.378   8.819 -0.0132 -0.0740 -0.0105
   86SAPS  H19R 8224   5.125   1.291   8.829 -0.5863 -0.8673 -2.4769
   86SAPS  H19S 8225   5.089   1.457   8.890 -0.8826  0.2765  0.0138
   86SAPS  C220 8226   5.076   1.417   8.677 -0.0838  0.2872 -0.7844
   86SAPS  H20R 8227   5.175   1.463   8.656  0.5299 -1.0081 -0.8380
   86SAPS  H20S 8228   4.999   1.495   8.659 -0.1875  0.8699  1.7551
   86SAPS  H20T 8229   5.078   1.335   8.602 -1.0114  0.0792 -0.5901
   86SAPS   C33 8230   4.913   2.237   9.946 -0.4100  0.0543 -0.2884
   86SAPS   H3X 8231   4.809   2.275   9.943  0.6769  3.2647 -1.0274
   86SAPS   H3Y 8232   4.901   2.127   9.943 -1.4049  0.1746 -0.9661
   86SAPS   C34 8233   4.977   2.279   9.816 -0.3439 -0.2230 -0.0984
   86SAPS   H4X 8234   5.078   2.233   9.816  1.2114  2.8094  1.6054
   86SAPS   H4Y 8235   4.994   2.389   9.814 -0.5334 -0.2081 -0.9547
   86SAPS   C35 8236   4.900   2.241   9.685 -0.0907  0.0611 -0.2314
   86SAPS   H5X 8237   4.800   2.289   9.694 -0.2674 -0.4613  0.6305
   86SAPS   H5Y 8238   4.885   2.132   9.675 -1.6838  0.3383 -1.2914
   86SAPS   C36 8239   4.965   2.298   9.562 -0.2974 -0.5305 -0.1841
   86SAPS   H6X 8240   5.069   2.261   9.550  0.3602  1.5217 -1.2766
   86SAPS   H6Y 8241   4.983   2.407   9.575  2.1522 -1.1436  2.9713
   86SAPS   C37 8242   4.884   2.286   9.429 -0.4889 -0.1313  0.0858
   86SAPS   H7X 8243   4.943   2.340   9.352  1.2935 -2.0071  0.0648
   86SAPS   H7Y 8244   4.784   2.335   9.427 -1.8746 -2.8223 -1.7962
   86SAPS   C38 8245   4.877   2.144   9.380 -0.2636  0.8799 -0.5142
   86SAPS   H8X 8246   4.838   2.075   9.459  1.9842 -0.9960 -0.9365
   86SAPS   H8Y 8247   4.980   2.105   9.373 -0.3935  0.4029  0.0893
   86SAPS   C39 8248   4.805   2.125   9.248 -0.0709 -0.3924 -0.4542
   86SAPS   H9X 8249   4.699   2.155   9.264  0.4054  0.9646  0.3905
   86SAPS   H9Y 8250   4.808   2.018   9.220 -1.0116 -0.8802  1.2068
   86SAPS  C310 8251   4.865   2.204   9.130  0.2972  0.3465 -0.1269
   86SAPS  H10X 8252   4.973   2.179   9.130  0.4169  0.7979  0.8296
   86SAPS  H10Y 8253   4.854   2.314   9.140 -0.1261  0.6372 -2.9339
   86SAPS  C311 8254   4.797   2.161   8.996  0.0844 -0.5738 -0.1525
   86SAPS  H11X 8255   4.691   2.154   9.027 -0.0799  2.6712  0.2987
   86SAPS  H11Y 8256   4.838   2.058   8.985 -0.6899 -0.8832 -0.1659
   86SAPS  C312 8257   4.831   2.234   8.866 -0.3651  0.8104  0.4803
   86SAPS  H12X 8258   4.941   2.246   8.860 -0.1649 -1.3541 -0.9706
   86SAPS  H12Y 8259   4.786   2.335   8.878 -2.3509 -0.2127  2.3555
   86SAPS  C313 8260   4.764   2.165   8.743 -0.5257  0.0525 -0.1735
   86SAPS  H13X 8261   4.654   2.172   8.747 -0.4506  1.0124  0.9097
   86SAPS  H13Y 8262   4.796   2.059   8.740 -3.7547 -1.0090  0.0298
   86SAPS  C314 8263   4.808   2.229   8.614 -0.3475  0.1945  0.5565
   86SAPS  H14X 8264   4.917   2.239   8.598 -0.4989 -0.3172 -0.9390
   86SAPS  H14Y 8265   4.768   2.333   8.612 -0.1186  0.3103 -2.4272
   86SAPS  C315 8266   4.747   2.156   8.499  0.1766  0.2900  0.1453
   86SAPS  H15X 8267   4.769   2.047   8.507 -0.8586  0.1790  2.1248
   86SAPS  H15Y 8268   4.805   2.184   8.408  1.0190 -0.3420  0.4711
   86SAPS  C316 8269   4.595   2.169   8.486 -0.2544 -0.0045  0.7693
   86SAPS  H16X 8270   4.570   2.276   8.469 -2.6766 -0.1143  3.0329
   86SAPS  H16Y 8271   4.537   2.134   8.574 -2.0981 -1.3263 -0.8910
   86SAPS  C317 8272   4.563   2.070   8.364  0.0953  0.3775  0.5262
   86SAPS  H17X 8273   4.652   2.052   8.301  1.4440 -0.3014  2.5480
   86SAPS  H17Y 8274   4.490   2.119   8.296 -0.6115 -1.1692  0.1199
   86SAPS  C318 8275   4.506   1.932   8.416  0.0592 -0.9431  0.0494
   86SAPS  H18X 8276   4.569   1.877   8.489 -1.2084 -2.1007  0.3226
   86SAPS  H18Y 8277   4.488   1.866   8.328  0.9051 -0.5159 -0.4581
   86SAPS  H18Z 8278   4.410   1.950   8.470 -0.8477  0.1593 -1.8283
   87SAPS     N 8279   6.190   2.209  10.889 -0.3020  0.3183  0.3681
   87SAPS   HN1 8280   6.157   2.185  10.793 -0.1527  0.6634  0.2307
   87SAPS   HN2 8281   6.116   2.201  10.961  0.9167 -1.5223  1.5155
   87SAPS   HN3 8282   6.210   2.309  10.870 -2.2350  0.5727 -0.5648
   87SAPS   C12 8283   6.307   2.120  10.916  0.0863 -0.2614 -0.1130
   87SAPS  H12A 8284   6.327   2.110  11.021  0.3950 -1.6652 -0.2892
   87SAPS   C13 8285   6.284   1.978  10.863  0.2964 -0.1835  0.5897
   87SAPS  O13A 8286   6.183   1.955  10.793  0.4818 -0.1059 -0.0299
   87SAPS  O13B 8287   6.381   1.894  10.862 -0.0427 -0.2286  0.6449
   87SAPS   C11 8288   6.428   2.188  10.838 -0.0517  0.3267 -0.6292
   87SAPS  H11A 8289   6.415   2.170  10.729 -0.5039  0.6182 -0.6258
   87SAPS  H11B 8290   6.510   2.123  10.874 -0.8461 -0.4732 -0.2120
   87SAPS     P 8291   6.545   2.425  10.795  0.2161 -0.1071 -0.5674
   87SAPS   O13 8292   6.519   2.562  10.852 -0.8212  0.3741  0.1900
   87SAPS   O14 8293   6.685   2.374  10.805  0.1077  0.0591 -0.1880
   87SAPS   O12 8294   6.444   2.323  10.873  0.1203 -1.0176  0.2130
   87SAPS   O11 8295   6.491   2.414  10.651  1.0826 -0.0760  0.5810
   87SAPS    C1 8296   6.575   2.400  10.533 -0.7131  0.1088  0.2703
   87SAPS    HA 8297   6.680   2.365  10.542 -1.1997 -1.1534  1.4256
   87SAPS    HB 8298   6.517   2.328  10.471  0.3582  0.4506 -1.1764
   87SAPS    C2 8299   6.574   2.526  10.443  0.2607  0.2265 -0.2985
   87SAPS    HS 8300   6.615   2.608  10.506  0.8747  0.0252 -0.4251
   87SAPS   O21 8301   6.434   2.546  10.403 -0.2831 -0.4290  0.5879
   87SAPS   C21 8302   6.414   2.664  10.342  0.4596  0.6820 -0.0104
   87SAPS   O22 8303   6.481   2.764  10.350 -0.7906  0.4646 -0.1738
   87SAPS   C22 8304   6.272   2.665  10.282 -0.0228  0.5510 -0.2105
   87SAPS   H2R 8305   6.264   2.578  10.214  1.1576 -0.7408  1.2555
   87SAPS   H2S 8306   6.199   2.637  10.361 -0.5067  0.0784 -0.8200
   87SAPS    C3 8307   6.670   2.521  10.322 -0.0555  0.7868  0.2990
   87SAPS    HX 8308   6.772   2.503  10.363  0.1681 -3.6578 -1.7085
   87SAPS    HY 8309   6.681   2.617  10.267 -0.1889 -0.0689 -1.2691
   87SAPS   O31 8310   6.641   2.412  10.232 -0.0032 -0.5218 -0.9923
   87SAPS   C31 8311   6.582   2.445  10.118 -0.1030 -0.0138 -0.1033
   87SAPS   O32 8312   6.547   2.559  10.090 -0.1964  0.0143 -0.6517
   87SAPS   C32 8313   6.561   2.319  10.042  0.0311 -0.0604  0.7668
   87SAPS   H2X 8314   6.525   2.234  10.105  1.3096 -0.7447  0.6139
   87SAPS   H2Y 8315   6.659   2.285  10.001  0.9863 -0.8511  3.5205
   87SAPS   C23 8316   6.252   2.796  10.202  0.5029  0.5547  0.3004
   87SAPS   H3R 8317   6.341   2.807  10.137  2.1701  2.8653  2.7470
   87SAPS   H3S 8318   6.258   2.878  10.276  1.4536 -0.2869  1.1878
   87SAPS   C24 8319   6.116   2.795  10.128  0.2092  0.5141 -0.3914
   87SAPS   H4R 8320   6.035   2.798  10.204  1.3590 -1.8131  1.0358
   87SAPS   H4S 8321   6.114   2.697  10.078  0.3525  0.5751 -0.5167
   87SAPS   C25 8322   6.093   2.904  10.025  0.7544  0.4494 -0.3246
   87SAPS   H5R 8323   6.063   3.003  10.061  0.2810  0.1943 -0.0112
   87SAPS   C26 8324   6.091   2.889   9.893 -0.6705  0.0275  0.1451
   87SAPS   H6R 8325   6.078   2.987   9.844 -1.1892  1.0916  2.3068
   87SAPS   C27 8326   6.123   2.762   9.820  1.0085  0.1161 -0.7073
   87SAPS   H7R 8327   6.197   2.699   9.874  1.3547 -0.5992 -1.9889
   87SAPS   H7S 8328   6.183   2.796   9.733 -0.5071 -2.5103 -2.9255
   87SAPS   C28 8329   6.011   2.679   9.778 -0.2930 -0.0480  1.1001
   87SAPS   H8R 8330   5.966   2.619   9.859 -0.5325 -0.1561  0.8903
   87SAPS   C29 8331   5.959   2.666   9.648  0.6320 -0.0655 -0.3971
   87SAPS   H9R 8332   5.875   2.598   9.628  0.9130 -0.4510 -0.2537
   87SAPS  C210 8333   6.017   2.733   9.528 -1.0350 -0.1887 -0.1998
   87SAPS  H10R 8334   6.085   2.654   9.489 -0.1547  0.5074 -0.1281
   87SAPS  H10S 8335   6.073   2.826   9.551  0.3089 -0.7843 -0.9264
   87SAPS  C211 8336   5.910   2.765   9.430 -0.2110 -0.4549  0.3437
   87SAPS  H11R 8337   5.853   2.856   9.454  0.5812  0.4006 -0.8682
   87SAPS  C212 8338   5.878   2.701   9.319  0.1512 -1.0327  0.5153
   87SAPS  H12R 8339   5.807   2.739   9.244  3.0598 -1.8181 -2.9400
   87SAPS  C213 8340   5.948   2.581   9.260 -0.3029  0.3334 -0.1850
   87SAPS  H13R 8341   5.866   2.506   9.253  0.0065 -0.0207 -0.0212
   87SAPS  H13S 8342   6.025   2.533   9.325 -0.6091  0.6289  0.4099
   87SAPS  C214 8343   6.005   2.630   9.128  0.4365 -0.5199 -0.9441
   87SAPS  H14R 8344   5.938   2.701   9.077 -0.5650 -0.7404  0.0094
   87SAPS  C215 8345   6.119   2.593   9.065 -0.3647 -0.5280 -0.1228
   87SAPS  H15R 8346   6.137   2.627   8.962 -0.2301  0.0076  0.0766
   87SAPS  C216 8347   6.219   2.494   9.112  0.0719  0.2519  0.0020
   87SAPS  H16R 8348   6.222   2.401   9.050 -0.4698  0.2431 -0.0170
   87SAPS  H16S 8349   6.190   2.452   9.211  1.1152 -1.2959 -0.3117
   87SAPS  C217 8350   6.362   2.550   9.133  0.2896 -0.6989 -0.4900
   87SAPS  H17R 8351   6.400   2.610   9.048 -0.5097  1.0476  0.3335
   87SAPS  H17S 8352   6.435   2.473   9.166 -1.9081 -1.5933  2.8521
   87SAPS  C218 8353   6.376   2.644   9.255 -0.1697  1.2551  0.8444
   87SAPS  H18R 8354   6.285   2.707   9.243 -0.4806  1.0142  1.8256
   87SAPS  H18S 8355   6.462   2.714   9.252 -0.1424  1.1923 -0.6851
   87SAPS  C219 8356   6.379   2.563   9.382  0.7549 -0.1493  0.4112
   87SAPS  H19R 8357   6.468   2.500   9.364  0.4164 -0.5743  0.2080
   87SAPS  H19S 8358   6.294   2.495   9.404  0.8968 -0.6756 -0.6359
   87SAPS  C220 8359   6.392   2.655   9.506 -0.3679 -0.2482  0.1544
   87SAPS  H20R 8360   6.292   2.684   9.546 -0.6069  0.7175 -1.0845
   87SAPS  H20S 8361   6.453   2.743   9.476 -0.0502  0.2074  1.9880
   87SAPS  H20T 8362   6.441   2.600   9.589 -0.4875 -1.7554 -0.7488
   87SAPS   C33 8363   6.487   2.330   9.902  0.4311  0.1882  0.4401
   87SAPS   H3X 8364   6.502   2.239   9.840  1.0558  0.4370  0.2178
   87SAPS   H3Y 8365   6.533   2.413   9.843  0.7411 -1.1423 -1.2619
   87SAPS   C34 8366   6.336   2.329   9.930 -0.3141  0.5320 -0.7068
   87SAPS   H4X 8367   6.325   2.417   9.998  3.2529  0.5933 -0.0265
   87SAPS   H4Y 8368   6.307   2.241   9.991 -2.8508  2.2412  0.7903
   87SAPS   C35 8369   6.246   2.352   9.807 -0.3238 -0.0051  0.1129
   87SAPS   H5X 8370   6.301   2.421   9.738 -0.7154  0.0324 -0.1634
   87SAPS   H5Y 8371   6.144   2.384   9.836 -0.9482 -1.8495  0.0721
   87SAPS   C36 8372   6.221   2.233   9.719  0.0639  0.0628 -0.3045
   87SAPS   H6X 8373   6.171   2.155   9.779  0.8364 -0.6378 -0.5503
   87SAPS   H6Y 8374   6.320   2.190   9.693 -0.1524 -0.2207 -0.6716
   87SAPS   C37 8375   6.149   2.267   9.591 -0.1339 -0.2727 -0.0931
   87SAPS   H7X 8376   6.211   2.340   9.535  3.1332 -1.0271  2.2011
   87SAPS   H7Y 8377   6.053   2.319   9.610 -0.3942 -0.5468 -0.6348
   87SAPS   C38 8378   6.125   2.141   9.503 -0.2130 -0.3527  0.5527
   87SAPS   H8X 8379   6.073   2.058   9.555  0.3909  0.2274  2.1288
   87SAPS   H8Y 8380   6.229   2.107   9.486  0.1644  0.4016  1.2872
   87SAPS   C39 8381   6.062   2.176   9.369 -0.2961  0.1495  0.1345
   87SAPS   H9X 8382   6.117   2.265   9.332  0.5319 -0.5815 -0.4436
   87SAPS   H9Y 8383   5.954   2.196   9.383 -0.8473 -1.8024 -0.8957
   87SAPS  C310 8384   6.072   2.058   9.261  0.4913 -0.3434 -0.3448
   87SAPS  H10X 8385   6.001   1.974   9.277 -1.7143  1.1469 -1.7452
   87SAPS  H10Y 8386   6.179   2.029   9.264  0.7105  0.4706  0.2072
   87SAPS  C311 8387   6.030   2.114   9.120 -0.8580 -0.4570 -0.6725
   87SAPS  H11X 8388   6.081   2.212   9.106 -1.6085  0.0046 -0.2290
   87SAPS  H11Y 8389   5.923   2.141   9.133 -0.1506  2.0537  0.4020
   87SAPS  C312 8390   6.044   2.013   9.005  0.4414 -0.9190 -0.1683
   87SAPS  H12X 8391   5.989   1.919   9.026  0.8400 -1.3075 -0.8205
   87SAPS  H12Y 8392   6.151   1.990   8.985  0.8559 -0.1395  1.0485
   87SAPS  C313 8393   5.987   2.072   8.872  0.1147  0.3175  0.1016
   87SAPS  H13X 8394   5.880   2.100   8.876  0.3967  2.1038 -2.5232
   87SAPS  H13Y 8395   6.002   1.993   8.795  2.9312  0.4090  0.4610
   87SAPS  C314 8396   6.075   2.182   8.812  0.7035 -0.4974 -0.1909
   87SAPS  H14X 8397   6.104   2.236   8.904 -2.0763  0.8015  0.0237
   87SAPS  H14Y 8398   6.023   2.258   8.750 -0.6401 -0.7289  0.6256
   87SAPS  C315 8399   6.197   2.138   8.726  0.4594 -0.3410 -0.2475
   87SAPS  H15X 8400   6.268   2.090   8.798  0.6720  1.1417  0.5663
   87SAPS  H15Y 8401   6.238   2.235   8.694 -1.7287  1.0358  0.8759
   87SAPS  C316 8402   6.165   2.049   8.598  0.6698  0.2428  0.3666
   87SAPS  H16X 8403   6.133   1.946   8.625  0.5707  1.1698  4.5698
   87SAPS  H16Y 8404   6.248   2.044   8.525 -0.3094  1.4584 -0.8774
   87SAPS  C317 8405   6.056   2.104   8.513 -0.7166  0.0144 -0.1446
   87SAPS  H17X 8406   5.972   2.118   8.584 -0.5727  0.9262 -0.1436
   87SAPS  H17Y 8407   6.016   2.029   8.441  0.1923 -2.0113  1.3485
   87SAPS  C318 8408   6.087   2.235   8.435  0.1752  0.1991  0.3136
   87SAPS  H18X 8409   6.102   2.326   8.496  2.0383 -0.6234  1.1863
   87SAPS  H18Y 8410   6.007   2.257   8.361 -1.0574  1.3432  1.9147
   87SAPS  H18Z 8411   6.190   2.214   8.397 -0.2086 -2.8571  0.6903
   88SAPS     N 8412   1.831   0.830  10.793 -0.5899 -0.7691 -0.0454
   88SAPS   HN1 8413   1.823   0.933  10.780  2.6875 -0.4213 -0.0641
   88SAPS   HN2 8414   1.927   0.792  10.798 -1.2735 -2.5221  0.5185
   88SAPS   HN3 8415   1.785   0.784  10.712  0.6739 -1.4128 -0.4204
   88SAPS   C12 8416   1.747   0.800  10.919  0.1468 -0.6253  0.3753
   88SAPS  H12A 8417   1.722   0.697  10.903 -1.1371 -0.2422 -0.2185
   88SAPS   C13 8418   1.819   0.815  11.059 -0.1881  0.3142  0.1511
   88SAPS  O13A 8419   1.932   0.874  11.063  0.2034  0.2237  0.0765
   88SAPS  O13B 8420   1.745   0.801  11.158  0.4345 -0.3024 -0.3403
   88SAPS   C11 8421   1.615   0.886  10.906  0.7242  1.1067  0.2918
   88SAPS  H11A 8422   1.573   0.877  11.009  2.1817 -0.2097  0.8057
   88SAPS  H11B 8423   1.553   0.823  10.838  1.6992  0.2858  0.1508
   88SAPS     P 8424   1.538   1.113  10.798  0.0159 -0.3591 -0.2965
   88SAPS   O13 8425   1.402   1.092  10.848  0.1117 -0.0017  0.1373
   88SAPS   O14 8426   1.588   1.253  10.811  0.3840  0.1861  0.1419
   88SAPS   O12 8427   1.647   1.021  10.871  0.4405 -0.4798  0.2151
   88SAPS   O11 8428   1.551   1.058  10.651 -0.0698 -0.3956 -0.5533
   88SAPS    C1 8429   1.491   1.119  10.536  0.2455 -0.1270 -0.1046
   88SAPS    HA 8430   1.431   1.209  10.559 -0.7085 -1.1790  1.7296
   88SAPS    HB 8431   1.566   1.154  10.461  0.4292 -1.8383 -0.7714
   88SAPS    C2 8432   1.407   1.020  10.463  0.9508 -0.6378  1.3219
   88SAPS    HS 8433   1.346   0.962  10.535  1.4446  0.9454  3.0791
   88SAPS   O21 8434   1.483   0.917  10.400 -0.3832  0.4054  0.1207
   88SAPS   C21 8435   1.441   0.791  10.383  0.1695 -0.1406  0.1144
   88SAPS   O22 8436   1.324   0.757  10.394 -0.0372  0.4565 -0.6163
   88SAPS   C22 8437   1.556   0.688  10.364  0.7893 -0.3752 -0.4504
   88SAPS   H2R 8438   1.610   0.728  10.275 -0.7010  1.6195 -0.5217
   88SAPS   H2S 8439   1.636   0.692  10.441  1.0227  2.3040 -0.7064
   88SAPS    C3 8440   1.300   1.087  10.365 -0.2255 -0.5811  0.3650
   88SAPS    HX 8441   1.233   1.143  10.434 -1.4649 -0.6194 -0.7761
   88SAPS    HY 8442   1.253   1.005  10.306 -0.4426 -0.0520 -0.2035
   88SAPS   O31 8443   1.376   1.171  10.278 -0.4655 -0.2125 -0.3654
   88SAPS   C31 8444   1.319   1.288  10.251 -0.4428  0.7444  0.3118
   88SAPS   O32 8445   1.205   1.326  10.281  0.3144 -0.1275  0.3207
   88SAPS   C32 8446   1.413   1.372  10.168  0.0687  0.0524 -0.0782
   88SAPS   H2X 8447   1.508   1.379  10.226  1.5411  1.1840 -2.4797
   88SAPS   H2Y 8448   1.368   1.474  10.169  0.2844  0.1531 -0.3352
   88SAPS   C23 8449   1.513   0.544  10.333 -0.2180 -0.1908 -0.0092
   88SAPS   H3R 8450   1.422   0.550  10.270 -0.1857  4.5528 -0.0145
   88SAPS   H3S 8451   1.485   0.501  10.432  1.6628  1.3220  1.2740
   88SAPS   C24 8452   1.628   0.477  10.261  0.2590  0.6861 -0.0976
   88SAPS   H4R 8453   1.716   0.486  10.328 -0.0486 -0.5686  0.5103
   88SAPS   H4S 8454   1.655   0.543  10.176  2.3804 -0.3830 -0.3357
   88SAPS   C25 8455   1.590   0.334  10.221  0.2372  0.0710 -0.3238
   88SAPS   H5R 8456   1.604   0.263  10.305 -1.2077  1.0618  0.8098
   88SAPS   C26 8457   1.536   0.297  10.099  0.3855 -0.0490 -0.3514
   88SAPS   H6R 8458   1.500   0.194  10.090  1.8469 -0.6047 -0.0021
   88SAPS   C27 8459   1.499   0.394   9.988 -0.0083  0.2437 -0.1754
   88SAPS   H7R 8460   1.586   0.388   9.920  0.8275  2.3745  0.6291
   88SAPS   H7S 8461   1.493   0.500  10.021 -1.4545  0.7123 -1.8108
   88SAPS   C28 8462   1.368   0.349   9.922  0.0518 -0.1331 -0.2539
   88SAPS   H8R 8463   1.280   0.359   9.987 -0.0546  0.5864 -0.5003
   88SAPS   C29 8464   1.348   0.309   9.792  0.2477  0.4025  0.4929
   88SAPS   H9R 8465   1.245   0.284   9.763 -0.1411 -1.1276  2.9018
   88SAPS  C210 8466   1.453   0.301   9.685  0.0270  0.6785 -0.1241
   88SAPS  H10R 8467   1.411   0.240   9.602 -1.2849 -0.6003  1.4092
   88SAPS  H10S 8468   1.542   0.244   9.717  0.1287  1.6620  1.4157
   88SAPS  C211 8469   1.499   0.440   9.642 -0.8313 -0.6872 -0.1246
   88SAPS  H11R 8470   1.539   0.508   9.719 -1.0641  1.3141 -1.7040
   88SAPS  C212 8471   1.487   0.492   9.521  0.2746 -0.1877  0.6133
   88SAPS  H12R 8472   1.552   0.580   9.505 -0.8034  0.2248 -1.8906
   88SAPS  C213 8473   1.423   0.440   9.395  1.1052 -0.0189  0.0464
   88SAPS  H13R 8474   1.355   0.515   9.349  0.2584 -0.4914  0.5010
   88SAPS  H13S 8475   1.356   0.357   9.427 -0.8287  1.5058  0.1480
   88SAPS  C214 8476   1.518   0.379   9.300  0.2454 -0.7009  0.0866
   88SAPS  H14R 8477   1.609   0.327   9.331 -0.9023 -1.8487  1.6933
   88SAPS  C215 8478   1.494   0.373   9.172  0.0691 -0.4408  0.3142
   88SAPS  H15R 8479   1.572   0.323   9.112 -1.6506  0.9744 -3.4105
   88SAPS  C216 8480   1.372   0.413   9.086 -0.9503 -1.0935  0.7464
   88SAPS  H16R 8481   1.287   0.443   9.151 -2.2044 -0.9931 -0.8775
   88SAPS  H16S 8482   1.338   0.317   9.042 -0.5183 -0.2473 -1.5817
   88SAPS  C217 8483   1.399   0.522   8.985 -0.7741 -0.1598  0.4214
   88SAPS  H17R 8484   1.474   0.594   9.024 -1.3848 -0.3648  2.0707
   88SAPS  H17S 8485   1.301   0.574   8.979 -1.2253 -1.0383 -0.0167
   88SAPS  C218 8486   1.446   0.453   8.856 -0.2070 -0.0377 -0.3851
   88SAPS  H18R 8487   1.386   0.361   8.842 -0.4381 -0.0462  0.5509
   88SAPS  H18S 8488   1.543   0.403   8.876 -0.8901 -0.4911  2.2134
   88SAPS  C219 8489   1.433   0.542   8.736  0.3947  0.2364  0.7436
   88SAPS  H19R 8490   1.506   0.625   8.750 -1.4977  1.6356  3.2887
   88SAPS  H19S 8491   1.334   0.590   8.753 -0.7767 -1.9709  0.4543
   88SAPS  C220 8492   1.447   0.462   8.601 -0.0251 -0.2363  0.0366
   88SAPS  H20R 8493   1.546   0.411   8.601  0.2774  0.3515  0.3693
   88SAPS  H20S 8494   1.436   0.522   8.508 -0.7001 -3.7625 -2.3583
   88SAPS  H20T 8495   1.371   0.381   8.593  1.5255 -1.6970 -0.5692
   88SAPS   C33 8496   1.436   1.319  10.028  0.6902 -0.0820 -0.2463
   88SAPS   H3X 8497   1.466   1.212  10.033  1.4433  0.1374  3.8655
   88SAPS   H3Y 8498   1.515   1.371   9.971  0.3811  0.3449 -0.2912
   88SAPS   C34 8499   1.315   1.315   9.935  0.6317 -1.6099 -0.1807
   88SAPS   H4X 8500   1.280   1.418   9.916  0.8323 -1.2996  1.0567
   88SAPS   H4Y 8501   1.220   1.271   9.973 -0.1146 -1.5130 -1.8674
   88SAPS   C35 8502   1.348   1.243   9.799  0.4718  0.1545 -0.1244
   88SAPS   H5X 8503   1.390   1.141   9.815  2.6431  0.8753 -0.9301
   88SAPS   H5Y 8504   1.433   1.299   9.753 -0.9244  0.9647 -1.8376
   88SAPS   C36 8505   1.237   1.237   9.701  0.4078 -0.1037  0.3642
   88SAPS   H6X 8506   1.194   1.338   9.716  2.2638  0.6608  0.8410
   88SAPS   H6Y 8507   1.153   1.171   9.731  0.1114 -0.1175 -0.4807
   88SAPS   C37 8508   1.276   1.220   9.557  0.4047  0.6359  0.1014
   88SAPS   H7X 8509   1.311   1.116   9.538  3.1873  1.3308  0.9364
   88SAPS   H7Y 8510   1.361   1.288   9.533  1.4951 -0.4016  0.9035
   88SAPS   C38 8511   1.164   1.260   9.459  0.2541  0.2992  0.1814
   88SAPS   H8X 8512   1.114   1.347   9.506  1.5230  0.2329  1.7759
   88SAPS   H8Y 8513   1.080   1.187   9.454 -0.6171  1.3652 -1.6560
   88SAPS   C39 8514   1.222   1.281   9.319  0.5607  0.7958 -0.4894
   88SAPS   H9X 8515   1.297   1.200   9.307 -0.8216 -1.0126  2.0014
   88SAPS   H9Y 8516   1.273   1.379   9.324 -0.5199  1.3161  0.9817
   88SAPS  C310 8517   1.133   1.282   9.203  0.9568 -0.4571  0.3931
   88SAPS  H10X 8518   1.065   1.194   9.204 -0.2193  0.4200  0.2969
   88SAPS  H10Y 8519   1.192   1.265   9.111 -1.2423 -0.7139 -1.0616
   88SAPS  C311 8520   1.034   1.407   9.194 -0.5455 -0.5610 -0.8832
   88SAPS  H11X 8521   1.093   1.499   9.169 -0.3070 -0.2179  0.8299
   88SAPS  H11Y 8522   0.989   1.411   9.295 -1.0056 -1.4114 -1.0536
   88SAPS  C312 8523   0.931   1.386   9.086  0.0031 -0.8253  0.6098
   88SAPS  H12X 8524   0.858   1.314   9.128  2.5714 -3.0944  1.4400
   88SAPS  H12Y 8525   0.983   1.341   8.999  0.2156 -0.2110  0.4115
   88SAPS  C313 8526   0.865   1.520   9.045  0.5605  0.4433 -0.5653
   88SAPS  H13X 8527   0.944   1.586   9.005  2.2755 -1.3845 -0.3182
   88SAPS  H13Y 8528   0.832   1.560   9.143  0.2608 -1.6440  0.2425
   88SAPS  C314 8529   0.763   1.503   8.939 -0.0944 -0.4384  0.6311
   88SAPS  H14X 8530   0.678   1.570   8.964  0.7023  0.1735  1.8509
   88SAPS  H14Y 8531   0.727   1.399   8.928  0.0594 -0.2830 -1.6837
   88SAPS  C315 8532   0.821   1.533   8.802  0.0717  0.3709  0.3225
   88SAPS  H15X 8533   0.908   1.465   8.793  0.1141  0.4657  0.0095
   88SAPS  H15Y 8534   0.858   1.634   8.775 -0.7382  0.2536 -1.3386
   88SAPS  C316 8535   0.716   1.504   8.696  0.1291 -0.4391 -0.0088
   88SAPS  H16X 8536   0.625   1.551   8.739 -0.5480 -0.8982 -0.8980
   88SAPS  H16Y 8537   0.707   1.393   8.701  0.6143 -0.4776  0.1168
   88SAPS  C317 8538   0.756   1.523   8.552  0.8791  1.2106 -0.1551
   88SAPS  H17X 8539   0.675   1.480   8.489 -0.0812  0.4185  1.5438
   88SAPS  H17Y 8540   0.847   1.462   8.535  0.3927  0.8748 -1.7045
   88SAPS  C318 8541   0.791   1.664   8.511 -0.0241  0.4067  1.0967
   88SAPS  H18X 8542   0.697   1.716   8.484 -0.1955 -0.5729 -0.2822
   88SAPS  H18Y 8543   0.850   1.664   8.417 -1.4055  1.3783  0.1927
   88SAPS  H18Z 8544   0.863   1.712   8.581 -0.3457  0.8114  1.1560
   89SAPS     N 8545   0.793   3.629  10.537  0.0060 -0.3083  0.0465
   89SAPS   HN1 8546   0.696   3.614  10.504  0.1380 -0.4138 -0.3024
   89SAPS   HN2 8547   0.806   3.721  10.585 -0.6913 -1.6550  3.0493
   89SAPS   HN3 8548   0.854   3.610  10.454  2.6582 -0.6119  1.9350
   89SAPS   C12 8549   0.823   3.542  10.649  0.4961  0.2329  0.5249
   89SAPS  H12A 8550   0.931   3.535  10.657  0.3415 -0.1295  3.1789
   89SAPS   C13 8551   0.766   3.584  10.783  0.0573 -0.7786  0.1097
   89SAPS  O13A 8552   0.671   3.678  10.788  0.2900  0.1718  0.2226
   89SAPS  O13B 8553   0.780   3.511  10.887 -0.2920 -0.4589 -1.0799
   89SAPS   C11 8554   0.771   3.399  10.620  0.1933  0.7563  0.0826
   89SAPS  H11A 8555   0.663   3.422  10.604  0.2778  2.0685  1.1993
   89SAPS  H11B 8556   0.787   3.329  10.704  2.2451 -0.8651 -1.5662
   89SAPS     P 8557   0.970   3.287  10.498 -0.2895 -0.2158  0.2224
   89SAPS   O13 8558   1.042   3.337  10.615  0.1134  0.0744  0.2122
   89SAPS   O14 8559   0.961   3.139  10.482  0.0553 -0.8939 -0.2083
   89SAPS   O12 8560   0.827   3.349  10.499 -0.1855  0.7198  0.2374
   89SAPS   O11 8561   1.048   3.351  10.370 -0.0207  0.1710  0.0097
   89SAPS    C1 8562   1.013   3.308  10.237 -0.3729  0.6069  0.1196
   89SAPS    HA 8563   1.077   3.219  10.216  0.4167  0.9773  0.8690
   89SAPS    HB 8564   0.909   3.272  10.227 -0.3864  0.8017 -0.4765
   89SAPS    C2 8565   1.028   3.406  10.121  0.5679 -0.9128 -0.3764
   89SAPS    HS 8566   1.106   3.483  10.137 -2.4644  2.4396 -0.2889
   89SAPS   O21 8567   0.912   3.487  10.104 -0.0033 -0.3376 -0.3899
   89SAPS   C21 8568   0.869   3.583  10.186  0.5112  0.0230 -1.1429
   89SAPS   O22 8569   0.916   3.610  10.295  0.3678 -0.1846  0.2338
   89SAPS   C22 8570   0.759   3.675  10.118 -0.2600  0.6858  0.0664
   89SAPS   H2R 8571   0.787   3.665  10.011 -0.5205 -0.0474  0.0639
   89SAPS   H2S 8572   0.673   3.607  10.135  0.1214  0.1938  0.0397
   89SAPS    C3 8573   1.064   3.332   9.988 -0.6492  0.2517 -0.2314
   89SAPS    HX 8574   1.001   3.241   9.984  0.3602 -0.4451 -0.4760
   89SAPS    HY 8575   1.169   3.295   9.993 -1.1865 -1.3127 -0.1611
   89SAPS   O31 8576   1.054   3.422   9.867  0.0807 -0.8450  0.0976
   89SAPS   C31 8577   1.156   3.505   9.856  0.4871  0.6592  0.1161
   89SAPS   O32 8578   1.252   3.510   9.933 -0.5786  0.1558  0.2354
   89SAPS   C32 8579   1.125   3.610   9.756  0.0037  0.1566 -0.5342
   89SAPS   H2X 8580   1.098   3.707   9.803  2.0367 -0.2184  1.5872
   89SAPS   H2Y 8581   1.049   3.580   9.681  1.1672  2.3156 -2.7302
   89SAPS   C23 8582   0.737   3.813  10.172  0.5173  0.0457 -0.3768
   89SAPS   H3R 8583   0.802   3.843  10.257 -1.7041 -0.0991  1.4686
   89SAPS   H3S 8584   0.638   3.809  10.221  0.6639 -1.9155 -0.1582
   89SAPS   C24 8585   0.748   3.930  10.067  0.4481  0.7437 -0.4347
   89SAPS   H4R 8586   0.750   4.019  10.133 -1.9515  0.3653  0.2149
   89SAPS   H4S 8587   0.650   3.922  10.015  0.0597  0.1945  0.3657
   89SAPS   C25 8588   0.868   3.928   9.974  0.0517  0.0291  0.2834
   89SAPS   H5R 8589   0.961   3.971  10.013 -0.2660  1.6960 -0.7008
   89SAPS   C26 8590   0.875   3.885   9.842  0.2154 -0.1472  0.6431
   89SAPS   H6R 8591   0.970   3.894   9.786 -0.5683 -0.3228 -0.7592
   89SAPS   C27 8592   0.768   3.833   9.751 -0.6553 -0.6455 -0.0284
   89SAPS   H7R 8593   0.695   3.913   9.725  0.4055  0.4096  0.1220
   89SAPS   H7S 8594   0.716   3.759   9.815  0.0504  0.1957  1.5854
   89SAPS   C28 8595   0.806   3.781   9.614 -0.5545 -0.2507 -0.8787
   89SAPS   H8R 8596   0.860   3.857   9.555 -1.2137  0.0513 -1.1048
   89SAPS   C29 8597   0.769   3.671   9.559  0.2520  0.1117  0.3929
   89SAPS   H9R 8598   0.811   3.645   9.461  0.4699 -0.6777  0.6914
   89SAPS  C210 8599   0.683   3.560   9.623 -0.1484  0.3587 -0.3913
   89SAPS  H10R 8600   0.622   3.521   9.539  2.0722  0.2280 -2.0315
   89SAPS  H10S 8601   0.610   3.600   9.696 -0.6371 -0.4369 -0.4355
   89SAPS  C211 8602   0.773   3.452   9.673 -0.4001 -0.5419  0.2534
   89SAPS  H11R 8603   0.794   3.467   9.780 -1.7025  2.0950  0.1988
   89SAPS  C212 8604   0.831   3.347   9.603 -0.5038 -0.4611 -0.3123
   89SAPS  H12R 8605   0.903   3.285   9.658 -0.9774 -0.3048  0.5054
   89SAPS  C213 8606   0.809   3.315   9.455 -0.2275  0.4737  0.3951
   89SAPS  H13R 8607   0.713   3.350   9.412  0.6349  0.2418 -1.8505
   89SAPS  H13S 8608   0.807   3.205   9.440 -1.6557  0.6059 -0.6167
   89SAPS  C214 8609   0.929   3.368   9.382  0.2513 -0.5051  0.2839
   89SAPS  H14R 8610   1.022   3.367   9.440 -1.7244 -0.8768  3.6709
   89SAPS  C215 8611   0.921   3.425   9.262 -0.4522 -0.1545  0.0601
   89SAPS  H15R 8612   1.011   3.467   9.215 -1.7926  1.8007 -0.9028
   89SAPS  C216 8613   0.794   3.430   9.187  0.1813 -0.1631  0.4508
   89SAPS  H16R 8614   0.713   3.470   9.251 -0.0437 -1.7671  1.2112
   89SAPS  H16S 8615   0.769   3.330   9.144  2.0388 -0.8157  0.8230
   89SAPS  C217 8616   0.795   3.538   9.071  0.2485 -0.7593 -0.0393
   89SAPS  H17R 8617   0.871   3.512   8.994  0.4508 -0.8622  0.1907
   89SAPS  H17S 8618   0.816   3.632   9.126 -2.9711  0.0126  0.0446
   89SAPS  C218 8619   0.652   3.557   9.002  0.2383 -0.2504  0.1475
   89SAPS  H18R 8620   0.572   3.523   9.071 -1.6411 -0.1708 -1.8639
   89SAPS  H18S 8621   0.643   3.485   8.918 -0.3472 -0.3506  0.2958
   89SAPS  C219 8622   0.629   3.696   8.940 -0.5836 -0.3936  0.3770
   89SAPS  H19R 8623   0.718   3.727   8.882  1.0945 -1.4522  2.2377
   89SAPS  H19S 8624   0.620   3.771   9.022 -0.7503  0.0305 -0.0251
   89SAPS  C220 8625   0.509   3.700   8.848 -0.3251  0.1475 -0.5035
   89SAPS  H20R 8626   0.500   3.793   8.787 -0.4406 -0.0863 -0.8446
   89SAPS  H20S 8627   0.415   3.683   8.905  1.1394 -3.3176  1.1553
   89SAPS  H20T 8628   0.512   3.606   8.790 -0.5498 -1.0751  1.3747
   89SAPS   C33 8629   1.242   3.639   9.659 -0.3578 -0.0310 -0.3993
   89SAPS   H3X 8630   1.282   3.540   9.629 -1.2985 -0.5966  0.1687
   89SAPS   H3Y 8631   1.320   3.692   9.717 -1.1194  1.5087 -0.7190
   89SAPS   C34 8632   1.206   3.720   9.542 -0.5845  0.9795  0.7304
   89SAPS   H4X 8633   1.108   3.695   9.496  0.3550  0.9909 -1.4470
   89SAPS   H4Y 8634   1.277   3.693   9.460  0.4329  1.7687  1.3281
   89SAPS   C35 8635   1.226   3.866   9.570 -0.1074 -0.2427  0.4744
   89SAPS   H5X 8636   1.336   3.876   9.579  0.0772 -1.7480  0.1695
   89SAPS   H5Y 8637   1.174   3.893   9.664  1.0518 -0.3048  1.1486
   89SAPS   C36 8638   1.169   3.961   9.461  0.6443  0.8688 -0.0299
   89SAPS   H6X 8639   1.203   4.067   9.471  0.6864  0.8335  0.2097
   89SAPS   H6Y 8640   1.058   3.964   9.464  0.5810  0.8146 -1.6151
   89SAPS   C37 8641   1.199   3.918   9.326 -0.5830  0.8237  0.2703
   89SAPS   H7X 8642   1.158   3.818   9.302  2.1813 -0.5565  0.7949
   89SAPS   H7Y 8643   1.309   3.897   9.326 -0.8759 -0.9844 -1.3613
   89SAPS   C38 8644   1.169   4.024   9.219  0.4122  0.7972 -0.3675
   89SAPS   H8X 8645   1.235   4.111   9.241  0.9490  0.5577 -1.0119
   89SAPS   H8Y 8646   1.066   4.064   9.232 -0.8898 -2.3666 -0.0528
   89SAPS   C39 8647   1.192   3.980   9.074  0.1429 -0.7433  0.5917
   89SAPS   H9X 8648   1.112   3.919   9.027  1.4499 -1.6773 -0.4892
   89SAPS   H9Y 8649   1.285   3.920   9.071  0.9826  0.5642 -1.3636
   89SAPS  C310 8650   1.201   4.109   8.993  0.0787 -0.0011  0.3556
   89SAPS  H10X 8651   1.294   4.166   9.016  0.5261  0.0715 -1.4442
   89SAPS  H10Y 8652   1.115   4.178   9.011 -0.8483 -0.1758 -2.8054
   89SAPS  C311 8653   1.188   4.074   8.845  0.0850 -0.5442 -0.2755
   89SAPS  H11X 8654   1.271   4.005   8.818  1.0520  0.7422 -0.6689
   89SAPS  H11Y 8655   1.195   4.169   8.789  1.0208 -0.0767  0.5894
   89SAPS  C312 8656   1.051   4.009   8.813 -0.1689 -0.1895 -0.1813
   89SAPS  H12X 8657   0.970   4.073   8.855  1.1135  1.5125 -0.2017
   89SAPS  H12Y 8658   1.040   3.902   8.843  0.2436 -0.4043 -0.7899
   89SAPS  C313 8659   1.018   4.015   8.657 -0.4246  0.2970 -0.5041
   89SAPS  H13X 8660   1.099   3.965   8.599  0.0564  0.0731  0.3338
   89SAPS  H13Y 8661   1.021   4.124   8.633  0.2726  0.2471 -0.6659
   89SAPS  C314 8662   0.883   3.968   8.612  0.0772 -0.3485 -0.7071
   89SAPS  H14X 8663   0.878   3.861   8.644  0.2736  0.0960  0.8733
   89SAPS  H14Y 8664   0.877   3.980   8.502  1.3490 -1.2470 -0.9044
   89SAPS  C315 8665   0.770   4.050   8.676 -0.0257 -1.1264  0.4179
   89SAPS  H15X 8666   0.788   4.159   8.663 -2.7796 -0.4261  1.8623
   89SAPS  H15Y 8667   0.768   4.040   8.787  1.5639 -1.0736  0.4828
   89SAPS  C316 8668   0.635   4.011   8.614  0.6180  0.5452 -0.3872
   89SAPS  H16X 8669   0.619   3.904   8.638  0.0918  0.2919 -1.7783
   89SAPS  H16Y 8670   0.639   4.001   8.504  1.2495 -0.7685 -0.2639
   89SAPS  C317 8671   0.519   4.104   8.660 -0.0722  0.4808  0.2597
   89SAPS  H17X 8672   0.518   4.103   8.771  1.7046  2.6978  0.3790
   89SAPS  H17Y 8673   0.426   4.057   8.623 -1.3058  3.5557 -0.8233
   89SAPS  C318 8674   0.523   4.246   8.605  0.6895  0.2746  0.1461
   89SAPS  H18X 8675   0.530   4.236   8.494 -1.1680 -0.1828  0.0255
   89SAPS  H18Y 8676   0.613   4.300   8.641  2.0172 -3.2194  2.5928
   89SAPS  H18Z 8677   0.432   4.304   8.631 -0.0297 -0.3648 -0.8314
   90SAPS     N 8678   1.188   3.251  10.818  0.6544  0.7935 -0.8202
   90SAPS   HN1 8679   1.263   3.305  10.865  0.1671  1.4821 -0.8150
   90SAPS   HN2 8680   1.163   3.302  10.731  0.7624  1.1744 -0.6303
   90SAPS   HN3 8681   1.101   3.255  10.875  0.4230 -2.3234 -0.7495
   90SAPS   C12 8682   1.215   3.109  10.798 -0.7448 -0.1179 -0.5078
   90SAPS  H12A 8683   1.283   3.089  10.879  0.9488  1.0054 -1.5906
   90SAPS   C13 8684   1.099   3.010  10.814  0.0545 -0.4919  0.2762
   90SAPS  O13A 8685   0.982   3.054  10.840 -0.0475  0.4341 -0.0902
   90SAPS  O13B 8686   1.122   2.887  10.833  0.5955  0.2509  0.2854
   90SAPS   C11 8687   1.288   3.097  10.657  0.4394 -0.2062 -0.8225
   90SAPS  H11A 8688   1.212   3.102  10.576  1.7514 -2.7417 -2.3274
   90SAPS  H11B 8689   1.333   2.996  10.666  2.1473  0.5897 -0.1789
   90SAPS     P 8690   1.494   3.159  10.521  0.3977  0.6823 -0.1226
   90SAPS   O13 8691   1.603   3.264  10.518 -0.3629  0.4909  0.2177
   90SAPS   O14 8692   1.543   3.020  10.529 -0.1681  0.1388  0.2461
   90SAPS   O12 8693   1.393   3.190  10.640  0.1693 -0.1224 -0.3981
   90SAPS   O11 8694   1.396   3.181  10.405 -0.0028  0.5796  0.2520
   90SAPS    C1 8695   1.343   3.083  10.304 -0.2891 -0.1121  0.1017
   90SAPS    HA 8696   1.345   2.978  10.340 -0.0641 -0.0695  0.2116
   90SAPS    HB 8697   1.238   3.112  10.281 -0.2340  0.0033 -0.0061
   90SAPS    C2 8698   1.422   3.087  10.165 -0.1914  0.3249  0.3122
   90SAPS    HS 8699   1.510   3.021  10.184  1.3383  2.0275 -0.6241
   90SAPS   O21 8700   1.461   3.218  10.129 -0.1717  0.2059  0.2580
   90SAPS   C21 8701   1.584   3.256  10.161 -0.2750  0.4969  0.5287
   90SAPS   O22 8702   1.662   3.186  10.227 -0.3761  0.6168  0.2985
   90SAPS   C22 8703   1.615   3.394  10.095 -0.3717  0.4510  0.3793
   90SAPS   H2R 8704   1.540   3.464  10.137 -0.2042  0.5121  0.5753
   90SAPS   H2S 8705   1.712   3.431  10.135 -0.8253  3.9256 -1.3517
   90SAPS    C3 8706   1.344   3.014  10.052 -0.4839 -0.0147 -0.2129
   90SAPS    HX 8707   1.247   3.068  10.054 -0.1699  0.5985 -1.2984
   90SAPS    HY 8708   1.323   2.913  10.093 -3.9527  0.8163  0.3286
   90SAPS   O31 8709   1.410   3.001   9.920 -0.5040  0.3061  0.0779
   90SAPS   C31 8710   1.337   3.046   9.818  0.0698 -0.7271  0.0939
   90SAPS   O32 8711   1.216   3.067   9.825  0.5917  0.6894  0.1688
   90SAPS   C32 8712   1.437   3.091   9.711 -0.0785  0.0685  0.4193
   90SAPS   H2X 8713   1.485   2.997   9.676  1.0873  1.2731 -1.3644
   90SAPS   H2Y 8714   1.515   3.153   9.759 -1.2590  4.7821 -3.0897
   90SAPS   C23 8715   1.614   3.396   9.942 -0.4016  0.7268  0.1592
   90SAPS   H3R 8716   1.532   3.330   9.907  1.2298 -1.7994  0.8458
   90SAPS   H3S 8717   1.704   3.349   9.897  0.5202  1.8279  0.7991
   90SAPS   C24 8718   1.589   3.530   9.874 -0.2343  0.4865  0.5431
   90SAPS   H4R 8719   1.510   3.597   9.914 -1.4759 -0.4832 -0.2016
   90SAPS   H4S 8720   1.562   3.506   9.769  1.4059 -1.1553  0.4452
   90SAPS   C25 8721   1.718   3.611   9.864 -0.4664  0.2672  0.2347
   90SAPS   H5R 8722   1.766   3.642   9.958  2.8109 -2.7364 -0.2538
   90SAPS   C26 8723   1.776   3.640   9.749  0.4305 -0.5880 -0.2200
   90SAPS   H6R 8724   1.864   3.704   9.757  0.1588 -0.2368 -0.0007
   90SAPS   C27 8725   1.743   3.605   9.604  0.2333  0.2487 -0.1479
   90SAPS   H7R 8726   1.709   3.500   9.595  3.1347 -0.9211  1.0801
   90SAPS   H7S 8727   1.840   3.603   9.549 -0.1690 -0.1961 -0.8647
   90SAPS   C28 8728   1.648   3.694   9.528 -0.0445 -0.6339  0.2557
   90SAPS   H8R 8729   1.633   3.791   9.578 -0.1328 -1.0016  0.9484
   90SAPS   C29 8730   1.596   3.674   9.403  0.2861 -1.4262 -0.1727
   90SAPS   H9R 8731   1.524   3.746   9.360  0.7363 -0.8163  0.0701
   90SAPS  C210 8732   1.614   3.547   9.327 -0.5039  0.7371  0.3255
   90SAPS  H10R 8733   1.703   3.489   9.362 -0.1161  1.4493  0.5319
   90SAPS  H10S 8734   1.642   3.570   9.223 -1.3360  0.5441  0.0532
   90SAPS  C211 8735   1.491   3.456   9.329  0.2355 -0.0902  0.1804
   90SAPS  H11R 8736   1.481   3.398   9.421 -1.4670  0.4458  0.3520
   90SAPS  C212 8737   1.387   3.468   9.242  0.3874  0.1807  1.0264
   90SAPS  H12R 8738   1.295   3.407   9.249 -0.0365  0.8218  1.0930
   90SAPS  C213 8739   1.383   3.569   9.130  0.2131  0.2592  0.3900
   90SAPS  H13R 8740   1.477   3.561   9.072 -0.2414  1.2184 -0.5111
   90SAPS  H13S 8741   1.390   3.671   9.172 -0.0016  0.7319 -0.7033
   90SAPS  C214 8742   1.256   3.561   9.045  0.0853 -0.2085  0.5881
   90SAPS  H14R 8743   1.164   3.518   9.087 -0.7044 -1.7892 -2.4405
   90SAPS  C215 8744   1.253   3.614   8.918 -0.7299  0.4024  0.5330
   90SAPS  H15R 8745   1.160   3.615   8.859  0.5250  2.1177 -1.5502
   90SAPS  C216 8746   1.366   3.675   8.848 -0.3422  0.3076 -0.8083
   90SAPS  H16R 8747   1.440   3.726   8.913 -0.8621  0.1274 -0.0585
   90SAPS  H16S 8748   1.316   3.751   8.784  0.7678  0.2052 -1.8387
   90SAPS  C217 8749   1.445   3.583   8.754 -0.4281 -0.1663  0.4795
   90SAPS  H17R 8750   1.495   3.510   8.822 -2.9944 -1.6997  0.8500
   90SAPS  H17S 8751   1.527   3.647   8.715 -0.0182 -0.8341  0.2147
   90SAPS  C218 8752   1.352   3.510   8.653  0.2737 -0.3466 -0.4001
   90SAPS  H18R 8753   1.280   3.587   8.618  0.3103  0.4386  1.1876
   90SAPS  H18S 8754   1.278   3.443   8.702 -1.2005  0.3596 -1.5862
   90SAPS  C219 8755   1.423   3.431   8.539  0.0927  0.6556 -0.8817
   90SAPS  H19R 8756   1.503   3.366   8.579 -0.5178  0.6406  0.3589
   90SAPS  H19S 8757   1.470   3.509   8.476  1.9833 -0.5703 -1.0621
   90SAPS  C220 8758   1.327   3.350   8.449  0.2970  0.2659 -0.1615
   90SAPS  H20R 8759   1.224   3.392   8.458 -1.1550 -2.9721 -0.2489
   90SAPS  H20S 8760   1.318   3.244   8.484 -0.3626 -0.3069 -1.9576
   90SAPS  H20T 8761   1.371   3.353   8.348 -0.3487 -0.9328 -0.4953
   90SAPS   C33 8762   1.390   3.172   9.580  0.2386  0.1412  0.2215
   90SAPS   H3X 8763   1.480   3.201   9.522 -1.1983 -1.0329 -2.7595
   90SAPS   H3Y 8764   1.344   3.266   9.617  0.3811 -0.4128  1.8946
   90SAPS   C34 8765   1.293   3.096   9.489  0.3741 -0.3557 -0.6128
   90SAPS   H4X 8766   1.199   3.079   9.546  1.8044  0.2744  2.1035
   90SAPS   H4Y 8767   1.325   2.994   9.462  2.7191 -0.4785  2.0396
   90SAPS   C35 8768   1.261   3.178   9.365  0.1196 -1.1788 -0.2446
   90SAPS   H5X 8769   1.360   3.210   9.325  0.2460 -1.7556 -0.4018
   90SAPS   H5Y 8770   1.210   3.272   9.396  0.0931 -1.2639 -0.0283
   90SAPS   C36 8771   1.180   3.097   9.268  0.3110  1.0318  0.2183
   90SAPS   H6X 8772   1.081   3.074   9.313 -0.6147  4.4721  0.1820
   90SAPS   H6Y 8773   1.246   3.010   9.244 -1.0076 -0.0288  0.3369
   90SAPS   C37 8774   1.154   3.182   9.144 -0.1114  0.0319 -0.0661
   90SAPS   H7X 8775   1.253   3.184   9.094 -0.2197 -3.3513 -0.6351
   90SAPS   H7Y 8776   1.118   3.286   9.160  0.3362  0.4706 -1.7488
   90SAPS   C38 8777   1.050   3.115   9.051 -0.0795 -0.7222  1.1076
   90SAPS   H8X 8778   0.948   3.123   9.096 -0.5786  0.7955 -0.1773
   90SAPS   H8Y 8779   1.080   3.008   9.048  2.2762 -0.0919 -0.3883
   90SAPS   C39 8780   1.050   3.178   8.912 -0.2203 -0.0660 -0.4165
   90SAPS   H9X 8781   1.120   3.265   8.910 -1.2891  0.8338  0.2243
   90SAPS   H9Y 8782   0.953   3.223   8.882  0.4169  1.4076 -0.4008
   90SAPS  C310 8783   1.099   3.085   8.802 -0.1169  0.7680 -0.3908
   90SAPS  H10X 8784   1.088   2.980   8.838  0.8510  1.5034  2.2739
   90SAPS  H10Y 8785   1.209   3.097   8.798  0.8446 -4.2737  2.2925
   90SAPS  C311 8786   1.033   3.116   8.666 -0.5026 -0.1240 -0.9548
   90SAPS  H11X 8787   1.038   3.224   8.643 -0.0819 -0.0368 -0.4685
   90SAPS  H11Y 8788   0.925   3.089   8.671 -0.8889  1.0879 -2.1307
   90SAPS  C312 8789   1.103   3.041   8.552  0.4108  0.4977 -0.3695
   90SAPS  H12X 8790   1.210   3.065   8.532  0.4072 -1.1810 -2.7950
   90SAPS  H12Y 8791   1.051   3.073   8.459  1.7986  0.0373 -1.3318
   90SAPS  C313 8792   1.090   2.890   8.568  0.3454 -0.1773  0.4203
   90SAPS  H13X 8793   0.982   2.878   8.590  0.4765 -0.3335  1.0012
   90SAPS  H13Y 8794   1.148   2.853   8.655 -0.3699  0.1480  1.0368
   90SAPS  C314 8795   1.113   2.812   8.441  0.2173 -0.2856 -0.5701
   90SAPS  H14X 8796   1.050   2.875   8.375 -1.2395  0.2874  1.2693
   90SAPS  H14Y 8797   1.053   2.720   8.457  0.4848 -0.2938  0.4988
   90SAPS  C315 8798   1.253   2.786   8.391 -0.4037  0.1662 -0.1841
   90SAPS  H15X 8799   1.307   2.882   8.397  0.2468 -0.1981 -0.0965
   90SAPS  H15Y 8800   1.256   2.750   8.285 -1.6669  1.5995 -0.7321
   90SAPS  C316 8801   1.344   2.683   8.465 -0.2649  0.0077 -0.0406
   90SAPS  H16X 8802   1.322   2.579   8.435 -1.8148  0.6839 -1.3659
   90SAPS  H16Y 8803   1.329   2.698   8.574 -1.2664 -1.4922  0.0588
   90SAPS  C317 8804   1.500   2.707   8.444 -0.4629  0.1311 -0.4253
   90SAPS  H17X 8805   1.512   2.813   8.478 -0.9048  0.0530 -0.0011
   90SAPS  H17Y 8806   1.538   2.700   8.340  1.0778 -1.6786  0.2104
   90SAPS  C318 8807   1.580   2.616   8.528  0.0598  0.3940 -0.5544
   90SAPS  H18X 8808   1.564   2.636   8.636 -0.7854  1.9109 -0.9325
   90SAPS  H18Y 8809   1.689   2.640   8.519  0.2692 -0.6117 -0.8284
   90SAPS  H18Z 8810   1.573   2.509   8.498 -0.7270  0.6969 -1.4897
   91SAPS     N 8811   0.691   1.676   5.872  0.4002 -0.6033  0.5282
   91SAPS   HN1 8812   0.747   1.717   5.950  1.8875 -2.6925  0.6475
   91SAPS   HN2 8813   0.618   1.748   5.857  0.0385 -0.7689  1.3881
   91SAPS   HN3 8814   0.647   1.585   5.895  1.5208 -1.2348  0.2669
   91SAPS   C12 8815   0.783   1.643   5.762 -0.4204  0.1934  0.1818
   91SAPS  H12A 8816   0.727   1.607   5.677  1.7224  1.3755 -1.8372
   91SAPS   C13 8817   0.871   1.761   5.718 -0.1125  0.2730 -0.4771
   91SAPS  O13A 8818   0.874   1.875   5.770  0.0733  0.9007  0.1842
   91SAPS  O13B 8819   0.961   1.740   5.632 -0.2281  0.2240 -0.7282
   91SAPS   C11 8820   0.887   1.538   5.815  0.3184  0.9533 -0.1624
   91SAPS  H11A 8821   0.962   1.588   5.880  0.2239  0.8780  0.0078
   91SAPS  H11B 8822   0.941   1.496   5.728 -2.2748  0.8079 -1.8075
   91SAPS     P 8823   0.908   1.312   5.955 -0.2313 -0.0952  0.2042
   91SAPS   O13 8824   0.809   1.234   6.039 -0.0880 -0.1161  0.2556
   91SAPS   O14 8825   0.987   1.241   5.854 -0.2530 -0.3747  0.2643
   91SAPS   O12 8826   0.821   1.436   5.894 -0.5602  0.2756  0.1874
   91SAPS   O11 8827   1.001   1.400   6.052 -0.4099  0.3164  0.3469
   91SAPS    C1 8828   0.964   1.504   6.135 -0.1162 -0.7074 -0.5648
   91SAPS    HA 8829   1.021   1.595   6.106  1.1836 -0.2967  2.8342
   91SAPS    HB 8830   0.858   1.535   6.126  0.2715  1.6976  1.9674
   91SAPS    C2 8831   1.002   1.477   6.286  0.3300  0.2965 -0.0648
   91SAPS    HS 8832   1.111   1.498   6.298  0.5368  0.4031 -1.8252
   91SAPS   O21 8833   0.961   1.344   6.317 -0.0003  0.3179 -0.6243
   91SAPS   C21 8834   1.056   1.264   6.341  0.2299 -0.1801  0.5642
   91SAPS   O22 8835   1.178   1.287   6.325  0.4245  0.5159 -0.7474
   91SAPS   C22 8836   0.993   1.140   6.399  0.1671 -0.1611 -0.3253
   91SAPS   H2R 8837   0.885   1.162   6.409 -0.3392 -2.8538  0.8930
   91SAPS   H2S 8838   0.991   1.057   6.326 -2.6236 -0.4204 -0.0542
   91SAPS    C3 8839   0.937   1.584   6.381  0.2950  0.3445 -0.0299
   91SAPS    HX 8840   0.827   1.574   6.376  0.2419  0.1652  1.3105
   91SAPS    HY 8841   0.951   1.685   6.337 -0.0479 -0.1193 -1.2533
   91SAPS   O31 8842   0.971   1.574   6.522 -0.6647  0.4617 -0.4726
   91SAPS   C31 8843   1.088   1.627   6.545 -0.3369  0.4485 -0.2317
   91SAPS   O32 8844   1.167   1.667   6.460  0.3445  0.2229  0.1000
   91SAPS   C32 8845   1.102   1.647   6.701  0.3883  1.0268  0.0496
   91SAPS   H2X 8846   1.035   1.570   6.745  0.3233 -0.1687 -2.0459
   91SAPS   H2Y 8847   1.076   1.753   6.726 -0.0871  0.8706  0.2190
   91SAPS   C23 8848   1.054   1.091   6.529  0.7115  0.2585  0.4938
   91SAPS   H3R 8849   1.163   1.073   6.515  0.5085  0.5194 -1.8311
   91SAPS   H3S 8850   1.009   0.994   6.556  2.1056 -1.0126 -1.4221
   91SAPS   C24 8851   1.040   1.200   6.637  0.1866  0.6603  0.2680
   91SAPS   H4R 8852   1.085   1.294   6.600 -0.9564  0.7092 -1.1096
   91SAPS   H4S 8853   1.089   1.170   6.732  1.9622 -0.7103 -1.0437
   91SAPS   C25 8854   0.898   1.237   6.663  0.4492  0.2903  0.7937
   91SAPS   H5R 8855   0.834   1.280   6.585  0.3123  0.7497  1.1538
   91SAPS   C26 8856   0.827   1.235   6.776  0.4487  0.8553 -0.0080
   91SAPS   H6R 8857   0.723   1.270   6.771 -0.0555 -0.2929  1.7020
   91SAPS   C27 8858   0.878   1.209   6.912  0.3627 -0.3690 -0.5654
   91SAPS   H7R 8859   0.981   1.166   6.917  1.5534  2.2929 -0.0835
   91SAPS   H7S 8860   0.806   1.136   6.953 -1.6536  1.6176 -0.4105
   91SAPS   C28 8861   0.885   1.339   6.995  0.5593 -0.7706  0.4419
   91SAPS   H8R 8862   0.945   1.420   6.951  0.9443 -1.2386  0.1016
   91SAPS   C29 8863   0.807   1.371   7.099  0.3672  0.1665  0.5193
   91SAPS   H9R 8864   0.822   1.466   7.153  1.5037 -0.1189  0.7224
   91SAPS  C210 8865   0.709   1.279   7.175  0.0798  0.5043  0.3387
   91SAPS  H10R 8866   0.655   1.219   7.099  0.2697 -0.7157  1.1414
   91SAPS  H10S 8867   0.635   1.336   7.235  0.3526  0.4513  0.7325
   91SAPS  C211 8868   0.767   1.190   7.283 -0.2721 -0.1125  0.4266
   91SAPS  H11R 8869   0.786   1.087   7.248 -2.6127 -0.4099 -0.1476
   91SAPS  C212 8870   0.804   1.217   7.405  0.3944  0.4341 -0.3125
   91SAPS  H12R 8871   0.838   1.133   7.466 -1.4354 -1.4681 -1.7745
   91SAPS  C213 8872   0.781   1.354   7.463 -0.3572 -0.4777 -0.0575
   91SAPS  H13R 8873   0.781   1.432   7.384  1.3800 -0.7865 -0.3816
   91SAPS  H13S 8874   0.873   1.383   7.517 -1.1398  3.2633 -0.4642
   91SAPS  C214 8875   0.656   1.374   7.550 -0.5882  0.4512  0.4391
   91SAPS  H14R 8876   0.562   1.386   7.495 -1.0485 -1.6593  0.6819
   91SAPS  C215 8877   0.648   1.376   7.686 -0.0565 -0.8779  0.0651
   91SAPS  H15R 8878   0.553   1.396   7.738 -0.8983  1.0659 -2.0610
   91SAPS  C216 8879   0.770   1.352   7.772  0.0089  0.7750 -0.6240
   91SAPS  H16R 8880   0.789   1.430   7.850 -2.8201 -0.6573  1.7014
   91SAPS  H16S 8881   0.867   1.345   7.719  1.0317  0.1650  1.2401
   91SAPS  C217 8882   0.755   1.211   7.841  0.8313 -0.4584 -0.3546
   91SAPS  H17R 8883   0.736   1.130   7.767  0.3460 -0.5258 -0.1597
   91SAPS  H17S 8884   0.671   1.213   7.914  1.2112 -1.5744  0.1434
   91SAPS  C218 8885   0.887   1.171   7.915  0.2378  0.4922 -0.7287
   91SAPS  H18R 8886   0.899   1.249   7.993 -4.9331  1.9109 -0.9963
   91SAPS  H18S 8887   0.977   1.166   7.850  0.4923 -1.4118 -0.3069
   91SAPS  C219 8888   0.900   1.036   7.984  0.7743 -0.6998 -0.2349
   91SAPS  H19R 8889   0.802   1.016   8.034  0.9996  1.2557  1.0820
   91SAPS  H19S 8890   0.981   1.049   8.058  0.0970 -0.9585  0.5631
   91SAPS  C220 8891   0.929   0.921   7.886  0.5332  0.7649  0.4756
   91SAPS  H20R 8892   1.013   0.948   7.819  1.5936 -0.7318  1.1662
   91SAPS  H20S 8893   0.840   0.907   7.820  0.6089 -0.7276  0.6638
   91SAPS  H20T 8894   0.959   0.824   7.932  1.2538  1.0611  0.6357
   91SAPS   C33 8895   1.252   1.625   6.745 -0.6947 -0.4277 -0.0000
   91SAPS   H3X 8896   1.328   1.662   6.673  0.4822  3.0589  2.7845
   91SAPS   H3Y 8897   1.271   1.515   6.746  0.2957 -0.3062 -1.7174
   91SAPS   C34 8898   1.271   1.677   6.889  0.3012  0.8119  0.3945
   91SAPS   H4X 8899   1.203   1.639   6.968  0.6685  0.4928  0.5579
   91SAPS   H4Y 8900   1.257   1.787   6.879  1.6412  0.7701 -3.1396
   91SAPS   C35 8901   1.416   1.655   6.928  0.3720  0.1809 -0.6564
   91SAPS   H5X 8902   1.479   1.730   6.876 -0.6845  0.0083 -2.2518
   91SAPS   H5Y 8903   1.451   1.554   6.898  1.4559  0.5107 -0.5308
   91SAPS   C36 8904   1.445   1.662   7.077 -0.4201  0.2405 -0.1964
   91SAPS   H6X 8905   1.372   1.601   7.135 -0.6241  1.5263  0.9383
   91SAPS   H6Y 8906   1.434   1.764   7.120  0.8115  0.0654  0.5609
   91SAPS   C37 8907   1.579   1.608   7.124 -0.1627  0.4289  0.5767
   91SAPS   H7X 8908   1.667   1.661   7.080 -0.0108 -0.2996 -0.0098
   91SAPS   H7Y 8909   1.589   1.501   7.096  0.2201  0.8948 -1.2257
   91SAPS   C38 8910   1.612   1.623   7.278  0.2845  0.5008  0.1037
   91SAPS   H8X 8911   1.540   1.555   7.327  2.8446 -2.6175 -0.1114
   91SAPS   H8Y 8912   1.590   1.728   7.308 -1.3799  0.6230 -1.3828
   91SAPS   C39 8913   1.755   1.582   7.303  0.0410  0.4961  0.1085
   91SAPS   H9X 8914   1.825   1.660   7.267  0.6531 -0.3698 -0.6274
   91SAPS   H9Y 8915   1.777   1.482   7.260 -0.0081  0.4739  0.1337
   91SAPS  C310 8916   1.786   1.553   7.454  0.4371 -0.3367 -1.2791
   91SAPS  H10X 8917   1.887   1.510   7.472 -0.4050 -1.1078  2.2358
   91SAPS  H10Y 8918   1.718   1.470   7.484 -0.0854  1.1649  2.0607
   91SAPS  C311 8919   1.759   1.676   7.537  0.5112 -0.1271 -0.4738
   91SAPS  H11X 8920   1.649   1.692   7.547  0.3698 -0.8424 -0.8334
   91SAPS  H11Y 8921   1.812   1.766   7.499 -0.7394  0.3398 -1.1609
   91SAPS  C312 8922   1.815   1.653   7.687 -0.2066 -0.2606  0.0134
   91SAPS  H12X 8923   1.832   1.755   7.728  0.1935  0.0875 -0.9839
   91SAPS  H12Y 8924   1.910   1.599   7.667 -0.8988 -1.1521 -0.9879
   91SAPS  C313 8925   1.724   1.570   7.771 -0.1716  0.3931  0.0754
   91SAPS  H13X 8926   1.720   1.471   7.721 -2.1107  0.8971 -0.8599
   91SAPS  H13Y 8927   1.621   1.612   7.772  0.0083  0.8725 -0.7602
   91SAPS  C314 8928   1.772   1.561   7.921  0.6558 -0.1639  0.4838
   91SAPS  H14X 8929   1.760   1.660   7.968 -0.0804 -0.6578  1.3704
   91SAPS  H14Y 8930   1.875   1.521   7.937  0.2685  0.3003  5.9125
   91SAPS  C315 8931   1.687   1.460   8.003 -0.4544 -0.3019  0.5804
   91SAPS  H15X 8932   1.703   1.358   7.964  0.0715 -0.2779  0.7257
   91SAPS  H15Y 8933   1.577   1.475   7.995 -0.4378  0.3835  1.4226
   91SAPS  C316 8934   1.737   1.448   8.151 -0.4441 -0.2845  0.0968
   91SAPS  H16X 8935   1.721   1.540   8.211 -1.5705  0.3924 -1.1689
   91SAPS  H16Y 8936   1.843   1.415   8.142 -0.2479 -0.6845  3.1350
   91SAPS  C317 8937   1.661   1.345   8.238  0.3346  0.6586  0.3668
   91SAPS  H17X 8938   1.551   1.364   8.239  0.4719  1.5056  0.6945
   91SAPS  H17Y 8939   1.696   1.360   8.342 -0.8302  0.9261  0.7304
   91SAPS  C318 8940   1.686   1.198   8.188  0.1143  0.9350 -0.6966
   91SAPS  H18X 8941   1.630   1.179   8.093 -0.6797  0.4680 -0.1442
   91SAPS  H18Y 8942   1.656   1.122   8.263 -2.3968  2.9001  0.4576
   91SAPS  H18Z 8943   1.794   1.185   8.169 -0.2115  0.0388 -2.1064
   92SAPS     N 8944   1.123   5.127   5.977 -0.4486 -0.1902 -0.7997
   92SAPS   HN1 8945   1.037   5.112   6.032  0.2574  0.2122  0.4417
   92SAPS   HN2 8946   1.097   5.215   5.926 -0.4777  1.3074  1.6395
   92SAPS   HN3 8947   1.138   5.053   5.905  1.0804 -1.3890  0.6799
   92SAPS   C12 8948   1.242   5.145   6.070  0.1252  0.4294  0.2628
   92SAPS  H12A 8949   1.261   5.055   6.127  1.2006 -0.8739 -2.0105
   92SAPS   C13 8950   1.378   5.184   5.997  0.2516  0.4234  0.0747
   92SAPS  O13A 8951   1.383   5.209   5.875 -0.3243 -0.0256  0.2786
   92SAPS  O13B 8952   1.477   5.190   6.076 -0.4739 -0.2653  0.0114
   92SAPS   C11 8953   1.214   5.255   6.176  0.1007  0.3018  0.5694
   92SAPS  H11A 8954   1.216   5.362   6.145 -3.5601  0.6379  1.0154
   92SAPS  H11B 8955   1.295   5.242   6.250  0.2294 -0.4371  0.3085
   92SAPS     P 8956   1.061   5.281   6.382 -0.2542  0.4859  0.1165
   92SAPS   O13 8957   0.931   5.337   6.371  0.0165 -0.4105  0.3073
   92SAPS   O14 8958   1.083   5.165   6.473  0.0073  0.0814  0.0201
   92SAPS   O12 8959   1.086   5.223   6.237 -0.1647  0.2436 -0.4234
   92SAPS   O11 8960   1.159   5.401   6.413 -0.3795 -0.2391 -0.1353
   92SAPS    C1 8961   1.277   5.378   6.497  0.4642  0.4023  0.1872
   92SAPS    HA 8962   1.332   5.283   6.483 -1.7414 -0.7710 -1.0306
   92SAPS    HB 8963   1.353   5.455   6.472  0.7323 -0.3702 -1.4541
   92SAPS    C2 8964   1.237   5.388   6.648  0.3806 -0.1443 -0.3090
   92SAPS    HS 8965   1.143   5.329   6.660  0.2559 -0.0952 -0.9846
   92SAPS   O21 8966   1.212   5.527   6.681  0.1020  0.6165 -0.3419
   92SAPS   C21 8967   1.118   5.555   6.765 -1.1013 -0.1837 -0.2031
   92SAPS   O22 8968   1.049   5.482   6.831  0.1468  0.5997 -0.6241
   92SAPS   C22 8969   1.119   5.708   6.777  0.4801  0.5374  0.1479
   92SAPS   H2R 8970   1.185   5.741   6.859 -0.8728 -2.1415  2.4685
   92SAPS   H2S 8971   1.152   5.758   6.683  2.6909  0.0501  0.6183
   92SAPS    C3 8972   1.345   5.310   6.736 -0.5280  0.0238  0.5281
   92SAPS    HX 8973   1.441   5.359   6.708 -1.5188  1.7067 -0.0865
   92SAPS    HY 8974   1.350   5.205   6.700 -3.8781  0.1151 -0.5138
   92SAPS   O31 8975   1.318   5.326   6.875  0.8538  0.0480  0.1848
   92SAPS   C31 8976   1.212   5.264   6.929 -0.4712  0.2476  0.7005
   92SAPS   O32 8977   1.154   5.168   6.876  0.7154 -0.4269 -0.0215
   92SAPS   C32 8978   1.198   5.301   7.076 -0.1512  0.0168 -0.6609
   92SAPS   H2X 8979   1.145   5.399   7.082  2.7233  1.7740 -1.7774
   92SAPS   H2Y 8980   1.301   5.316   7.115 -1.1117  0.9198  1.7498
   92SAPS   C23 8981   0.972   5.763   6.810  0.6912  0.2494  0.3929
   92SAPS   H3R 8982   0.913   5.697   6.877  0.7029  0.3027  0.4566
   92SAPS   H3S 8983   0.919   5.774   6.713  0.4034 -0.0051  0.5174
   92SAPS   C24 8984   0.984   5.904   6.871 -0.0160 -0.6686  0.6191
   92SAPS   H4R 8985   0.886   5.957   6.868  0.0147 -0.6405 -0.0917
   92SAPS   H4S 8986   1.057   5.972   6.822  0.3867  0.3062  2.5007
   92SAPS   C25 8987   1.027   5.905   7.016 -0.3221 -1.2721 -0.2950
   92SAPS   H5R 8988   1.108   5.836   7.042 -0.4441 -1.3369 -0.0872
   92SAPS   C26 8989   0.970   5.980   7.112  0.6516 -0.4253 -0.6318
   92SAPS   H6R 8990   1.009   5.976   7.215 -1.4800 -0.6027  0.1976
   92SAPS   C27 8991   0.857   6.082   7.092 -0.2932  0.2130  0.3653
   92SAPS   H7R 8992   0.796   6.066   7.001  0.9900 -0.7990 -0.3516
   92SAPS   H7S 8993   0.898   6.185   7.089  2.6629 -0.7612  2.3519
   92SAPS   C28 8994   0.775   6.078   7.213  0.2401 -0.1616  0.5274
   92SAPS   H8R 8995   0.698   6.001   7.200  0.1519  0.4079 -3.6453
   92SAPS   C29 8996   0.773   6.150   7.327 -0.2743 -0.1389 -0.4147
   92SAPS   H9R 8997   0.687   6.137   7.395 -0.3555  1.1089 -0.2621
   92SAPS  C210 8998   0.874   6.255   7.356 -0.3611  0.1637 -0.0040
   92SAPS  H10R 8999   0.952   6.273   7.279  0.0890  1.4062  0.7187
   92SAPS  H10S 9000   0.931   6.226   7.447  1.9167 -0.7004 -1.5982
   92SAPS  C211 9001   0.802   6.388   7.391  0.3360  0.0589  0.2317
   92SAPS  H11R 9002   0.782   6.449   7.302  2.7035 -2.3269 -2.1278
   92SAPS  C212 9003   0.764   6.437   7.512  0.0087 -0.1545  0.2758
   92SAPS  H12R 9004   0.705   6.529   7.518 -0.5834 -0.5163  0.0640
   92SAPS  C213 9005   0.794   6.384   7.651 -0.1824  0.6632  0.8860
   92SAPS  H13R 9006   0.768   6.275   7.649 -1.1826  0.8314 -2.3433
   92SAPS  H13S 9007   0.732   6.438   7.725 -0.6012 -0.0652  1.0753
   92SAPS  C214 9008   0.935   6.407   7.690 -0.2235  0.6621 -0.1343
   92SAPS  H14R 9009   1.009   6.387   7.612 -1.4695 -0.4194 -1.0909
   92SAPS  C215 9010   0.984   6.455   7.809  0.3245  0.1560  0.2347
   92SAPS  H15R 9011   1.093   6.464   7.821  0.3594  0.4306 -0.2450
   92SAPS  C216 9012   0.897   6.485   7.924  0.4162  0.7478 -0.0145
   92SAPS  H16R 9013   0.927   6.417   8.007  1.0425  0.0913 -0.7668
   92SAPS  H16S 9014   0.793   6.451   7.903  1.0247 -2.0174  0.9335
   92SAPS  C217 9015   0.915   6.625   7.979  0.8255 -0.1459 -0.6787
   92SAPS  H17R 9016   0.837   6.641   8.056  3.5567  3.2804  1.6995
   92SAPS  H17S 9017   0.899   6.698   7.897  1.7380  1.9810  0.9618
   92SAPS  C218 9018   1.053   6.652   8.047  0.4075  0.0986  0.2729
   92SAPS  H18R 9019   1.131   6.636   7.970 -1.1126  1.2042 -1.5777
   92SAPS  H18S 9020   1.065   6.579   8.130 -3.0491 -0.4505  0.4385
   92SAPS  C219 9021   1.070   6.788   8.099 -1.0053  0.2724  0.0961
   92SAPS  H19R 9022   1.026   6.790   8.201 -0.8809  0.5005  0.1453
   92SAPS  H19S 9023   1.019   6.862   8.034 -0.0285  1.1215  0.2734
   92SAPS  C220 9024   1.220   6.821   8.117  0.5299  0.2222  0.0034
   92SAPS  H20R 9025   1.247   6.925   8.145 -0.4211  0.1508  1.3099
   92SAPS  H20S 9026   1.281   6.791   8.030  2.6606  0.8705  1.1991
   92SAPS  H20T 9027   1.258   6.758   8.201 -0.7911  0.3358  0.7197
   92SAPS   C33 9028   1.132   5.200   7.165  0.6107  0.4807  0.0017
   92SAPS   H3X 9029   1.179   5.100   7.149 -0.5519 -0.0844 -0.0079
   92SAPS   H3Y 9030   1.029   5.173   7.133  0.9943 -1.7721  0.4509
   92SAPS   C34 9031   1.119   5.233   7.316  0.4649  0.7120  0.6451
   92SAPS   H4X 9032   1.063   5.328   7.319  0.5837  0.7926  0.3630
   92SAPS   H4Y 9033   1.223   5.237   7.356  1.3304  0.2803 -1.3767
   92SAPS   C35 9034   1.040   5.131   7.398  0.5055 -0.6133  0.2377
   92SAPS   H5X 9035   1.076   5.028   7.380 -0.8786 -1.4726  2.0633
   92SAPS   H5Y 9036   0.935   5.132   7.364  0.7425  0.3395 -0.5284
   92SAPS   C36 9037   1.056   5.154   7.550 -0.2672 -0.1268  0.8016
   92SAPS   H6X 9038   1.164   5.166   7.573  0.3804  0.2709 -2.1019
   92SAPS   H6Y 9039   1.023   5.065   7.608  0.5103 -0.1707  1.1985
   92SAPS   C37 9040   0.983   5.272   7.608  1.2326 -0.0556 -0.1950
   92SAPS   H7X 9041   0.873   5.261   7.599  1.2376 -0.3277  0.0456
   92SAPS   H7Y 9042   1.018   5.362   7.553 -0.6180  0.4187 -0.6561
   92SAPS   C38 9043   1.018   5.283   7.761  1.0035  0.0626 -0.2172
   92SAPS   H8X 9044   1.123   5.316   7.773  1.0536 -0.4865  1.0399
   92SAPS   H8Y 9045   1.012   5.180   7.802  1.3779  0.2280  0.2655
   92SAPS   C39 9046   0.934   5.382   7.836  0.0264 -0.0563  0.1686
   92SAPS   H9X 9047   0.839   5.329   7.859  1.9307 -2.3282  3.7378
   92SAPS   H9Y 9048   0.915   5.473   7.776 -0.3672 -0.0922  0.2322
   92SAPS  C310 9049   0.990   5.434   7.973  0.0205  0.6450  0.8303
   92SAPS  H10X 9050   1.088   5.485   7.964 -0.0195  0.4840 -0.9814
   92SAPS  H10Y 9051   1.011   5.344   8.035 -3.0943 -0.2666  0.6930
   92SAPS  C311 9052   0.887   5.506   8.056 -0.0231  0.2194 -0.0171
   92SAPS  H11X 9053   0.815   5.427   8.086 -0.6373  0.3018 -1.2147
   92SAPS  H11Y 9054   0.828   5.573   7.990 -0.1479 -0.4701 -0.6171
   92SAPS  C312 9055   0.944   5.584   8.174 -0.5310 -0.1687 -0.1230
   92SAPS  H12X 9056   1.009   5.661   8.127  1.6273 -1.7141  0.1944
   92SAPS  H12Y 9057   1.007   5.522   8.241  0.1531  0.8199  0.1653
   92SAPS  C313 9058   0.831   5.663   8.235 -0.0841  0.0459 -0.0472
   92SAPS  H13X 9059   0.766   5.587   8.283  1.1007 -1.1086 -0.2022
   92SAPS  H13Y 9060   0.782   5.723   8.156 -0.7853 -0.6761 -0.1748
   92SAPS  C314 9061   0.882   5.757   8.348  0.4395  0.0847  1.2731
   92SAPS  H14X 9062   0.974   5.811   8.315 -0.4736  0.2259 -1.2561
   92SAPS  H14Y 9063   0.914   5.690   8.430  0.4667  0.0234  1.2126
   92SAPS  C315 9064   0.769   5.847   8.410 -0.5096  0.2844  0.6856
   92SAPS  H15X 9065   0.720   5.908   8.331 -1.2704  2.8764  3.0041
   92SAPS  H15Y 9066   0.818   5.917   8.480 -0.7076 -1.0774  2.2655
   92SAPS  C316 9067   0.664   5.756   8.478 -0.8270  0.3791  0.0843
   92SAPS  H16X 9068   0.715   5.696   8.556  0.0474 -0.1352 -0.8601
   92SAPS  H16Y 9069   0.624   5.679   8.409  0.6382 -0.4969  0.1872
   92SAPS  C317 9070   0.556   5.847   8.537  0.4646  0.2093 -0.1329
   92SAPS  H17X 9071   0.535   5.925   8.461  2.8907  1.5274  0.4389
   92SAPS  H17Y 9072   0.606   5.910   8.614  1.3382 -0.5985 -0.0301
   92SAPS  C318 9073   0.433   5.777   8.599 -0.3000  0.5390  0.1924
   92SAPS  H18X 9074   0.429   5.800   8.708 -1.3303 -1.3841  0.6068
   92SAPS  H18Y 9075   0.433   5.667   8.579  1.1054  0.6561 -0.6126
   92SAPS  H18Z 9076   0.349   5.815   8.538  0.0679 -0.4607 -0.9843
   93SAPS     N 9077   1.292   6.698   6.260  0.0801  0.6163  0.3321
   93SAPS   HN1 9078   1.334   6.718   6.168  1.4801 -1.3777  0.4592
   93SAPS   HN2 9079   1.189   6.686   6.260 -0.1432  2.1523  1.6694
   93SAPS   HN3 9080   1.321   6.775   6.324  2.2878 -0.5188  0.7993
   93SAPS   C12 9081   1.355   6.572   6.309 -0.7665  0.5189 -0.0644
   93SAPS  H12A 9082   1.361   6.580   6.416  0.6952 -2.1543  0.1575
   93SAPS   C13 9083   1.274   6.441   6.282 -0.7112  0.5441 -0.8699
   93SAPS  O13A 9084   1.162   6.455   6.226 -0.4840 -0.1390 -0.6217
   93SAPS  O13B 9085   1.324   6.326   6.307 -0.0250  0.0471  0.1897
   93SAPS   C11 9086   1.483   6.556   6.226 -1.0723  0.3260  0.2411
   93SAPS  H11A 9087   1.472   6.544   6.116  0.4304  1.9480 -0.1419
   93SAPS  H11B 9088   1.519   6.457   6.261  0.7379 -0.0849 -2.4511
   93SAPS     P 9089   1.709   6.664   6.321 -0.2158 -0.0405 -0.5306
   93SAPS   O13 9090   1.778   6.533   6.337  0.3890  0.3434  0.2739
   93SAPS   O14 9091   1.799   6.767   6.261  0.1797 -0.5310  0.3617
   93SAPS   O12 9092   1.577   6.661   6.243 -0.6266  0.1202 -0.0609
   93SAPS   O11 9093   1.677   6.721   6.471  0.1617 -0.3966  0.3915
   93SAPS    C1 9094   1.740   6.675   6.589 -0.0690 -0.0746  0.0522
   93SAPS    HA 9095   1.834   6.619   6.572 -1.0655 -1.8225  0.1056
   93SAPS    HB 9096   1.762   6.771   6.642 -1.7682 -0.3651  1.3788
   93SAPS    C2 9097   1.644   6.600   6.682 -0.2500  0.0372  0.4806
   93SAPS    HS 9098   1.595   6.522   6.620 -3.3899  2.4933 -0.3680
   93SAPS   O21 9099   1.553   6.694   6.734  0.8025  0.1676 -0.2492
   93SAPS   C21 9100   1.436   6.640   6.774 -1.1825  0.2887 -0.3941
   93SAPS   O22 9101   1.399   6.523   6.755 -0.4167 -0.8522  0.1017
   93SAPS   C22 9102   1.360   6.748   6.855  0.2521 -0.0858 -1.0484
   93SAPS   H2R 9103   1.389   6.852   6.831 -0.1342  0.1898 -0.3430
   93SAPS   H2S 9104   1.253   6.728   6.832 -0.7678 -1.0392  3.5279
   93SAPS    C3 9105   1.718   6.514   6.786 -0.0600  1.1679  0.4158
   93SAPS    HX 9106   1.786   6.583   6.842  0.2862 -0.3116  1.9156
   93SAPS    HY 9107   1.778   6.442   6.726 -1.0956  0.4113  0.2690
   93SAPS   O31 9108   1.629   6.457   6.880  0.4422  0.6379  0.2120
   93SAPS   C31 9109   1.581   6.336   6.852  0.1192  0.6151  0.6820
   93SAPS   O32 9110   1.603   6.278   6.744  0.8083 -0.4207 -0.4676
   93SAPS   C32 9111   1.495   6.279   6.968 -0.0088 -0.3670 -0.3612
   93SAPS   H2X 9112   1.403   6.239   6.920  0.1329 -0.9123 -0.1860
   93SAPS   H2Y 9113   1.469   6.370   7.026  0.9380  0.0048 -0.4998
   93SAPS   C23 9114   1.386   6.714   7.007 -0.3025  1.0668  0.4627
   93SAPS   H3R 9115   1.373   6.604   7.015  0.1939  0.5062 -3.9423
   93SAPS   H3S 9116   1.307   6.754   7.073  1.3397  0.5073  2.8716
   93SAPS   C24 9117   1.526   6.753   7.055 -0.1137  0.4360  0.3643
   93SAPS   H4R 9118   1.548   6.851   7.008 -0.7091  1.4277  2.0819
   93SAPS   H4S 9119   1.603   6.683   7.017 -0.7654  0.1564 -0.4725
   93SAPS   C25 9120   1.519   6.778   7.203 -0.5657 -0.2958  0.0184
   93SAPS   H5R 9121   1.486   6.876   7.240  0.8312 -0.2710  1.2809
   93SAPS   C26 9122   1.553   6.691   7.301 -0.6019  0.8720 -0.7081
   93SAPS   H6R 9123   1.578   6.734   7.399  1.0388 -0.6005 -0.4393
   93SAPS   C27 9124   1.600   6.548   7.271  0.1007  0.5772 -0.4097
   93SAPS   H7R 9125   1.681   6.551   7.195 -0.0386  1.7586 -0.5221
   93SAPS   H7S 9126   1.527   6.504   7.200 -1.0791  1.4363  0.2381
   93SAPS   C28 9127   1.621   6.455   7.388  0.1823 -0.6040 -0.4724
   93SAPS   H8R 9128   1.525   6.415   7.424  0.1737  0.0628  0.2524
   93SAPS   C29 9129   1.736   6.420   7.444 -0.4047  1.0163  0.4525
   93SAPS   H9R 9130   1.757   6.358   7.533  6.0297  1.1342 -0.5019
   93SAPS  C210 9131   1.875   6.473   7.405 -0.3903 -0.0628 -0.1815
   93SAPS  H10R 9132   1.864   6.555   7.331  1.1536  0.2946 -0.0391
   93SAPS  H10S 9133   1.941   6.403   7.349  1.3804  1.8815 -0.6421
   93SAPS  C211 9134   1.952   6.528   7.528 -0.0977  0.0153  0.4646
   93SAPS  H11R 9135   1.897   6.599   7.591 -0.8830  0.7204 -0.9551
   93SAPS  C212 9136   2.073   6.491   7.569  0.3379 -0.3202 -1.0091
   93SAPS  H12R 9137   2.117   6.537   7.659 -1.7997 -1.0834  0.4904
   93SAPS  C213 9138   2.153   6.397   7.485  0.4794 -0.3025 -0.3259
   93SAPS  H13R 9139   2.154   6.427   7.378  1.3892  1.7217  0.2084
   93SAPS  H13S 9140   2.101   6.299   7.492  0.1612 -0.5810 -4.3389
   93SAPS  C214 9141   2.298   6.381   7.527  0.5633  0.5941  0.3354
   93SAPS  H14R 9142   2.375   6.411   7.455  2.4009 -1.2437  1.4338
   93SAPS  C215 9143   2.335   6.325   7.642 -0.0131  0.5439 -0.0127
   93SAPS  H15R 9144   2.441   6.339   7.667 -0.6248  2.0878  2.0344
   93SAPS  C216 9145   2.251   6.256   7.746 -0.1429 -0.4896 -0.0295
   93SAPS  H16R 9146   2.292   6.156   7.774 -2.4164 -1.5176 -0.1293
   93SAPS  H16S 9147   2.147   6.240   7.711  0.0223 -1.1395 -0.2505
   93SAPS  C217 9148   2.240   6.338   7.879  0.1872 -0.0047  0.6758
   93SAPS  H17R 9149   2.180   6.430   7.863  3.7632  2.5073  0.6298
   93SAPS  H17S 9150   2.342   6.375   7.901  1.0177 -0.4273 -2.0928
   93SAPS  C218 9151   2.198   6.265   8.006 -0.5221  0.1400  0.2793
   93SAPS  H18R 9152   2.249   6.166   8.005 -0.7117 -0.0561  3.0077
   93SAPS  H18S 9153   2.091   6.238   7.989 -1.4902  2.8254  1.5273
   93SAPS  C219 9154   2.224   6.332   8.136  0.1233  0.2778  0.3646
   93SAPS  H19R 9155   2.324   6.308   8.175  0.5690  0.0002 -0.9034
   93SAPS  H19S 9156   2.151   6.301   8.214 -1.3923  1.2485 -0.6001
   93SAPS  C220 9157   2.231   6.489   8.123 -0.0324 -0.7047 -0.6016
   93SAPS  H20R 9158   2.311   6.530   8.058 -0.2131  2.3326  0.9398
   93SAPS  H20S 9159   2.242   6.513   8.231  0.8340 -5.0972  0.5032
   93SAPS  H20T 9160   2.137   6.530   8.080 -0.4641  0.6634  1.4715
   93SAPS   C33 9161   1.560   6.173   7.054  0.0813 -0.0997 -0.8014
   93SAPS   H3X 9162   1.645   6.213   7.113  0.5685 -1.8938 -0.2150
   93SAPS   H3Y 9163   1.598   6.090   6.990  2.1422 -0.9989  1.4105
   93SAPS   C34 9164   1.457   6.100   7.143 -0.3974  0.2176  0.6297
   93SAPS   H4X 9165   1.503   6.012   7.192  0.2750 -0.0483 -0.4309
   93SAPS   H4Y 9166   1.381   6.057   7.074  2.2800 -0.5128 -2.0757
   93SAPS   C35 9167   1.397   6.188   7.250  0.6292  0.2244 -0.3147
   93SAPS   H5X 9168   1.361   6.280   7.199  1.2322  0.5364 -0.1841
   93SAPS   H5Y 9169   1.483   6.225   7.310  0.6271 -0.2523 -0.0154
   93SAPS   C36 9170   1.293   6.108   7.329 -0.7314 -1.0129 -0.1512
   93SAPS   H6X 9171   1.343   6.015   7.364 -0.1899 -0.3925  0.7615
   93SAPS   H6Y 9172   1.210   6.071   7.266 -1.0531  1.2718 -1.1293
   93SAPS   C37 9173   1.247   6.176   7.457  0.2969 -0.5041 -0.5804
   93SAPS   H7X 9174   1.171   6.123   7.517  0.3915  1.6350  1.5882
   93SAPS   H7Y 9175   1.213   6.278   7.430  0.1496  0.8583  3.8861
   93SAPS   C38 9176   1.364   6.206   7.558  0.1356  0.6753 -0.2149
   93SAPS   H8X 9177   1.436   6.282   7.520  0.4721  1.5903  2.1050
   93SAPS   H8Y 9178   1.419   6.111   7.575  0.2872  0.3760 -2.1217
   93SAPS   C39 9179   1.309   6.251   7.695  0.0562  0.1350 -0.0600
   93SAPS   H9X 9180   1.249   6.165   7.730 -3.3177  2.3219 -0.0655
   93SAPS   H9Y 9181   1.240   6.338   7.685  0.8924  0.7643 -0.5115
   93SAPS  C310 9182   1.411   6.288   7.798  0.0735 -0.3160 -0.8552
   93SAPS  H10X 9183   1.486   6.358   7.756  0.5139  1.0236  1.9712
   93SAPS  H10Y 9184   1.466   6.196   7.825 -0.1855 -0.1069  0.4345
   93SAPS  C311 9185   1.343   6.336   7.926 -0.1926 -0.4101  0.2524
   93SAPS  H11X 9186   1.265   6.258   7.936 -2.1266  1.0767 -2.0431
   93SAPS  H11Y 9187   1.288   6.432   7.916 -1.7962 -1.3182  0.0109
   93SAPS  C312 9188   1.429   6.349   8.056 -0.2611 -0.7133  0.7995
   93SAPS  H12X 9189   1.522   6.404   8.029  1.3637 -2.1201  3.1612
   93SAPS  H12Y 9190   1.460   6.244   8.078 -0.4215 -0.4692  2.3166
   93SAPS  C313 9191   1.358   6.426   8.168 -0.5220  0.2139 -0.7397
   93SAPS  H13X 9192   1.269   6.365   8.195 -0.0037  0.9064  3.2102
   93SAPS  H13Y 9193   1.319   6.528   8.149  0.7859  1.3585  2.1097
   93SAPS  C314 9194   1.446   6.424   8.296 -0.3017  0.3864 -0.2082
   93SAPS  H14X 9195   1.545   6.464   8.265  0.6956 -2.0135 -0.3334
   93SAPS  H14Y 9196   1.455   6.318   8.327  1.9574  0.9575  1.3423
   93SAPS  C315 9197   1.383   6.507   8.413  0.2705  0.0307 -0.0081
   93SAPS  H15X 9198   1.380   6.618   8.402  0.2772  0.2118  1.6249
   93SAPS  H15Y 9199   1.447   6.479   8.499 -0.6153 -0.8309  0.3998
   93SAPS  C316 9200   1.246   6.455   8.452  0.1096  0.4028  0.2019
   93SAPS  H16X 9201   1.248   6.345   8.435  0.3308  0.6044 -1.1563
   93SAPS  H16Y 9202   1.165   6.511   8.401  0.0750 -0.1287 -0.3384
   93SAPS  C317 9203   1.225   6.475   8.605  0.2183 -0.2018 -0.1999
   93SAPS  H17X 9204   1.239   6.585   8.619 -0.4120  0.0738 -1.6227
   93SAPS  H17Y 9205   1.294   6.412   8.666 -0.5580 -0.7192  0.1608
   93SAPS  C318 9206   1.081   6.439   8.642  0.2454  0.1853 -0.1959
   93SAPS  H18X 9207   1.065   6.330   8.633 -0.1877 -0.0487  2.5270
   93SAPS  H18Y 9208   1.013   6.509   8.589 -0.8658  0.1555  1.1377
   93SAPS  H18Z 9209   1.055   6.471   8.745  1.6408 -1.6832  0.7927
   94SAPS     N 9210   1.657   1.775   5.655 -0.2145 -0.0938 -0.0784
   94SAPS   HN1 9211   1.663   1.874   5.689  0.2546 -0.8186  2.1302
   94SAPS   HN2 9212   1.752   1.735   5.669 -0.3850  0.1514  2.2204
   94SAPS   HN3 9213   1.651   1.760   5.553  2.1520 -0.3875 -0.2293
   94SAPS   C12 9214   1.574   1.697   5.753 -0.1259  0.3317  0.6024
   94SAPS  H12A 9215   1.605   1.727   5.852  0.1800  0.5520  0.4394
   94SAPS   C13 9216   1.414   1.709   5.747 -0.0371 -0.6649  0.1637
   94SAPS  O13A 9217   1.364   1.783   5.655 -0.7191  0.1187  0.0758
   94SAPS  O13B 9218   1.337   1.655   5.825  0.2473  0.0304  0.5025
   94SAPS   C11 9219   1.612   1.548   5.728  0.4467 -0.2021 -0.6710
   94SAPS  H11A 9220   1.586   1.521   5.624 -0.6704 -0.9649 -0.2171
   94SAPS  H11B 9221   1.551   1.495   5.805  0.7414 -3.6570 -2.6324
   94SAPS     P 9222   1.823   1.461   5.855  0.3873  0.5960  0.1454
   94SAPS   O13 9223   1.958   1.412   5.809 -0.1345  0.5853 -0.3714
   94SAPS   O14 9224   1.821   1.568   5.957 -0.4751  0.1703 -0.1413
   94SAPS   O12 9225   1.755   1.539   5.739 -0.2670  0.4362  0.6606
   94SAPS   O11 9226   1.736   1.334   5.885 -0.1554 -0.1539  0.4624
   94SAPS    C1 9227   1.629   1.326   5.980 -0.4429  0.1009 -0.7248
   94SAPS    HA 9228   1.597   1.425   6.018 -1.9797 -1.0477  1.1514
   94SAPS    HB 9229   1.543   1.285   5.922  0.9389 -0.6065 -2.3661
   94SAPS    C2 9230   1.665   1.225   6.089  0.4603 -0.4062 -0.2642
   94SAPS    HS 9231   1.568   1.195   6.134 -0.2634  1.2926 -0.6203
   94SAPS   O21 9232   1.760   1.281   6.185 -0.0705 -0.4149 -0.4292
   94SAPS   C21 9233   1.708   1.362   6.280  0.2144 -0.8167  0.9266
   94SAPS   O22 9234   1.583   1.377   6.289 -1.1504  0.5384 -0.5780
   94SAPS   C22 9235   1.811   1.446   6.358  0.1204 -0.3622 -0.2346
   94SAPS   H2R 9236   1.900   1.465   6.294 -0.7240  1.9891 -0.7957
   94SAPS   H2S 9237   1.759   1.541   6.380 -1.0915 -1.1036  0.1839
   94SAPS    C3 9238   1.725   1.093   6.016 -0.6803 -0.6476 -0.4610
   94SAPS    HX 9239   1.813   1.124   5.956 -0.5588 -2.0780 -1.0627
   94SAPS    HY 9240   1.646   1.055   5.947 -0.5389  0.8059 -1.4769
   94SAPS   O31 9241   1.764   1.001   6.118 -0.0379 -0.3381 -0.1811
   94SAPS   C31 9242   1.665   0.928   6.167 -0.6828  0.3268  0.1437
   94SAPS   O32 9243   1.548   0.936   6.132  0.1977  0.2029  0.0032
   94SAPS   C32 9244   1.727   0.828   6.267 -0.0579  0.3186 -0.3295
   94SAPS   H2X 9245   1.773   0.887   6.349  1.7842  0.0136 -1.1023
   94SAPS   H2Y 9246   1.806   0.774   6.211 -1.4248 -2.1762 -0.0175
   94SAPS   C23 9247   1.870   1.361   6.478  0.1186 -0.0049 -0.8239
   94SAPS   H3R 9248   1.972   1.402   6.498  0.1425 -0.1751 -0.5946
   94SAPS   H3S 9249   1.886   1.255   6.449  0.8195 -0.4345  0.9945
   94SAPS   C24 9250   1.778   1.373   6.599  0.0157  0.0328 -0.8299
   94SAPS   H4R 9251   1.821   1.310   6.679  0.1149  0.4749 -0.5331
   94SAPS   H4S 9252   1.681   1.325   6.573 -0.8027  1.1291  0.1229
   94SAPS   C25 9253   1.738   1.511   6.645 -0.3223  0.6498 -0.4366
   94SAPS   H5R 9254   1.651   1.549   6.589  0.8502  0.0638 -2.8080
   94SAPS   C26 9255   1.782   1.584   6.753  0.0012 -0.0217  0.2067
   94SAPS   H6R 9256   1.735   1.683   6.769  1.5396  0.8525 -0.4888
   94SAPS   C27 9257   1.881   1.536   6.850 -0.2158 -0.2416 -0.7361
   94SAPS   H7R 9258   1.848   1.447   6.908 -2.3851  1.3989  0.6909
   94SAPS   H7S 9259   1.893   1.620   6.922 -3.9449  0.9891 -1.3268
   94SAPS   C28 9260   2.020   1.512   6.792 -0.7196  0.4576 -0.4338
   94SAPS   H8R 9261   2.021   1.536   6.684 -1.1365  3.5707  0.1634
   94SAPS   C29 9262   2.136   1.482   6.861  0.0206  0.3369  0.2906
   94SAPS   H9R 9263   2.230   1.471   6.805  1.0903 -0.8631  2.2285
   94SAPS  C210 9264   2.153   1.455   7.014  0.3889 -0.0176  0.5204
   94SAPS  H10R 9265   2.102   1.357   7.021 -1.2685  0.6272 -1.6425
   94SAPS  H10S 9266   2.076   1.517   7.066 -2.9292 -2.1543 -1.4486
   94SAPS  C211 9267   2.296   1.476   7.070  0.0038  0.2496  0.4694
   94SAPS  H11R 9268   2.372   1.515   7.000 -0.2666  1.5169  0.8437
   94SAPS  C212 9269   2.330   1.489   7.202  0.4508 -0.1546  0.0104
   94SAPS  H12R 9270   2.435   1.480   7.236 -0.3726 -3.5936  2.1216
   94SAPS  C213 9271   2.236   1.472   7.323  0.1356 -0.4461  0.3990
   94SAPS  H13R 9272   2.255   1.386   7.391 -1.9085 -0.8673  0.5018
   94SAPS  H13S 9273   2.138   1.449   7.277 -0.3568  0.0535  1.1743
   94SAPS  C214 9274   2.199   1.597   7.405 -0.7468  0.7371  0.4478
   94SAPS  H14R 9275   2.177   1.690   7.351  0.3593  1.3127  0.9519
   94SAPS  C215 9276   2.202   1.607   7.539 -0.0023  0.4623 -0.1014
   94SAPS  H15R 9277   2.176   1.701   7.590  0.4803  0.4740  0.1226
   94SAPS  C216 9278   2.237   1.496   7.642 -0.1946 -0.6797  0.5251
   94SAPS  H16R 9279   2.226   1.403   7.581 -1.8998  2.0807 -3.9396
   94SAPS  H16S 9280   2.162   1.494   7.724 -0.5146 -0.2964  0.2463
   94SAPS  C217 9281   2.382   1.510   7.688  0.2701 -0.0735  0.1472
   94SAPS  H17R 9282   2.397   1.611   7.733 -0.3476 -0.2856  0.8498
   94SAPS  H17S 9283   2.433   1.503   7.590 -0.2497  1.0641 -0.2126
   94SAPS  C218 9284   2.423   1.404   7.788 -0.8594 -0.2572 -0.4758
   94SAPS  H18R 9285   2.530   1.376   7.792  0.0711  2.9608 -0.1338
   94SAPS  H18S 9286   2.362   1.312   7.769 -2.4861  0.1854  2.0857
   94SAPS  C219 9287   2.380   1.425   7.937 -0.1949 -0.3601  0.5754
   94SAPS  H19R 9288   2.405   1.331   7.991  0.0294 -1.0684 -0.7420
   94SAPS  H19S 9289   2.272   1.445   7.956 -0.3144 -0.3369 -0.1036
   94SAPS  C220 9290   2.473   1.533   8.002  0.0791 -0.3853  0.5111
   94SAPS  H20R 9291   2.576   1.505   7.973  0.4827  1.1444  0.3740
   94SAPS  H20S 9292   2.455   1.530   8.112  0.6593 -1.6174  0.5850
   94SAPS  H20T 9293   2.456   1.631   7.952 -1.1343 -0.5484  0.5613
   94SAPS   C33 9294   1.618   0.732   6.328  0.1583 -0.0684 -0.2967
   94SAPS   H3X 9295   1.565   0.680   6.246  0.6532  1.1667 -1.4402
   94SAPS   H3Y 9296   1.548   0.795   6.388  0.1689 -1.3846  1.1603
   94SAPS   C34 9297   1.667   0.625   6.423  0.5302 -0.5896  0.2838
   94SAPS   H4X 9298   1.738   0.555   6.374  0.5794 -0.6185  0.3962
   94SAPS   H4Y 9299   1.577   0.564   6.447  0.9477 -1.6737 -0.7817
   94SAPS   C35 9300   1.737   0.671   6.552  0.0098 -0.3566 -0.0373
   94SAPS   H5X 9301   1.677   0.750   6.603  0.4046  0.5569 -0.9563
   94SAPS   H5Y 9302   1.839   0.713   6.541  0.3548 -0.8928  0.9700
   94SAPS   C36 9303   1.765   0.549   6.641 -0.1103 -0.3021  0.5455
   94SAPS   H6X 9304   1.844   0.494   6.585 -1.5440 -0.0611 -1.8874
   94SAPS   H6Y 9305   1.675   0.484   6.632 -1.1564  1.2196 -0.6907
   94SAPS   C37 9306   1.800   0.571   6.786 -0.4221 -0.7029 -0.1774
   94SAPS   H7X 9307   1.890   0.637   6.791 -1.2590  0.3837  1.1429
   94SAPS   H7Y 9308   1.825   0.476   6.837  1.2689  0.3897  1.1382
   94SAPS   C38 9309   1.690   0.648   6.865 -0.1750  0.3328 -0.0851
   94SAPS   H8X 9310   1.591   0.596   6.867 -0.3645  0.7090  0.4573
   94SAPS   H8Y 9311   1.671   0.747   6.818  0.3482  0.5326  0.1196
   94SAPS   C39 9312   1.734   0.666   7.007 -0.9422 -0.6276 -0.9756
   94SAPS   H9X 9313   1.839   0.703   6.997 -1.4644  0.7880 -1.4477
   94SAPS   H9Y 9314   1.739   0.578   7.073 -1.7337  0.0935  0.0699
   94SAPS  C310 9315   1.660   0.770   7.092 -0.7068  0.4366  0.5325
   94SAPS  H10X 9316   1.553   0.760   7.066 -0.3243  2.2372 -2.1679
   94SAPS  H10Y 9317   1.704   0.868   7.060  0.5146 -0.8119 -1.8907
   94SAPS  C311 9318   1.680   0.745   7.242 -0.0005  0.5130 -0.6779
   94SAPS  H11X 9319   1.785   0.757   7.275  0.3038 -2.3242 -0.3904
   94SAPS  H11Y 9320   1.657   0.637   7.256  1.8357  0.1799  0.0047
   94SAPS  C312 9321   1.590   0.811   7.346 -0.2521  0.1939 -0.0643
   94SAPS  H12X 9322   1.496   0.751   7.355 -0.5232  0.6868  0.4805
   94SAPS  H12Y 9323   1.549   0.907   7.306  1.7758  1.6034  1.0662
   94SAPS  C313 9324   1.661   0.821   7.481  0.6711  0.4372 -0.2385
   94SAPS  H13X 9325   1.724   0.912   7.478  1.2256  0.0554 -0.2336
   94SAPS  H13Y 9326   1.734   0.741   7.506  0.1109  0.0194  0.1022
   94SAPS  C314 9327   1.564   0.851   7.594 -0.5220  0.0393  0.3991
   94SAPS  H14X 9328   1.492   0.767   7.602  2.2579 -2.3958  2.1417
   94SAPS  H14Y 9329   1.515   0.949   7.575  0.4272  0.2597 -1.0194
   94SAPS  C315 9330   1.632   0.857   7.733  0.3531 -0.2386 -1.0538
   94SAPS  H15X 9331   1.710   0.936   7.724 -0.0600 -0.0507 -3.5959
   94SAPS  H15Y 9332   1.668   0.754   7.750 -0.4917 -0.1417  1.7627
   94SAPS  C316 9333   1.549   0.903   7.852  0.8168 -0.4845 -0.6850
   94SAPS  H16X 9334   1.508   1.000   7.816 -0.5903 -0.8112 -0.0320
   94SAPS  H16Y 9335   1.606   0.921   7.945 -1.6743  0.4494  0.7643
   94SAPS  C317 9336   1.435   0.800   7.878  0.8087  0.5053  0.0611
   94SAPS  H17X 9337   1.479   0.703   7.908 -0.9131 -0.1312  0.6373
   94SAPS  H17Y 9338   1.363   0.783   7.795  0.3392  1.7467  0.1878
   94SAPS  C318 9339   1.333   0.844   7.991  0.2450  0.9430  0.0776
   94SAPS  H18X 9340   1.377   0.871   8.090  0.0738 -1.9964  1.0507
   94SAPS  H18Y 9341   1.259   0.761   7.990 -0.5491  1.6178  0.6328
   94SAPS  H18Z 9342   1.287   0.934   7.944  2.4122  0.4529 -3.3258
   95SAPS     N 9343   4.040   4.738   6.293  0.0001  0.0046 -0.5713
   95SAPS   HN1 9344   3.952   4.727   6.238  0.2013  1.6994 -1.2848
   95SAPS   HN2 9345   4.037   4.659   6.362 -0.2972 -1.0437 -1.7440
   95SAPS   HN3 9346   4.034   4.831   6.339  0.3361  0.5629 -1.6203
   95SAPS   C12 9347   4.158   4.724   6.203 -0.3667 -0.5758 -0.0646
   95SAPS  H12A 9348   4.253   4.733   6.252 -0.8095  1.2264  0.5369
   95SAPS   C13 9349   4.155   4.586   6.121 -0.0207  0.3083 -0.8433
   95SAPS  O13A 9350   4.046   4.528   6.110  0.2018 -0.1487  0.2061
   95SAPS  O13B 9351   4.256   4.554   6.054  0.5570  0.4113  0.1292
   95SAPS   C11 9352   4.167   4.838   6.100 -0.0350 -0.5213 -0.7570
   95SAPS  H11A 9353   4.073   4.847   6.041 -0.8498  2.9767  0.8132
   95SAPS  H11B 9354   4.249   4.809   6.032  1.6292  0.5594  0.7127
   95SAPS     P 9355   4.284   5.075   6.110 -0.1496  0.2878  0.0061
   95SAPS   O13 9356   4.374   5.018   6.011 -0.3131 -0.4361 -0.0380
   95SAPS   O14 9357   4.203   5.191   6.081  0.0061  0.0714  0.2119
   95SAPS   O12 9358   4.183   4.964   6.164 -0.5597 -0.0556 -0.1339
   95SAPS   O11 9359   4.367   5.095   6.244 -0.3703 -0.3145  0.5052
   95SAPS    C1 9360   4.449   4.993   6.302  0.0609  1.0945 -0.2325
   95SAPS    HA 9361   4.435   4.890   6.263 -0.2974  1.3102 -0.6929
   95SAPS    HB 9362   4.556   5.022   6.292  0.8169 -0.7702  1.7479
   95SAPS    C2 9363   4.409   4.981   6.446  0.3085  0.1446 -0.5370
   95SAPS    HS 9364   4.303   4.947   6.449  0.8355 -1.5096  1.9299
   95SAPS   O21 9365   4.435   5.102   6.516  0.1935  0.0090 -0.1079
   95SAPS   C21 9366   4.333   5.156   6.584 -0.2542  0.4192  0.2853
   95SAPS   O22 9367   4.215   5.128   6.560 -0.0522  0.5739 -0.5413
   95SAPS   C22 9368   4.383   5.265   6.686  0.1820  0.1629 -0.3191
   95SAPS   H2R 9369   4.493   5.278   6.678  0.1909 -0.2986 -0.9830
   95SAPS   H2S 9370   4.338   5.363   6.662  0.8934  1.2938  2.5414
   95SAPS    C3 9371   4.486   4.868   6.521 -0.2356  0.2408 -0.1965
   95SAPS    HX 9372   4.585   4.914   6.541  0.0225  0.1747 -1.2561
   95SAPS    HY 9373   4.498   4.787   6.447 -0.2069  1.2213 -1.2890
   95SAPS   O31 9374   4.412   4.825   6.631 -0.2691 -0.0552 -0.2981
   95SAPS   C31 9375   4.302   4.755   6.609 -0.4997 -0.0463  0.4709
   95SAPS   O32 9376   4.263   4.716   6.501  0.3320 -0.1183 -0.4969
   95SAPS   C32 9377   4.242   4.714   6.743  0.0861 -0.4671  0.1593
   95SAPS   H2X 9378   4.184   4.621   6.721 -1.0796  0.0710  0.8999
   95SAPS   H2Y 9379   4.174   4.795   6.777  0.3765 -0.3188  0.3955
   95SAPS   C23 9380   4.338   5.243   6.829  0.7018  0.6059 -0.0190
   95SAPS   H3R 9381   4.227   5.243   6.826  0.2248 -5.4928  2.7762
   95SAPS   H3S 9382   4.375   5.315   6.905  0.1684 -2.3922  3.3867
   95SAPS   C24 9383   4.368   5.101   6.879  0.1398  0.0533 -0.2979
   95SAPS   H4R 9384   4.336   5.028   6.802 -1.1553  0.7755 -0.4746
   95SAPS   H4S 9385   4.314   5.075   6.972  1.7883  0.8340  0.9468
   95SAPS   C25 9386   4.514   5.077   6.921  0.5550 -0.8937 -0.0264
   95SAPS   H5R 9387   4.570   5.020   6.846 -0.5524  0.6203 -2.1285
   95SAPS   C26 9388   4.572   5.128   7.035  0.2937  0.2881 -0.1437
   95SAPS   H6R 9389   4.680   5.107   7.041 -0.2702 -3.0224  0.7978
   95SAPS   C27 9390   4.515   5.215   7.146  0.0530  0.0580  0.2251
   95SAPS   H7R 9391   4.445   5.291   7.105  0.9734  0.7973 -0.0099
   95SAPS   H7S 9392   4.594   5.277   7.194  1.9141  0.7823 -3.3587
   95SAPS   C28 9393   4.438   5.130   7.245  0.2112 -0.4073 -0.4257
   95SAPS   H8R 9394   4.338   5.097   7.212  0.6678 -1.2910 -0.9613
   95SAPS   C29 9395   4.472   5.089   7.363  0.1775  0.6746  0.0142
   95SAPS   H9R 9396   4.413   5.021   7.426  0.1959  1.6033  1.0820
   95SAPS  C210 9397   4.604   5.103   7.430 -0.3485  0.1258  0.3461
   95SAPS  H10R 9398   4.680   5.157   7.370  0.5187 -1.1309  0.2733
   95SAPS  H10S 9399   4.640   5.000   7.446 -0.8944 -0.3383 -1.2101
   95SAPS  C211 9400   4.602   5.176   7.564 -0.4402  0.1517 -0.0511
   95SAPS  H11R 9401   4.610   5.285   7.561  2.6529  0.0738  1.5981
   95SAPS  C212 9402   4.584   5.121   7.688 -0.7924  0.7488  0.0423
   95SAPS  H12R 9403   4.607   5.181   7.777  1.7887  2.5149 -1.6709
   95SAPS  C213 9404   4.574   4.974   7.727 -0.3967 -0.1061  0.5014
   95SAPS  H13R 9405   4.558   4.904   7.642  0.7875 -1.0230  0.9978
   95SAPS  H13S 9406   4.487   4.958   7.795  0.3767 -1.8840  1.1614
   95SAPS  C214 9407   4.699   4.935   7.803 -0.4850 -0.0901 -0.0540
   95SAPS  H14R 9408   4.757   4.867   7.738 -0.0099  1.3367 -1.1922
   95SAPS  C215 9409   4.752   4.956   7.923  0.6647 -0.1496 -0.0323
   95SAPS  H15R 9410   4.844   4.901   7.946  1.3313 -0.0834 -2.3004
   95SAPS  C216 9411   4.691   5.030   8.037  0.5017 -0.2056  0.3767
   95SAPS  H16R 9412   4.664   4.968   8.125 -0.7775 -2.4830 -1.4702
   95SAPS  H16S 9413   4.602   5.084   7.998  0.6566 -1.2344 -1.5265
   95SAPS  C217 9414   4.788   5.140   8.071  0.5367 -0.1006 -0.2494
   95SAPS  H17R 9415   4.736   5.213   8.136 -1.3694  0.8257 -2.6667
   95SAPS  H17S 9416   4.812   5.195   7.978  4.0603  0.6193  0.9188
   95SAPS  C218 9417   4.921   5.104   8.137  0.3892 -0.0666 -0.4586
   95SAPS  H18R 9418   4.974   5.023   8.082  0.2108  0.3816 -1.3106
   95SAPS  H18S 9419   4.901   5.066   8.240  1.1365  1.2203  0.1778
   95SAPS  C219 9420   5.006   5.234   8.151 -0.3921  0.3854 -1.0065
   95SAPS  H19R 9421   4.938   5.311   8.193 -0.4835 -0.2977  0.1420
   95SAPS  H19S 9422   5.046   5.263   8.052  3.7086  1.1828  0.6600
   95SAPS  C220 9423   5.123   5.209   8.247 -0.6449 -0.0480 -0.1426
   95SAPS  H20R 9424   5.199   5.289   8.235  0.2929 -0.8945  0.0103
   95SAPS  H20S 9425   5.174   5.112   8.230  0.3209  0.2410  0.9822
   95SAPS  H20T 9426   5.084   5.215   8.351 -2.0454 -2.7403 -0.4384
   95SAPS   C33 9427   4.354   4.676   6.842  0.6131  0.1973 -1.2375
   95SAPS   H3X 9428   4.414   4.762   6.879  0.5053  1.2217 -3.2737
   95SAPS   H3Y 9429   4.433   4.612   6.798 -1.1138 -0.4634 -3.5760
   95SAPS   C34 9430   4.293   4.621   6.966 -0.1945  0.9589  0.0573
   95SAPS   H4X 9431   4.370   4.559   7.016  0.6862  1.1537 -1.0271
   95SAPS   H4Y 9432   4.208   4.554   6.942  0.4772  0.0304  0.2429
   95SAPS   C35 9433   4.251   4.726   7.073 -0.6836  0.2324  0.3339
   95SAPS   H5X 9434   4.164   4.777   7.028  0.0174  0.9090 -0.2898
   95SAPS   H5Y 9435   4.331   4.802   7.088  1.2349 -1.7150  0.4814
   95SAPS   C36 9436   4.228   4.669   7.220 -0.6502  0.4149 -0.4655
   95SAPS   H6X 9437   4.320   4.610   7.242  0.1286  0.8249 -2.4205
   95SAPS   H6Y 9438   4.136   4.606   7.216 -2.0253  2.3589 -1.0594
   95SAPS   C37 9439   4.203   4.779   7.330  0.1636  0.1805  0.0495
   95SAPS   H7X 9440   4.125   4.853   7.302 -1.1216 -0.9249  0.5665
   95SAPS   H7Y 9441   4.293   4.841   7.344 -0.3927  1.3977 -1.4446
   95SAPS   C38 9442   4.167   4.705   7.458  0.3069 -0.3098  0.1011
   95SAPS   H8X 9443   4.250   4.643   7.496 -0.9994 -0.6214  2.6407
   95SAPS   H8Y 9444   4.078   4.640   7.444  0.7313 -0.6222 -1.3037
   95SAPS   C39 9445   4.126   4.806   7.563  0.2204 -0.4117  0.4717
   95SAPS   H9X 9446   4.049   4.743   7.613  1.6335 -4.0011 -1.5400
   95SAPS   H9Y 9447   4.068   4.892   7.523 -0.6018 -1.8281 -1.5664
   95SAPS  C310 9448   4.224   4.835   7.674  0.0681  0.2879  0.3319
   95SAPS  H10X 9449   4.324   4.863   7.635 -0.1177  0.7749  0.1947
   95SAPS  H10Y 9450   4.249   4.744   7.733 -0.0325  0.3400  0.4543
   95SAPS  C311 9451   4.178   4.948   7.774 -0.2127  0.2429 -0.0227
   95SAPS  H11X 9452   4.147   5.048   7.738  0.9076  0.3584 -0.7258
   95SAPS  H11Y 9453   4.270   4.976   7.830  0.8009 -1.2099 -0.8703
   95SAPS  C312 9454   4.080   4.895   7.876  0.0322 -0.0258 -0.2082
   95SAPS  H12X 9455   4.105   4.790   7.901 -0.9076  0.4275  3.1179
   95SAPS  H12Y 9456   3.979   4.903   7.830 -0.9462  1.3467  1.9831
   95SAPS  C313 9457   4.081   4.976   8.010  0.4715 -0.0513 -0.0656
   95SAPS  H13X 9458   4.081   5.084   7.986  0.4282  0.2110  1.0943
   95SAPS  H13Y 9459   4.178   4.969   8.064  0.2796 -3.1476  0.0669
   95SAPS  C314 9460   3.952   4.958   8.087  0.0430 -0.0953  0.1175
   95SAPS  H14X 9461   3.920   4.854   8.106  1.3319 -0.2469  1.7550
   95SAPS  H14Y 9462   3.869   4.999   8.026 -0.7595 -0.4702  0.9390
   95SAPS  C315 9463   3.953   5.032   8.213  0.2323  0.5048  0.6893
   95SAPS  H15X 9464   4.011   5.124   8.191  0.8655  0.3966  1.8264
   95SAPS  H15Y 9465   4.008   4.970   8.288 -0.5957 -3.6787 -1.8258
   95SAPS  C316 9466   3.818   5.055   8.285 -0.1845 -0.3638  0.5854
   95SAPS  H16X 9467   3.770   4.957   8.300 -2.2020  0.2248 -1.4435
   95SAPS  H16Y 9468   3.751   5.111   8.216 -0.3346  1.0075  1.7765
   95SAPS  C317 9469   3.829   5.137   8.416 -0.2671 -0.1302 -0.1352
   95SAPS  H17X 9470   3.909   5.087   8.474  0.3746  1.1623  0.1132
   95SAPS  H17Y 9471   3.735   5.129   8.475 -0.3355 -0.3500 -0.2690
   95SAPS  C318 9472   3.853   5.287   8.391  0.2822 -0.0184  0.4458
   95SAPS  H18X 9473   3.760   5.342   8.361  0.5318  0.8460  1.1936
   95SAPS  H18Y 9474   3.915   5.293   8.299 -0.0452  0.0637  0.2250
   95SAPS  H18Z 9475   3.893   5.341   8.479  1.4748 -0.2162  0.0353
   96SAPS     N 9476   5.596   0.355   5.996  0.8470  0.2599  0.3654
   96SAPS   HN1 9477   5.653   0.314   6.072  0.3174  0.5150  0.9133
   96SAPS   HN2 9478   5.658   0.384   5.918 -1.8425  0.4905 -1.8756
   96SAPS   HN3 9479   5.553   0.438   6.043  0.3362 -0.6739  1.6253
   96SAPS   C12 9480   5.498   0.253   5.957 -0.2414 -0.1316  0.2380
   96SAPS  H12A 9481   5.432   0.301   5.886  0.9154  2.5937  0.8964
   96SAPS   C13 9482   5.562   0.137   5.883  0.1995 -0.1360  0.2942
   96SAPS  O13A 9483   5.684   0.126   5.859 -0.2429 -0.3774  0.4942
   96SAPS  O13B 9484   5.480   0.061   5.827  0.2481  0.0753 -0.6808
   96SAPS   C11 9485   5.412   0.214   6.081  0.2001 -0.1087  0.1756
   96SAPS  H11A 9486   5.477   0.183   6.166 -0.8405 -0.9274  0.6945
   96SAPS  H11B 9487   5.344   0.129   6.061  1.5882 -1.5804  1.4271
   96SAPS     P 9488   5.188   0.320   6.165 -0.0447  0.6298 -0.5190
   96SAPS   O13 9489   5.165   0.427   6.263 -0.7437  0.8810 -0.5235
   96SAPS   O14 9490   5.110   0.328   6.044  0.0158 -0.1647 -0.0438
   96SAPS   O12 9491   5.335   0.328   6.124  0.2862  0.5109 -0.0469
   96SAPS   O11 9492   5.189   0.175   6.223 -0.0896  0.0133 -0.2941
   96SAPS    C1 9493   5.066   0.126   6.279  0.1311  0.8179 -0.9375
   96SAPS    HA 9494   4.991   0.199   6.315 -0.1461 -0.5791  1.5733
   96SAPS    HB 9495   5.010   0.078   6.196  0.4447  0.1842 -0.7936
   96SAPS    C2 9496   5.091   0.016   6.389  0.3639  0.0301 -0.5753
   96SAPS    HS 9497   4.997  -0.027   6.429 -1.3535  3.5114 -0.4957
   96SAPS   O21 9498   5.166   0.085   6.489  0.5003  0.0177 -0.2312
   96SAPS   C21 9499   5.111   0.167   6.569 -0.6170 -0.3489  0.0116
   96SAPS   O22 9500   4.991   0.195   6.580  0.0425 -0.3945  0.3794
   96SAPS   C22 9501   5.219   0.191   6.675  0.4809 -0.1510 -0.2225
   96SAPS   H2R 9502   5.281   0.099   6.678  1.8719  0.7778  1.5731
   96SAPS   H2S 9503   5.283   0.274   6.639  0.7793  0.4080  1.4894
   96SAPS    C3 9504   5.187  -0.094   6.332  0.5633 -0.1759  0.1590
   96SAPS    HX 9505   5.269  -0.043   6.278  0.7010 -1.7354 -1.1642
   96SAPS    HY 9506   5.129  -0.157   6.261  0.2481  1.9035 -1.5400
   96SAPS   O31 9507   5.244  -0.186   6.426 -0.0401 -0.1156  0.7258
   96SAPS   C31 9508   5.163  -0.271   6.488  0.2692  0.8272 -0.2365
   96SAPS   O32 9509   5.047  -0.294   6.459  0.4246 -0.4951 -0.1311
   96SAPS   C32 9510   5.237  -0.328   6.606  0.2576  0.7393 -0.4761
   96SAPS   H2X 9511   5.340  -0.350   6.571  0.5477 -2.3177  1.9095
   96SAPS   H2Y 9512   5.195  -0.429   6.621  2.0568 -0.1418 -1.1229
   96SAPS   C23 9513   5.153   0.209   6.811  0.4468 -0.1302 -0.3329
   96SAPS   H3R 9514   5.098   0.116   6.835 -2.0355  0.7801 -2.0267
   96SAPS   H3S 9515   5.079   0.292   6.812 -0.3422 -0.8133  0.8396
   96SAPS   C24 9516   5.252   0.238   6.930  0.3060 -0.3028 -0.3144
   96SAPS   H4R 9517   5.332   0.161   6.928 -0.6891 -1.4132  0.8529
   96SAPS   H4S 9518   5.204   0.222   7.029 -0.8309 -0.5750 -0.8921
   96SAPS   C25 9519   5.298   0.383   6.919 -0.8702  0.7341 -0.2623
   96SAPS   H5R 9520   5.319   0.417   6.816 -0.3569 -0.4616 -0.5676
   96SAPS   C26 9521   5.330   0.468   7.025  0.3240 -0.6141  0.0897
   96SAPS   H6R 9522   5.373   0.568   7.008  0.2669 -0.5659  0.2293
   96SAPS   C27 9523   5.327   0.448   7.175 -0.1217  0.0054  0.7168
   96SAPS   H7R 9524   5.233   0.394   7.202 -0.6393  0.2502 -0.5125
   96SAPS   H7S 9525   5.309   0.540   7.235 -1.2081  0.2344  0.0764
   96SAPS   C28 9526   5.452   0.371   7.216  0.1898 -0.4812  0.1745
   96SAPS   H8R 9527   5.480   0.281   7.160  2.4323  1.0370 -1.3084
   96SAPS   C29 9528   5.543   0.403   7.305  0.3898 -0.1703  0.7025
   96SAPS   H9R 9529   5.618   0.324   7.324  1.4307  0.0273 -2.0543
   96SAPS  C210 9530   5.544   0.513   7.400 -0.0693 -0.7800 -0.2441
   96SAPS  H10R 9531   5.525   0.450   7.489  3.2766 -2.2300 -0.4054
   96SAPS  H10S 9532   5.455   0.575   7.377 -1.1508 -2.4358 -0.6810
   96SAPS  C211 9533   5.676   0.592   7.421  0.3328  0.7774  0.4736
   96SAPS  H11R 9534   5.753   0.584   7.343 -1.0356 -0.9130 -0.7765
   96SAPS  C212 9535   5.700   0.663   7.530  0.5841  0.1816 -0.6068
   96SAPS  H12R 9536   5.797   0.709   7.554  0.8685 -0.9251  0.5174
   96SAPS  C213 9537   5.608   0.682   7.647 -0.5893  0.0842 -0.0525
   96SAPS  H13R 9538   5.641   0.613   7.728  0.1618  1.3791  0.7941
   96SAPS  H13S 9539   5.503   0.653   7.628 -0.6916  0.7523 -0.5324
   96SAPS  C214 9540   5.617   0.826   7.691  0.9839  0.5522  0.3011
   96SAPS  H14R 9541   5.567   0.893   7.620  1.0442  1.2634  0.9192
   96SAPS  C215 9542   5.675   0.881   7.800  0.5877  0.0857 -0.1972
   96SAPS  H15R 9543   5.677   0.991   7.805  3.0266  0.1742 -1.6504
   96SAPS  C216 9544   5.744   0.813   7.912 -0.1958  0.0112 -0.9433
   96SAPS  H16R 9545   5.843   0.854   7.942  0.2750 -1.3588 -0.5448
   96SAPS  H16S 9546   5.757   0.705   7.891  1.4158 -0.4490  1.8406
   96SAPS  C217 9547   5.664   0.831   8.044 -0.2800 -0.1107  0.2366
   96SAPS  H17R 9548   5.732   0.766   8.103  1.2336  2.1185  1.0404
   96SAPS  H17S 9549   5.567   0.776   8.041  0.3014 -1.1576  0.0950
   96SAPS  C218 9550   5.642   0.968   8.107 -0.9376  0.2142 -0.0612
   96SAPS  H18R 9551   5.564   0.962   8.186  0.7387 -3.6767  1.5664
   96SAPS  H18S 9552   5.610   1.041   8.029  1.8076  1.0399 -0.5289
   96SAPS  C219 9553   5.774   1.030   8.163  0.0614  0.3080  0.1646
   96SAPS  H19R 9554   5.855   1.036   8.087  1.8831 -0.2584  1.9626
   96SAPS  H19S 9555   5.815   0.961   8.240 -1.4667 -0.2935  0.4655
   96SAPS  C220 9556   5.761   1.176   8.200  0.0439  0.7769  0.0982
   96SAPS  H20R 9557   5.837   1.204   8.276 -0.3983 -0.4290  1.0416
   96SAPS  H20S 9558   5.660   1.212   8.228  0.1993  0.6771  0.8155
   96SAPS  H20T 9559   5.777   1.235   8.108 -0.1088  0.7016  0.0222
   96SAPS   C33 9560   5.243  -0.239   6.730 -0.0612 -0.7395  0.0236
   96SAPS   H3X 9561   5.140  -0.240   6.772  0.3198  0.6294  1.0799
   96SAPS   H3Y 9562   5.282  -0.136   6.715  2.5880 -1.5377  0.8361
   96SAPS   C34 9563   5.332  -0.299   6.839 -0.3785  0.3342  0.5766
   96SAPS   H4X 9564   5.424  -0.331   6.786 -0.1630  2.8499 -0.6798
   96SAPS   H4Y 9565   5.289  -0.385   6.895  1.8526 -1.2061  0.0507
   96SAPS   C35 9566   5.371  -0.196   6.946  0.1304 -0.0442 -0.0453
   96SAPS   H5X 9567   5.428  -0.112   6.901 -1.0464  0.7677 -0.0350
   96SAPS   H5Y 9568   5.444  -0.239   7.019  2.1413 -0.1204 -1.9955
   96SAPS   C36 9569   5.247  -0.134   7.021  0.3386  0.2357 -0.4879
   96SAPS   H6X 9570   5.173  -0.209   7.059  0.3708  0.8306  0.7906
   96SAPS   H6Y 9571   5.191  -0.065   6.954  1.0065  0.6731 -0.6006
   96SAPS   C37 9572   5.294  -0.053   7.144  0.4418  0.2220 -0.2235
   96SAPS   H7X 9573   5.330   0.048   7.113  1.5656 -0.1766 -0.2690
   96SAPS   H7Y 9574   5.383  -0.103   7.189 -0.9776 -1.0196  1.3108
   96SAPS   C38 9575   5.184  -0.047   7.253 -0.1261 -0.0855 -0.5901
   96SAPS   H8X 9576   5.160  -0.153   7.276 -2.5642  0.4762 -0.2452
   96SAPS   H8Y 9577   5.087  -0.016   7.209  0.5083  1.2266 -1.0948
   96SAPS   C39 9578   5.214   0.015   7.392 -0.2587 -0.6984  0.1826
   96SAPS   H9X 9579   5.124   0.007   7.456 -1.7882 -1.2001 -1.9221
   96SAPS   H9Y 9580   5.242   0.123   7.386 -1.1795 -0.5003 -0.8753
   96SAPS  C310 9581   5.327  -0.055   7.476  0.0682 -0.1238 -0.3175
   96SAPS  H10X 9582   5.418   0.003   7.451 -2.2766  3.6837 -0.7638
   96SAPS  H10Y 9583   5.342  -0.161   7.447  1.5667  0.2560 -0.9875
   96SAPS  C311 9584   5.314  -0.039   7.633  0.4348 -0.8747  0.1032
   96SAPS  H11X 9585   5.414  -0.080   7.660  1.3659  0.2208 -1.5033
   96SAPS  H11Y 9586   5.218  -0.084   7.664  0.5205 -0.4859  0.9531
   96SAPS  C312 9587   5.308   0.111   7.661  0.1066  0.0271  0.1349
   96SAPS  H12X 9588   5.207   0.143   7.627 -1.2240 -2.7656  1.2026
   96SAPS  H12Y 9589   5.384   0.174   7.610  0.8169  0.5904  1.8018
   96SAPS  C313 9590   5.330   0.142   7.813  0.2537 -0.2919 -0.0256
   96SAPS  H13X 9591   5.432   0.105   7.834  0.2170 -1.5755 -1.8277
   96SAPS  H13Y 9592   5.254   0.090   7.875  1.7764 -1.7504  0.7025
   96SAPS  C314 9593   5.345   0.292   7.852 -0.3204 -0.6337 -0.3210
   96SAPS  H14X 9594   5.243   0.332   7.868 -0.4533 -0.5958 -1.2562
   96SAPS  H14Y 9595   5.394   0.347   7.769 -2.2707 -0.1413 -1.1899
   96SAPS  C315 9596   5.437   0.306   7.977 -0.9323  0.3382  0.3218
   96SAPS  H15X 9597   5.545   0.303   7.950 -1.4135 -0.1454 -1.6870
   96SAPS  H15Y 9598   5.424   0.222   8.048  1.1031 -0.3850 -0.0931
   96SAPS  C316 9599   5.403   0.412   8.075 -0.6307 -0.2846 -0.1533
   96SAPS  H16X 9600   5.297   0.415   8.110  0.0248  2.2272  1.9406
   96SAPS  H16Y 9601   5.421   0.504   8.015 -1.2987 -0.4281 -0.5790
   96SAPS  C317 9602   5.488   0.397   8.203 -0.1911 -0.8922 -0.1370
   96SAPS  H17X 9603   5.592   0.420   8.170  0.2953 -1.7152  0.7845
   96SAPS  H17Y 9604   5.483   0.294   8.244 -1.9466 -1.7758 -2.3752
   96SAPS  C318 9605   5.459   0.499   8.312  0.6359 -0.3424 -0.2804
   96SAPS  H18X 9606   5.523   0.487   8.402  0.2120  0.6338  0.1710
   96SAPS  H18Y 9607   5.361   0.476   8.359  1.5015 -2.2659  0.6665
   96SAPS  H18Z 9608   5.459   0.605   8.278 -3.3459  0.1681  0.7358
   97SAPS     N 9609   6.619   6.311   6.549  0.0858 -0.0777 -0.2506
   97SAPS   HN1 9610   6.648   6.211   6.547 -1.2250 -0.4762 -0.3252
   97SAPS   HN2 9611   6.691   6.359   6.606 -0.6178 -2.7359  3.2600
   97SAPS   HN3 9612   6.527   6.309   6.598 -0.2854  0.1740 -0.9200
   97SAPS   C12 9613   6.621   6.350   6.406 -0.7508  0.8348 -0.7951
   97SAPS  H12A 9614   6.722   6.377   6.381 -1.0236  1.6741 -1.0090
   97SAPS   C13 9615   6.585   6.245   6.298 -0.2243  0.4706  0.0257
   97SAPS  O13A 9616   6.616   6.123   6.343  0.5166  0.0032  0.2852
   97SAPS  O13B 9617   6.618   6.272   6.178 -0.6580  0.1248 -0.4530
   97SAPS   C11 9618   6.544   6.477   6.391  0.0431  0.3258  0.7780
   97SAPS  H11A 9619   6.559   6.518   6.288 -0.1961  2.0589  1.3924
   97SAPS  H11B 9620   6.596   6.545   6.462  1.8416 -0.6849  0.4818
   97SAPS     P 9621   6.283   6.527   6.368  0.1347  0.1861 -0.4356
   97SAPS   O13 9622   6.322   6.638   6.281  0.0253  0.2636  0.3357
   97SAPS   O14 9623   6.191   6.423   6.318 -0.2895 -0.5086 -0.1220
   97SAPS   O12 9624   6.404   6.458   6.429 -0.2261  0.2948  0.1324
   97SAPS   O11 9625   6.218   6.594   6.492 -0.6477  0.0952 -0.4442
   97SAPS    C1 9626   6.277   6.683   6.586  1.2477  0.5129 -0.2001
   97SAPS    HA 9627   6.336   6.768   6.546  0.2888  2.2645  1.8560
   97SAPS    HB 9628   6.193   6.740   6.632  0.6243  1.4697 -2.3850
   97SAPS    C2 9629   6.354   6.614   6.701 -0.7527  0.3618 -0.3725
   97SAPS    HS 9630   6.443   6.562   6.658 -0.7450 -0.0627  0.1434
   97SAPS   O21 9631   6.268   6.514   6.757  0.8385 -0.4466  0.3553
   97SAPS   C21 9632   6.315   6.392   6.767 -0.5831  0.0026 -0.1552
   97SAPS   O22 9633   6.435   6.356   6.752 -0.0571  0.0355 -0.4683
   97SAPS   C22 9634   6.207   6.295   6.825 -0.3010 -0.5560 -0.4571
   97SAPS   H2R 9635   6.113   6.351   6.844  0.0862 -0.6157  2.0489
   97SAPS   H2S 9636   6.192   6.220   6.744 -0.9439  1.7029 -2.5592
   97SAPS    C3 9637   6.397   6.706   6.817 -0.2982  0.3111  0.8863
   97SAPS    HX 9638   6.316   6.733   6.888 -1.3374  0.6984 -0.4067
   97SAPS    HY 9639   6.407   6.801   6.760  1.2559 -0.2160  0.2320
   97SAPS   O31 9640   6.528   6.681   6.873  0.6011  0.9841  0.0318
   97SAPS   C31 9641   6.517   6.609   6.987 -0.0751 -0.1857  0.0983
   97SAPS   O32 9642   6.420   6.577   7.045  0.0786 -0.3705 -0.5773
   97SAPS   C32 9643   6.664   6.591   7.046 -0.0723  0.0901  0.6547
   97SAPS   H2X 9644   6.662   6.653   7.138 -1.5165  0.7550  0.1952
   97SAPS   H2Y 9645   6.741   6.618   6.971 -1.7629 -1.7956 -1.9203
   97SAPS   C23 9646   6.236   6.234   6.957  0.0092  0.1318  0.0685
   97SAPS   H3R 9647   6.286   6.306   7.024 -0.0275 -0.5777  0.8826
   97SAPS   H3S 9648   6.312   6.154   6.943  0.7448  0.2138  2.9670
   97SAPS   C24 9649   6.108   6.179   7.029  0.2915  0.0677 -0.1597
   97SAPS   H4R 9650   6.036   6.262   7.046 -0.0394 -0.3277  0.3794
   97SAPS   H4S 9651   6.137   6.170   7.136  0.3569  2.3396  0.0681
   97SAPS   C25 9652   6.036   6.060   6.965  0.3404  0.1844  0.1699
   97SAPS   H5R 9653   5.962   6.085   6.887  0.0643 -1.6778 -0.2144
   97SAPS   C26 9654   6.034   5.931   7.003 -0.3404  0.1707  0.2079
   97SAPS   H6R 9655   5.977   5.864   6.937  2.1809 -0.9923 -0.9096
   97SAPS   C27 9656   6.099   5.864   7.126 -0.0030  0.0467 -0.2637
   97SAPS   H7R 9657   6.122   5.944   7.199 -2.5274  0.0474  0.6509
   97SAPS   H7S 9658   6.194   5.811   7.103  0.3233  1.5329 -2.8059
   97SAPS   C28 9659   6.009   5.758   7.184 -0.2406  0.1549  0.5519
   97SAPS   H8R 9660   6.024   5.657   7.145 -1.2234  0.0445  0.4358
   97SAPS   C29 9661   5.919   5.767   7.282  0.0800  0.5417  0.3914
   97SAPS   H9R 9662   5.862   5.677   7.310  2.5052 -0.7758  1.3339
   97SAPS  C210 9663   5.870   5.895   7.352 -0.2882  0.6102 -0.3997
   97SAPS  H10R 9664   5.922   5.986   7.315  0.5064 -0.8109 -3.0382
   97SAPS  H10S 9665   5.889   5.880   7.460 -1.7656 -1.8942 -0.3994
   97SAPS  C211 9666   5.722   5.912   7.326 -0.0951 -0.6800 -0.5039
   97SAPS  H11R 9667   5.679   5.963   7.239 -1.3802 -1.7482 -0.5250
   97SAPS  C212 9668   5.615   5.875   7.397 -0.3222  0.1793 -0.8558
   97SAPS  H12R 9669   5.520   5.896   7.346  0.5153 -1.4239 -3.3205
   97SAPS  C213 9670   5.594   5.817   7.538  0.0653 -0.2720  0.3394
   97SAPS  H13R 9671   5.486   5.791   7.538 -0.3641  1.1832 -1.6169
   97SAPS  H13S 9672   5.605   5.896   7.615  1.7638 -1.3309  1.2417
   97SAPS  C214 9673   5.679   5.705   7.582  0.0231  0.3977  0.2250
   97SAPS  H14R 9674   5.787   5.718   7.597  0.1409 -0.8568  0.5753
   97SAPS  C215 9675   5.641   5.584   7.617  0.0626 -0.1880 -0.0027
   97SAPS  H15R 9676   5.724   5.521   7.653  1.0843  2.2807  2.2794
   97SAPS  C216 9677   5.500   5.533   7.632 -0.0593 -0.0218  0.5630
   97SAPS  H16R 9678   5.497   5.422   7.621  0.5257 -0.1026  1.1166
   97SAPS  H16S 9679   5.433   5.582   7.559  0.9938  0.2032 -0.2871
   97SAPS  C217 9680   5.457   5.568   7.777  0.6889  0.2420 -0.5867
   97SAPS  H17R 9681   5.455   5.678   7.790  2.5405  0.1275  1.3090
   97SAPS  H17S 9682   5.534   5.533   7.850 -0.2183  0.4059  0.4682
   97SAPS  C218 9683   5.313   5.512   7.797 -0.6593 -0.0682  0.2697
   97SAPS  H18R 9684   5.314   5.402   7.782  0.2062 -0.1751  1.0488
   97SAPS  H18S 9685   5.250   5.568   7.724  0.8207 -1.9283 -2.6646
   97SAPS  C219 9686   5.281   5.548   7.944  0.5245 -0.2746  0.2212
   97SAPS  H19R 9687   5.171   5.535   7.960  0.2559  1.1284 -0.3373
   97SAPS  H19S 9688   5.299   5.656   7.961 -1.6616  0.2680 -0.4671
   97SAPS  C220 9689   5.360   5.476   8.046  0.0779 -0.2637  0.2868
   97SAPS  H20R 9690   5.334   5.486   8.154  0.4803 -1.2067  0.4849
   97SAPS  H20S 9691   5.470   5.494   8.049  0.5560 -2.8363  1.9999
   97SAPS  H20T 9692   5.354   5.365   8.036 -1.4413 -0.3661  1.7910
   97SAPS   C33 9693   6.681   6.445   7.089 -0.7597  0.1134  0.5353
   97SAPS   H3X 9694   6.707   6.383   7.000 -1.9075  1.8547 -1.0822
   97SAPS   H3Y 9695   6.591   6.407   7.142  0.2221 -1.7145  0.9785
   97SAPS   C34 9696   6.787   6.433   7.208  0.1497  0.6763 -0.2030
   97SAPS   H4X 9697   6.874   6.500   7.192  1.5877 -1.2625 -1.0106
   97SAPS   H4Y 9698   6.815   6.325   7.213  0.4175  0.6705 -1.5198
   97SAPS   C35 9699   6.724   6.470   7.342  0.8856 -0.4373 -0.8988
   97SAPS   H5X 9700   6.617   6.442   7.354  0.8191  0.8573  2.2527
   97SAPS   H5Y 9701   6.722   6.580   7.357 -2.8479 -0.6248  1.3957
   97SAPS   C36 9702   6.799   6.409   7.463 -0.5274  0.2050 -0.2605
   97SAPS   H6X 9703   6.883   6.481   7.472 -0.1791 -0.0727 -1.2065
   97SAPS   H6Y 9704   6.827   6.308   7.427  2.3930  0.5593  0.7167
   97SAPS   C37 9705   6.713   6.407   7.598  0.6480  0.2586 -1.0237
   97SAPS   H7X 9706   6.631   6.334   7.583  0.0961  0.5197  0.5021
   97SAPS   H7Y 9707   6.667   6.507   7.612  1.2857  0.5344 -0.8698
   97SAPS   C38 9708   6.802   6.369   7.717  0.4117  0.1879  0.1083
   97SAPS   H8X 9709   6.895   6.427   7.736  0.0521  0.2700  1.8202
   97SAPS   H8Y 9710   6.831   6.266   7.685 -0.8829 -0.5712  1.2466
   97SAPS   C39 9711   6.713   6.352   7.843  0.3465 -0.0652 -0.6360
   97SAPS   H9X 9712   6.639   6.283   7.797 -1.0738 -0.2693  1.7870
   97SAPS   H9Y 9713   6.685   6.457   7.867 -1.5979  0.2569 -3.7483
   97SAPS  C310 9714   6.794   6.290   7.955  0.1506  0.5919  0.2338
   97SAPS  H10X 9715   6.887   6.351   7.964  1.7870 -2.0206  3.0940
   97SAPS  H10Y 9716   6.834   6.188   7.938  0.5334  0.7290  0.2862
   97SAPS  C311 9717   6.738   6.292   8.104  0.4981  0.1281  0.3588
   97SAPS  H11X 9718   6.816   6.270   8.180 -0.9943 -2.4712  1.2433
   97SAPS  H11Y 9719   6.670   6.205   8.113 -1.8961  1.8818  0.1463
   97SAPS  C312 9720   6.659   6.422   8.135  0.5619 -0.5749 -0.2094
   97SAPS  H12X 9721   6.592   6.448   8.050  0.2466  2.5956  0.8772
   97SAPS  H12Y 9722   6.741   6.497   8.143 -0.2545  0.3836 -0.5454
   97SAPS  C313 9723   6.563   6.410   8.249 -0.1039 -0.0426  0.1622
   97SAPS  H13X 9724   6.476   6.344   8.230  0.0245 -0.4744  1.0001
   97SAPS  H13Y 9725   6.513   6.509   8.260 -0.8844 -0.2677 -1.1487
   97SAPS  C314 9726   6.626   6.372   8.381  0.9410 -0.1592 -0.9602
   97SAPS  H14X 9727   6.646   6.263   8.393 -1.9493 -0.7275 -0.5368
   97SAPS  H14Y 9728   6.561   6.406   8.463  1.8996  0.0661 -0.2744
   97SAPS  C315 9729   6.757   6.461   8.415  0.3228 -0.1712  0.9645
   97SAPS  H15X 9730   6.768   6.555   8.356 -2.2070 -0.6457 -0.3958
   97SAPS  H15Y 9731   6.843   6.400   8.378  1.1498  2.3077 -1.6037
   97SAPS  C316 9732   6.781   6.474   8.567 -0.8087 -0.2765 -0.1859
   97SAPS  H16X 9733   6.788   6.372   8.609  0.4183 -0.4217 -0.6974
   97SAPS  H16Y 9734   6.694   6.523   8.616 -1.8455 -1.7497 -0.4858
   97SAPS  C317 9735   6.915   6.557   8.595  0.3963 -0.2005 -0.1126
   97SAPS  H17X 9736   6.901   6.660   8.555 -2.3877  0.1198  1.4565
   97SAPS  H17Y 9737   6.994   6.499   8.541 -0.4116  0.3284 -1.9211
   97SAPS  C318 9738   6.955   6.561   8.741  0.4223 -0.1469 -0.3647
   97SAPS  H18X 9739   7.061   6.596   8.751  0.7193 -1.1985  0.3833
   97SAPS  H18Y 9740   6.940   6.457   8.778 -2.8150  0.1847 -0.4647
   97SAPS  H18Z 9741   6.885   6.630   8.793  0.5831  1.3480 -2.0583
   98SAPS     N 9742   4.969   4.196   5.880 -0.4017  1.4532 -0.2203
   98SAPS   HN1 9743   5.072   4.193   5.896 -0.3281  1.6849 -0.6547
   98SAPS   HN2 9744   4.944   4.105   5.836  2.0199 -0.6244  2.3173
   98SAPS   HN3 9745   4.944   4.281   5.825 -4.4210 -0.7951 -2.3776
   98SAPS   C12 9746   4.900   4.198   6.018  0.5646 -0.5750 -0.1007
   98SAPS  H12A 9747   4.815   4.263   6.004  0.3056 -0.7905  0.4301
   98SAPS   C13 9748   4.852   4.065   6.063 -1.0281  0.2231  0.0928
   98SAPS  O13A 9749   4.843   3.969   5.972 -0.2052 -0.8628 -0.2797
   98SAPS  O13B 9750   4.784   4.065   6.170  0.2674  0.1518  0.0365
   98SAPS   C11 9751   4.998   4.267   6.120 -0.1563  0.3078  0.5019
   98SAPS  H11A 9752   5.092   4.212   6.139  0.2484  1.4284  1.9056
   98SAPS  H11B 9753   4.948   4.261   6.219 -0.5242  1.0524  0.3763
   98SAPS     P 9754   4.940   4.523   6.138 -0.2138  0.4565  0.3859
   98SAPS   O13 9755   5.024   4.612   6.223  0.4611  0.4056  0.0196
   98SAPS   O14 9756   4.872   4.575   6.016  0.1420  0.5111 -0.5642
   98SAPS   O12 9757   5.031   4.404   6.079 -0.5076  0.1703 -0.7793
   98SAPS   O11 9758   4.823   4.461   6.222 -0.1341 -0.3474 -0.2590
   98SAPS    C1 9759   4.756   4.540   6.318 -0.9185  0.7837  0.5540
   98SAPS    HA 9760   4.745   4.646   6.289 -1.6561  1.2391  2.3153
   98SAPS    HB 9761   4.658   4.492   6.340  0.3583 -1.5698  1.6136
   98SAPS    C2 9762   4.830   4.527   6.458  0.0727  0.0293 -0.6974
   98SAPS    HS 9763   4.937   4.558   6.452  0.1569  0.6554  2.3254
   98SAPS   O21 9764   4.813   4.394   6.501  0.3574 -0.7596  0.1487
   98SAPS   C21 9765   4.910   4.308   6.492  1.2165 -0.1374  0.2501
   98SAPS   O22 9766   5.024   4.331   6.465 -0.4215  0.5379  0.3171
   98SAPS   C22 9767   4.846   4.171   6.516 -0.2883  0.5945  0.0503
   98SAPS   H2R 9768   4.805   4.154   6.618  0.4026  2.6318  0.7071
   98SAPS   H2S 9769   4.759   4.174   6.447 -0.6819  0.4474  0.5399
   98SAPS    C3 9770   4.748   4.615   6.552  0.6054 -0.0061  0.6326
   98SAPS    HX 9771   4.641   4.588   6.536  0.5882 -1.0477  2.2266
   98SAPS    HY 9772   4.769   4.718   6.516  1.3161 -0.4717 -0.3253
   98SAPS   O31 9773   4.779   4.603   6.691 -0.0533 -0.6336 -0.7405
   98SAPS   C31 9774   4.777   4.707   6.771 -0.3895  0.6103 -0.5267
   98SAPS   O32 9775   4.758   4.827   6.743 -0.4055 -0.1180 -0.0770
   98SAPS   C32 9776   4.816   4.659   6.915 -0.5263  0.5465  0.0137
   98SAPS   H2X 9777   4.919   4.700   6.919  0.1991 -1.2687  1.2657
   98SAPS   H2Y 9778   4.837   4.550   6.912 -1.2771  0.4178 -1.9043
   98SAPS   C23 9779   4.929   4.047   6.458  1.0669  0.4001 -0.4043
   98SAPS   H3R 9780   4.964   4.075   6.357  2.1137  0.3925 -0.0607
   98SAPS   H3S 9781   4.870   3.954   6.446  1.0749  0.5243 -1.4770
   98SAPS   C24 9782   5.059   4.019   6.532 -0.2473  0.7043  0.4132
   98SAPS   H4R 9783   5.121   4.110   6.543 -2.1003  2.1658 -0.5215
   98SAPS   H4S 9784   5.112   3.946   6.468 -1.3816 -0.0984  0.3468
   98SAPS   C25 9785   5.035   3.962   6.674  0.4469  0.1317 -0.4929
   98SAPS   H5R 9786   5.007   3.856   6.679  0.6736  0.0588 -0.7255
   98SAPS   C26 9787   5.060   4.028   6.787 -0.4813  0.3821  0.3552
   98SAPS   H6R 9788   5.032   3.971   6.876  0.0644 -1.0887 -0.3884
   98SAPS   C27 9789   5.113   4.167   6.800 -0.3008 -0.1149  0.0311
   98SAPS   H7R 9790   5.151   4.214   6.706 -0.7695  0.7440  0.2680
   98SAPS   H7S 9791   5.204   4.164   6.864  0.5103 -2.3155 -1.1088
   98SAPS   C28 9792   5.019   4.268   6.856 -0.1071 -0.1991  0.0321
   98SAPS   H8R 9793   4.969   4.333   6.783  0.9889  1.7108  0.8990
   98SAPS   C29 9794   4.980   4.287   6.984 -0.6321 -0.8037  0.6109
   98SAPS   H9R 9795   4.915   4.375   7.001 -0.0535 -0.4893  1.2095
   98SAPS  C210 9796   5.019   4.207   7.107  0.8157 -0.0549 -0.4144
   98SAPS  H10R 9797   5.103   4.249   7.166 -0.7146  1.6641  0.6316
   98SAPS  H10S 9798   5.047   4.104   7.078 -0.4311 -0.3998 -0.4300
   98SAPS  C211 9799   4.907   4.169   7.204 -0.5488 -0.2007  0.1084
   98SAPS  H11R 9800   4.842   4.092   7.160  0.5403 -1.4372  0.5907
   98SAPS  C212 9801   4.888   4.203   7.329  0.3695  0.1733  0.5390
   98SAPS  H12R 9802   4.801   4.152   7.371 -1.7090  0.6121 -2.9039
   98SAPS  C213 9803   4.963   4.294   7.420  0.1403 -0.2781 -0.3070
   98SAPS  H13R 9804   4.895   4.338   7.496  0.9375  2.1739 -0.8933
   98SAPS  H13S 9805   5.007   4.373   7.356 -1.2298 -0.3627 -1.3984
   98SAPS  C214 9806   5.063   4.227   7.511  0.7805  0.0319 -0.6171
   98SAPS  H14R 9807   5.087   4.126   7.475  1.6844 -0.3403  0.9675
   98SAPS  C215 9808   5.114   4.276   7.626  0.5220 -0.2241  0.1336
   98SAPS  H15R 9809   5.186   4.214   7.680  1.4516 -0.4121 -1.2827
   98SAPS  C216 9810   5.053   4.397   7.694 -0.7682 -0.1074  0.7034
   98SAPS  H16R 9811   5.031   4.476   7.618  2.1211  1.9110  1.7860
   98SAPS  H16S 9812   5.137   4.437   7.754  1.6058 -0.1010 -2.3953
   98SAPS  C217 9813   4.938   4.368   7.789 -0.3864  0.8870  0.6621
   98SAPS  H17R 9814   4.972   4.286   7.855  2.9411  2.6636  1.3423
   98SAPS  H17S 9815   4.847   4.331   7.735 -0.3990  1.3495  0.3633
   98SAPS  C218 9816   4.900   4.483   7.878 -0.3272 -0.8627 -0.0846
   98SAPS  H18R 9817   4.854   4.569   7.825  0.0057 -1.2925 -1.0910
   98SAPS  H18S 9818   4.984   4.522   7.938 -1.6445  0.5319  0.9397
   98SAPS  C219 9819   4.800   4.423   7.986  0.0456 -0.0023  0.3444
   98SAPS  H19R 9820   4.829   4.319   8.011  0.8905  0.1521  0.0541
   98SAPS  H19S 9821   4.694   4.422   7.954  0.6425  0.4901 -1.7738
   98SAPS  C220 9822   4.796   4.505   8.110 -0.4710 -0.2720 -0.2966
   98SAPS  H20R 9823   4.899   4.516   8.150  0.1456  0.1059 -1.9257
   98SAPS  H20S 9824   4.748   4.442   8.188  1.1654 -1.4161 -0.1645
   98SAPS  H20T 9825   4.738   4.600   8.103  1.0538  0.7809  0.8452
   98SAPS   C33 9826   4.724   4.721   7.030  0.0101  0.0383  0.5773
   98SAPS   H3X 9827   4.619   4.695   7.004 -0.6040  2.1081  0.8088
   98SAPS   H3Y 9828   4.738   4.831   7.025  0.5747  0.0101  1.3581
   98SAPS   C34 9829   4.742   4.677   7.175 -0.3970 -0.2234 -0.2464
   98SAPS   H4X 9830   4.845   4.691   7.214 -0.1201 -1.0081 -0.6709
   98SAPS   H4Y 9831   4.735   4.567   7.189 -0.9495 -0.1599  0.0231
   98SAPS   C35 9832   4.647   4.748   7.274 -0.3110 -0.1330 -0.0697
   98SAPS   H5X 9833   4.566   4.801   7.220  0.1038  0.8987  0.2850
   98SAPS   H5Y 9834   4.717   4.821   7.321  0.1387 -0.1884 -0.6547
   98SAPS   C36 9835   4.574   4.663   7.374  0.1361 -0.2215 -0.1376
   98SAPS   H6X 9836   4.512   4.582   7.330  1.0395 -0.0737 -1.7337
   98SAPS   H6Y 9837   4.510   4.729   7.436  0.4781  0.3710 -0.4092
   98SAPS   C37 9838   4.679   4.584   7.459  0.1141  0.1358  0.3587
   98SAPS   H7X 9839   4.730   4.655   7.527 -0.0818  0.2601  0.3770
   98SAPS   H7Y 9840   4.754   4.537   7.392  1.1878  1.1162  0.8338
   98SAPS   C38 9841   4.620   4.487   7.557 -0.7826 -0.7961  0.2093
   98SAPS   H8X 9842   4.704   4.417   7.574  1.9023  1.3762 -2.8973
   98SAPS   H8Y 9843   4.527   4.443   7.515 -0.8019 -0.4075 -0.1552
   98SAPS   C39 9844   4.567   4.553   7.691 -0.2258  0.3130 -0.2219
   98SAPS   H9X 9845   4.529   4.656   7.673 -1.4275 -0.5519 -3.3073
   98SAPS   H9Y 9846   4.647   4.549   7.768 -0.6392  0.1250  0.2114
   98SAPS  C310 9847   4.452   4.463   7.745  0.2195  0.0701 -0.3258
   98SAPS  H10X 9848   4.465   4.357   7.713 -0.8967  0.3427 -1.7669
   98SAPS  H10Y 9849   4.365   4.502   7.688 -1.2521 -0.5543  1.3788
   98SAPS  C311 9850   4.427   4.477   7.897  0.5233 -0.1230 -0.2254
   98SAPS  H11X 9851   4.502   4.424   7.958  1.1465  1.0963  0.0905
   98SAPS  H11Y 9852   4.331   4.427   7.921 -0.0431  1.5550  1.1568
   98SAPS  C312 9853   4.422   4.627   7.947 -0.0786  1.0216 -0.3464
   98SAPS  H12X 9854   4.330   4.669   7.902 -1.1843 -1.4792 -0.5919
   98SAPS  H12Y 9855   4.511   4.686   7.914  1.4331 -0.0966  1.5117
   98SAPS  C313 9856   4.422   4.627   8.101  0.4845 -0.0718 -0.2306
   98SAPS  H13X 9857   4.518   4.595   8.148  1.4291  1.6056 -0.9369
   98SAPS  H13Y 9858   4.343   4.558   8.137 -0.0018 -0.6403 -2.2877
   98SAPS  C314 9859   4.384   4.762   8.165 -0.2285  0.1530  0.7939
   98SAPS  H14X 9860   4.316   4.812   8.094 -1.2052 -2.2226 -0.0500
   98SAPS  H14Y 9861   4.477   4.821   8.150  1.0298 -1.8901  0.1335
   98SAPS  C315 9862   4.329   4.756   8.306  0.1693 -0.4496  0.1768
   98SAPS  H15X 9863   4.386   4.682   8.366 -3.0714 -2.9853  0.4277
   98SAPS  H15Y 9864   4.229   4.710   8.317 -0.5140  1.5906  3.8814
   98SAPS  C316 9865   4.337   4.895   8.362 -0.1062 -0.7329 -0.8532
   98SAPS  H16X 9866   4.272   4.954   8.293  0.3474 -0.4503 -1.0426
   98SAPS  H16Y 9867   4.431   4.954   8.359 -1.0937  0.9864  0.5292
   98SAPS  C317 9868   4.289   4.913   8.506  0.1550  0.2581  0.5746
   98SAPS  H17X 9869   4.357   4.866   8.581  0.3754 -4.3054 -2.1707
   98SAPS  H17Y 9870   4.188   4.868   8.511  0.8886 -1.5738 -0.2354
   98SAPS  C318 9871   4.261   5.057   8.544 -0.6772 -0.0471 -0.4738
   98SAPS  H18X 9872   4.221   5.075   8.647 -1.9689  1.1411 -1.1386
   98SAPS  H18Y 9873   4.185   5.099   8.474 -0.5340  2.0453  0.5218
   98SAPS  H18Z 9874   4.358   5.111   8.533 -1.5570  1.2711 -2.4318
   99SAPS     N 9875   2.333   2.613   5.820 -0.7199 -0.0301 -0.0569
   99SAPS   HN1 9876   2.396   2.656   5.890  0.0450 -0.0434 -0.7310
   99SAPS   HN2 9877   2.369   2.627   5.724 -1.0127  1.9481  0.0939
   99SAPS   HN3 9878   2.244   2.667   5.828  0.8265  2.5405  0.8125
   99SAPS   C12 9879   2.318   2.467   5.835 -0.0438 -0.3738  0.2703
   99SAPS  H12A 9880   2.245   2.443   5.911  0.2334  0.0080  0.6725
   99SAPS   C13 9881   2.261   2.396   5.706 -0.3625  0.2738 -0.6671
   99SAPS  O13A 9882   2.261   2.459   5.597 -0.0728 -0.4105 -0.8034
   99SAPS  O13B 9883   2.254   2.270   5.703  0.4944  0.1168 -0.0668
   99SAPS   C11 9884   2.456   2.404   5.870  0.0716  0.4993  0.4237
   99SAPS  H11A 9885   2.533   2.443   5.799 -0.1501  0.0121 -0.0885
   99SAPS  H11B 9886   2.453   2.293   5.869  0.0149  0.5053 -0.0692
   99SAPS     P 9887   2.539   2.326   6.115  0.2201 -0.4326 -0.2735
   99SAPS   O13 9888   2.642   2.237   6.053  0.0693 -0.0988  0.6776
   99SAPS   O14 9889   2.579   2.403   6.238 -0.0942  0.0651  1.0811
   99SAPS   O12 9890   2.499   2.436   6.004 -0.1447  0.3038 -0.2647
   99SAPS   O11 9891   2.398   2.249   6.131  0.3805  0.0924  0.2580
   99SAPS    C1 9892   2.282   2.310   6.195 -0.7481  0.3790 -0.0554
   99SAPS    HA 9893   2.291   2.412   6.238 -0.3446 -0.1219  1.0833
   99SAPS    HB 9894   2.207   2.312   6.113 -1.9269  0.2928  0.9964
   99SAPS    C2 9895   2.229   2.216   6.304  0.6338  0.2244  0.3231
   99SAPS    HS 9896   2.129   2.250   6.340 -0.6073 -0.2458 -2.4101
   99SAPS   O21 9897   2.322   2.195   6.418  0.1790 -0.0924  0.1143
   99SAPS   C21 9898   2.346   2.299   6.491 -0.6231  0.5000 -0.2429
   99SAPS   O22 9899   2.275   2.394   6.511 -0.1822  0.0561 -0.2114
   99SAPS   C22 9900   2.484   2.291   6.561  0.1377  0.1032  0.3815
   99SAPS   H2R 9901   2.482   2.190   6.606 -1.4753  0.5551  1.3928
   99SAPS   H2S 9902   2.567   2.301   6.488 -1.1221 -1.2532 -1.3195
   99SAPS    C3 9903   2.183   2.075   6.238 -0.2491  0.2680 -0.1342
   99SAPS    HX 9904   2.272   2.023   6.197  0.0650  1.1735 -0.6427
   99SAPS    HY 9905   2.114   2.107   6.157 -1.5009 -1.8230  0.0366
   99SAPS   O31 9906   2.112   1.991   6.333 -0.5279  0.7051 -0.2184
   99SAPS   C31 9907   2.063   1.882   6.271 -0.2825 -0.1076 -0.1242
   99SAPS   O32 9908   2.084   1.851   6.156 -0.2400  0.1757 -0.2904
   99SAPS   C32 9909   1.963   1.802   6.362  0.0807  0.8990 -0.1874
   99SAPS   H2X 9910   2.003   1.699   6.364  2.0490  1.6102 -0.9923
   99SAPS   H2Y 9911   1.864   1.800   6.312  0.2119 -0.9929 -0.4303
   99SAPS   C23 9912   2.490   2.397   6.669 -0.0755 -0.1308 -0.5143
   99SAPS   H3R 9913   2.404   2.386   6.738  0.7559 -1.5101  0.3700
   99SAPS   H3S 9914   2.493   2.491   6.610  1.9395  0.6674  0.7551
   99SAPS   C24 9915   2.616   2.415   6.749 -0.5551 -0.0144  0.1485
   99SAPS   H4R 9916   2.605   2.497   6.824  0.8849 -1.5192  2.0871
   99SAPS   H4S 9917   2.699   2.441   6.680  1.4945 -1.6592  1.8706
   99SAPS   C25 9918   2.654   2.286   6.814 -0.1590 -0.4177 -0.0438
   99SAPS   H5R 9919   2.696   2.218   6.739  3.3340  0.8607  0.5638
   99SAPS   C26 9920   2.639   2.243   6.940  0.7626  0.0130  0.0904
   99SAPS   H6R 9921   2.683   2.143   6.952  1.1702  0.1615 -0.1565
   99SAPS   C27 9922   2.577   2.309   7.064  0.2667  0.1331 -0.2664
   99SAPS   H7R 9923   2.564   2.225   7.136  0.5275 -0.7999 -1.2750
   99SAPS   H7S 9924   2.477   2.351   7.043  0.1158  0.2888  0.6930
   99SAPS   C28 9925   2.668   2.416   7.123 -0.2461 -0.3598 -0.2445
   99SAPS   H8R 9926   2.765   2.433   7.073  0.2661 -0.2664  0.7531
   99SAPS   C29 9927   2.652   2.472   7.244  0.3492 -0.1050  0.4289
   99SAPS   H9R 9928   2.732   2.544   7.270 -0.6292  0.5007  1.9392
   99SAPS  C210 9929   2.530   2.450   7.329  0.6184  0.2012 -0.2864
   99SAPS  H10R 9930   2.525   2.344   7.362 -1.4333  1.4697  4.4306
   99SAPS  H10S 9931   2.438   2.452   7.267  0.1197  0.4044  0.4442
   99SAPS  C211 9932   2.506   2.540   7.453  0.0743 -0.0196 -0.3446
   99SAPS  H11R 9933   2.503   2.648   7.429  0.7996 -0.2573 -1.5985
   99SAPS  C212 9934   2.469   2.502   7.580  0.4146  0.9647 -0.0241
   99SAPS  H12R 9935   2.443   2.582   7.650 -0.5813  0.9474 -0.3646
   99SAPS  C213 9936   2.445   2.362   7.630  0.1624 -0.5316  0.9052
   99SAPS  H13R 9937   2.430   2.307   7.534  2.4031  1.4618 -0.7279
   99SAPS  H13S 9938   2.350   2.354   7.685 -1.0334  0.8524 -0.8168
   99SAPS  C214 9939   2.574   2.303   7.696  0.3925 -0.4529 -0.3848
   99SAPS  H14R 9940   2.659   2.279   7.630  0.8924  0.1180  0.0479
   99SAPS  C215 9941   2.594   2.277   7.827  0.4194 -0.2485 -0.3140
   99SAPS  H15R 9942   2.690   2.231   7.856  1.5087  0.2919 -2.8133
   99SAPS  C216 9943   2.486   2.287   7.931  0.1408  0.2161 -0.9292
   99SAPS  H16R 9944   2.455   2.187   7.969 -1.3240  0.3197 -1.7743
   99SAPS  H16S 9945   2.398   2.342   7.891 -1.7928  2.1989  4.9979
   99SAPS  C217 9946   2.512   2.369   8.058  0.2812 -0.1668 -0.0596
   99SAPS  H17R 9947   2.555   2.467   8.031  2.5407 -0.5550  1.7791
   99SAPS  H17S 9948   2.585   2.308   8.117 -1.7705 -1.0398  1.7043
   99SAPS  C218 9949   2.384   2.388   8.144 -0.0259  0.1322  0.4102
   99SAPS  H18R 9950   2.346   2.284   8.155  0.6229 -0.3041 -1.2068
   99SAPS  H18S 9951   2.307   2.439   8.082  0.4939  0.2951 -0.1054
   99SAPS  C219 9952   2.415   2.454   8.273  0.0993  0.0330 -0.5683
   99SAPS  H19R 9953   2.469   2.550   8.257  0.6892 -0.5113 -1.9587
   99SAPS  H19S 9954   2.487   2.392   8.330  1.3470  1.4245 -0.5619
   99SAPS  C220 9955   2.283   2.482   8.347  0.3106 -0.4784  0.1979
   99SAPS  H20R 9956   2.229   2.554   8.281  1.3091  0.1397  0.0400
   99SAPS  H20S 9957   2.300   2.526   8.447  0.9228  0.0391 -0.1261
   99SAPS  H20T 9958   2.229   2.385   8.358  0.0903 -0.3019  0.6867
   99SAPS   C33 9959   1.955   1.861   6.505  0.0350 -0.7996  0.6533
   99SAPS   H3X 9960   1.873   1.805   6.555  0.1837  1.5707  3.8711
   99SAPS   H3Y 9961   1.925   1.968   6.513 -0.0177 -0.8145  0.6544
   99SAPS   C34 9962   2.090   1.837   6.585 -0.0414  0.2703 -0.0798
   99SAPS   H4X 9963   2.156   1.919   6.549 -0.4418  0.9884  0.7752
   99SAPS   H4Y 9964   2.133   1.738   6.561 -1.9163 -0.7182  0.3908
   99SAPS   C35 9965   2.079   1.850   6.749 -0.1864 -0.6824 -0.2897
   99SAPS   H5X 9966   2.166   1.807   6.804  0.2141  0.4455 -0.0123
   99SAPS   H5Y 9967   1.987   1.792   6.771  0.1966 -0.9513  0.6310
   99SAPS   C36 9968   2.063   1.996   6.801  0.2634 -0.1812  0.5163
   99SAPS   H6X 9969   1.999   2.057   6.733  0.2056 -1.3914 -0.5414
   99SAPS   H6Y 9970   2.160   2.050   6.803 -0.4266  1.2196  4.4063
   99SAPS   C37 9971   2.014   2.004   6.953  0.6457  0.0387  0.0220
   99SAPS   H7X 9972   2.081   1.944   7.018 -0.8831  0.8791  2.4749
   99SAPS   H7Y 9973   1.910   1.968   6.964  1.3919 -2.6559 -0.9172
   99SAPS   C38 9974   2.026   2.148   6.999  0.1110  0.2379 -0.4425
   99SAPS   H8X 9975   1.959   2.215   6.941 -2.6155 -1.5492  0.4437
   99SAPS   H8Y 9976   2.132   2.181   6.993  0.1827 -0.0915 -1.2132
   99SAPS   C39 9977   1.987   2.181   7.145  0.2082 -0.0986 -0.5639
   99SAPS   H9X 9978   1.888   2.137   7.171 -1.2200  1.3793 -3.1027
   99SAPS   H9Y 9979   1.985   2.290   7.168 -0.9607 -0.6855  2.5270
   99SAPS  C310 9980   2.097   2.127   7.245  0.1098  0.3077 -0.2101
   99SAPS  H10X 9981   2.192   2.182   7.225  0.3210 -0.5058 -1.5784
   99SAPS  H10Y 9982   2.123   2.022   7.220  1.0049  1.0347 -2.6334
   99SAPS  C311 9983   2.052   2.107   7.390  0.1557 -0.1080 -0.2082
   99SAPS  H11X 9984   1.986   2.019   7.405  0.8342 -0.8091 -1.2645
   99SAPS  H11Y 9985   2.005   2.200   7.430 -0.6866 -1.4384  2.1419
   99SAPS  C312 9986   2.170   2.078   7.483 -0.2824  0.3228  0.3808
   99SAPS  H12X 9987   2.250   2.155   7.478  0.2752 -0.2797 -0.1852
   99SAPS  H12Y 9988   2.217   1.980   7.458 -0.4241  0.5736 -0.8888
   99SAPS  C313 9989   2.116   2.064   7.632 -0.5707  0.2599  0.7290
   99SAPS  H13X 9990   2.039   1.983   7.629 -0.1546 -0.1064 -0.1455
   99SAPS  H13Y 9991   2.076   2.163   7.665  1.2455  1.6136 -0.9236
   99SAPS  C314 9992   2.232   2.024   7.731 -0.0308  0.2194  0.9351
   99SAPS  H14X 9993   2.304   2.109   7.724  2.3579 -1.7016  0.7739
   99SAPS  H14Y 9994   2.293   1.941   7.689  1.0314  0.5901  1.6965
   99SAPS  C315 9995   2.190   1.986   7.875  0.3750 -0.3185 -0.0444
   99SAPS  H15X 9996   2.114   2.053   7.919  0.4232 -0.4650  0.2630
   99SAPS  H15Y 9997   2.281   2.000   7.937 -0.6562  1.4026  1.1622
   99SAPS  C316 9998   2.153   1.842   7.898  0.9510  0.1339 -0.2865
   99SAPS  H16X 9999   2.223   1.770   7.852  2.2195  0.7703  0.5807
   99SAPS  H16Y10000   2.049   1.827   7.862  0.2948  1.3877  0.9762
   99SAPS  C31710001   2.154   1.826   8.051  0.2130  0.4672 -0.2669
   99SAPS  H17X10002   2.115   1.921   8.094  1.4308 -0.5734  3.4594
   99SAPS  H17Y10003   2.259   1.814   8.085 -0.1211  1.2476  1.0930
   99SAPS  C31810004   2.061   1.707   8.078 -0.8142 -0.7629 -0.4286
   99SAPS  H18X10005   2.065   1.691   8.188 -0.5188 -1.5247 -0.5445
   99SAPS  H18Y10006   2.094   1.612   8.031  1.1062 -0.1151 -0.4817
   99SAPS  H18Z10007   1.956   1.737   8.056 -0.6023  0.9075  0.6599
  100SAPS     N10008   0.768   5.300   6.172 -0.5825  0.2034  0.2983
  100SAPS   HN110009   0.828   5.318   6.255 -0.8328  0.4570  0.4249
  100SAPS   HN210010   0.672   5.264   6.192  0.4690 -2.5006  0.9399
  100SAPS   HN310011   0.814   5.217   6.130  1.1912  0.6037  1.3422
  100SAPS   C1210012   0.749   5.418   6.084  0.3826  0.3513 -0.5432
  100SAPS  H12A10013   0.848   5.459   6.096  1.1282 -1.4838 -0.0782
  100SAPS   C1310014   0.715   5.388   5.933  0.1292  0.2142  0.9690
  100SAPS  O13A10015   0.727   5.278   5.879  0.0991  0.3121 -0.3875
  100SAPS  O13B10016   0.689   5.489   5.856 -0.1030 -0.2503 -0.0850
  100SAPS   C1110017   0.644   5.518   6.135 -0.6495 -0.2704 -0.4136
  100SAPS  H11A10018   0.544   5.469   6.127  0.9253 -3.5442 -2.2770
  100SAPS  H11B10019   0.639   5.609   6.072 -1.5738 -0.1242 -0.1491
  100SAPS     P10020   0.743   5.693   6.301  0.0196 -0.5576  0.0184
  100SAPS   O1310021   0.845   5.733   6.201 -0.2497 -0.8022 -0.3298
  100SAPS   O1410022   0.634   5.784   6.323 -0.8259  0.3605  0.1601
  100SAPS   O1210023   0.675   5.560   6.269 -0.2357 -0.1087 -0.2920
  100SAPS   O1110024   0.814   5.672   6.437  0.3867 -0.4031 -0.2694
  100SAPS    C110025   0.771   5.568   6.523  0.8985  0.1413 -0.0949
  100SAPS    HA10026   0.759   5.472   6.469  2.9055 -0.0346 -0.3165
  100SAPS    HB10027   0.854   5.540   6.591  1.7678 -1.6864 -1.8199
  100SAPS    C210028   0.645   5.606   6.602 -0.3077  0.1096 -0.2644
  100SAPS    HS10029   0.565   5.616   6.525  0.3337 -0.9645 -1.1082
  100SAPS   O2110030   0.674   5.721   6.679  0.7810 -0.2534  0.2548
  100SAPS   C2110031   0.570   5.788   6.734 -0.2963 -0.0359  0.6392
  100SAPS   O2210032   0.454   5.766   6.708 -0.5305  0.1775 -0.4317
  100SAPS   C2210033   0.626   5.898   6.826 -0.3690  0.0684 -0.5276
  100SAPS   H2R10034   0.702   5.853   6.894  0.0118 -0.2553 -1.1616
  100SAPS   H2S10035   0.656   5.980   6.758  0.4814  0.3923  0.2211
  100SAPS    C310036   0.611   5.483   6.681 -0.2789  0.4606  0.2542
  100SAPS    HX10037   0.602   5.403   6.604 -0.4148 -0.6463  1.3788
  100SAPS    HY10038   0.506   5.496   6.715 -0.6459  0.2769 -0.7816
  100SAPS   O3110039   0.704   5.458   6.786 -0.4747 -0.3807 -0.1465
  100SAPS   C3110040   0.660   5.468   6.914 -0.0543 -0.3696  0.4912
  100SAPS   O3210041   0.548   5.503   6.945  0.0969  0.5380  0.2531
  100SAPS   C3210042   0.774   5.453   7.017 -0.2627  0.4899  0.7363
  100SAPS   H2X10043   0.870   5.435   6.963  0.0332  3.4872  0.0857
  100SAPS   H2Y10044   0.742   5.364   7.076  0.7299 -1.2681 -1.2515
  100SAPS   C2310045   0.507   5.961   6.909 -0.8674 -0.4513  0.4254
  100SAPS   H3R10046   0.425   5.973   6.835 -3.5988 -0.3038  3.2846
  100SAPS   H3S10047   0.539   6.053   6.962 -1.3167  0.2449 -0.4776
  100SAPS   C2410048   0.459   5.855   7.013  0.2524  0.4456 -0.8009
  100SAPS   H4R10049   0.538   5.825   7.084  0.5463 -1.4184 -1.8674
  100SAPS   H4S10050   0.440   5.760   6.959  0.9641 -0.1192 -0.0667
  100SAPS   C2510051   0.330   5.893   7.079 -0.2163 -0.4007 -0.6517
  100SAPS   H5R10052   0.248   5.931   7.018 -1.2852  0.7993  1.3958
  100SAPS   C2610053   0.311   5.898   7.216 -0.3431 -0.0792  0.3844
  100SAPS   H6R10054   0.213   5.931   7.253 -0.4359 -2.4133  2.5335
  100SAPS   C2710055   0.403   5.847   7.325 -0.2981 -0.0475  0.1747
  100SAPS   H7R10056   0.368   5.892   7.421 -1.0656  0.7140 -0.4472
  100SAPS   H7S10057   0.505   5.879   7.294 -0.2082  1.3189  1.7527
  100SAPS   C2810058   0.406   5.695   7.349  0.3782 -0.3578  0.1862
  100SAPS   H8R10059   0.372   5.636   7.262  2.4375 -2.9335  0.9923
  100SAPS   C2910060   0.409   5.649   7.472 -0.1709 -0.0897  0.5942
  100SAPS   H9R10061   0.397   5.540   7.481  0.2357 -0.0819  1.2567
  100SAPS  C21010062   0.420   5.723   7.605 -0.6637 -0.1740  0.0225
  100SAPS  H10R10063   0.331   5.715   7.672  0.8769  0.3932  2.2270
  100SAPS  H10S10064   0.438   5.831   7.590 -0.7386 -0.2315 -0.5060
  100SAPS  C21110065   0.528   5.659   7.690 -0.0724  0.7020 -0.5957
  100SAPS  H11R10066   0.623   5.652   7.634 -0.8187 -2.2978 -1.6573
  100SAPS  C21210067   0.530   5.643   7.827 -0.5463  0.0554  1.0888
  100SAPS  H12R10068   0.616   5.606   7.885 -0.9555 -0.9128  1.0813
  100SAPS  C21310069   0.413   5.662   7.916 -0.8318 -0.1969 -0.2641
  100SAPS  H13R10070   0.335   5.584   7.900  0.9573 -1.7981 -1.7341
  100SAPS  H13S10071   0.371   5.754   7.870  0.3051 -0.6844 -2.4175
  100SAPS  C21410072   0.435   5.677   8.065  0.1807  0.9976  0.4779
  100SAPS  H14R10073   0.538   5.708   8.088 -0.2023  1.9137  0.9883
  100SAPS  C21510074   0.355   5.652   8.171 -0.1914  0.0017  0.5388
  100SAPS  H15R10075   0.393   5.642   8.273 -5.7285  1.2357  3.0877
  100SAPS  C21610076   0.215   5.607   8.160  0.4674  0.4337 -0.2379
  100SAPS  H16R10077   0.195   5.557   8.063  2.2235 -0.1520 -0.3255
  100SAPS  H16S10078   0.154   5.699   8.171  0.4789  0.3086  1.0867
  100SAPS  C21710079   0.162   5.502   8.264 -0.4740  0.1882  0.7751
  100SAPS  H17R10080   0.197   5.398   8.247 -3.7057 -0.6699 -1.8851
  100SAPS  H17S10081   0.051   5.506   8.258 -0.3859  2.6689 -0.1685
  100SAPS  C21810082   0.199   5.541   8.399  0.2833  0.7642  0.5244
  100SAPS  H18R10083   0.152   5.641   8.414 -4.4146 -0.6504 -2.3593
  100SAPS  H18S10084   0.308   5.549   8.417  0.8746 -0.9655 -1.7527
  100SAPS  C21910085   0.146   5.449   8.504 -0.2222  1.0181 -0.0654
  100SAPS  H19R10086   0.151   5.341   8.476 -0.9723  0.1469  2.7849
  100SAPS  H19S10087   0.036   5.467   8.505 -0.7500 -1.3034 -2.4266
  100SAPS  C22010088   0.203   5.464   8.643 -1.1440 -0.2466 -0.4614
  100SAPS  H20R10089   0.310   5.434   8.649 -0.8742  0.8572  0.8014
  100SAPS  H20S10090   0.142   5.394   8.704 -1.5529  1.4150  1.1308
  100SAPS  H20T10091   0.197   5.566   8.689  0.5056 -0.8800  1.3047
  100SAPS   C3310092   0.779   5.564   7.123  0.1916  1.2109 -0.3828
  100SAPS   H3X10093   0.683   5.569   7.179 -0.3407  1.2751 -1.2774
  100SAPS   H3Y10094   0.790   5.664   7.076  0.5432  0.6426 -1.5214
  100SAPS   C3410095   0.901   5.541   7.213  0.7778 -0.0977  0.5310
  100SAPS   H4X10096   0.989   5.538   7.145  1.1964 -1.1545  1.0958
  100SAPS   H4Y10097   0.888   5.441   7.260  1.9874 -0.0023  1.0996
  100SAPS   C3510098   0.924   5.657   7.317 -0.1069 -0.5784 -0.4705
  100SAPS   H5X10099   0.975   5.748   7.278  2.4375 -1.1546  1.2608
  100SAPS   H5Y10100   1.003   5.619   7.385  0.0954  1.1887  0.3420
  100SAPS   C3610101   0.806   5.691   7.404  0.2456 -0.4113 -0.1714
  100SAPS   H6X10102   0.781   5.602   7.467  0.5625  0.0984  0.6897
  100SAPS   H6Y10103   0.721   5.707   7.334  0.5964  1.4680 -0.2104
  100SAPS   C3710104   0.839   5.806   7.495  0.1748  0.2020  0.3801
  100SAPS   H7X10105   0.743   5.851   7.530 -0.1440  0.3569 -0.6740
  100SAPS   H7Y10106   0.891   5.889   7.444  0.0210  0.3288  0.4277
  100SAPS   C3810107   0.915   5.773   7.629 -0.6288 -0.1302 -0.0144
  100SAPS   H8X10108   1.004   5.710   7.605 -1.0788 -0.3786 -1.0746
  100SAPS   H8Y10109   0.845   5.719   7.695  1.6376 -0.2305  2.4698
  100SAPS   C3910110   0.954   5.902   7.696 -0.1122 -0.5438 -0.1354
  100SAPS   H9X10111   0.868   5.969   7.676 -1.1385 -2.0625 -1.0073
  100SAPS   H9Y10112   1.054   5.924   7.654  0.9476 -0.7313  2.1093
  100SAPS  C31010113   0.963   5.891   7.851  0.4639  0.2493 -0.1436
  100SAPS  H10X10114   1.049   5.823   7.868 -1.3205 -1.9884  0.4064
  100SAPS  H10Y10115   0.868   5.849   7.890  1.1803 -0.8915  0.3989
  100SAPS  C31110116   0.975   6.026   7.923 -0.2799  0.0233  1.2493
  100SAPS  H11X10117   0.913   6.108   7.883  0.6719  0.7910  1.2915
  100SAPS  H11Y10118   1.078   6.066   7.906 -0.1367  0.1933  2.3749
  100SAPS  C31210119   0.950   6.028   8.075 -0.4129 -0.1253  0.4091
  100SAPS  H12X10120   0.975   5.932   8.125 -1.2536 -0.7376 -0.3194
  100SAPS  H12Y10121   0.842   6.037   8.098 -0.6562 -0.1182 -0.6987
  100SAPS  C31310122   1.011   6.151   8.145  0.6095 -0.2976  0.5011
  100SAPS  H13X10123   0.962   6.239   8.098 -1.2537 -1.5362  0.0140
  100SAPS  H13Y10124   1.122   6.146   8.137  0.8407 -0.8922  3.0253
  100SAPS  C31410125   0.994   6.162   8.297  0.7835 -0.3892 -0.3034
  100SAPS  H14X10126   1.085   6.212   8.338 -0.7088  2.6008 -0.3550
  100SAPS  H14Y10127   0.985   6.064   8.347  2.7252  0.6261  2.2991
  100SAPS  C31510128   0.868   6.236   8.364 -0.9841 -0.2658 -0.0235
  100SAPS  H15X10129   0.865   6.204   8.470 -0.8835 -0.9723 -0.2297
  100SAPS  H15Y10130   0.774   6.198   8.318 -1.1186  0.2337 -0.1716
  100SAPS  C31610131   0.865   6.388   8.346 -0.3149 -0.2199 -0.2389
  100SAPS  H16X10132   0.882   6.430   8.244  1.7467  0.1408  0.2072
  100SAPS  H16Y10133   0.952   6.419   8.408  1.0317 -1.1698 -1.5662
  100SAPS  C31710134   0.722   6.436   8.395  0.4891  0.3636  0.9993
  100SAPS  H17X10135   0.700   6.403   8.499  1.7849  1.4989  1.6717
  100SAPS  H17Y10136   0.652   6.384   8.326  0.6707  2.2671 -0.6860
  100SAPS  C31810137   0.701   6.585   8.385 -0.1722  0.0987 -0.1907
  100SAPS  H18X10138   0.726   6.620   8.283  1.1675 -1.9055 -0.6312
  100SAPS  H18Y10139   0.772   6.633   8.456 -0.6181  1.1763 -0.4636
  100SAPS  H18Z10140   0.597   6.614   8.406 -0.9275 -1.9795 -0.7574
  101OSM      N10141   4.397   5.436  10.736  0.3385  0.1961 -0.2990
  101OSM    C1510142   4.409   5.287  10.721  0.0121 -0.1835 -0.7307
  101OSM   H15A10143   4.334   5.250  10.654 -0.6775  0.2746 -0.2303
  101OSM   H15B10144   4.388   5.241  10.817  1.4048  2.2675  0.8798
  101OSM   H15C10145   4.506   5.257  10.684  0.9020  0.9553  0.5272
  101OSM    C1410146   4.391   5.506  10.600 -0.4701  0.0672 -0.4436
  101OSM   H14A10147   4.311   5.464  10.541  0.0680 -2.6112  0.5999
  101OSM   H14B10148   4.483   5.492  10.545  1.1715 -1.4554  2.4076
  101OSM   H14C10149   4.380   5.611  10.622 -1.5955 -0.5177  2.1766
  101OSM    C1310150   4.263   5.451  10.804 -0.3022 -0.0064  0.1747
  101OSM   H13A10151   4.254   5.384  10.889 -3.2024 -0.7158 -0.5822
  101OSM   H13B10152   4.185   5.426  10.734 -1.0708 -0.7253  1.2584
  101OSM   H13C10153   4.254   5.548  10.850  2.1789 -0.0026  0.8225
  101OSM    C1210154   4.513   5.488  10.824  0.3297 -0.0727  0.5265
  101OSM   H12A10155   4.606   5.465  10.772  0.1869  1.6779 -0.5818
  101OSM   H12B10156   4.513   5.434  10.917  1.6533  1.8628  1.7269
  101OSM    C1110157   4.514   5.636  10.860 -0.1610 -0.0522 -0.0501
  101OSM   H11A10158   4.599   5.641  10.932 -0.2887 -1.2947  0.2178
  101OSM   H11B10159   4.422   5.668  10.912 -1.0267 -0.4308 -1.2970
  101OSM      P10160   4.685   5.766  10.703  0.1292  0.2716  0.0339
  101OSM    O1310161   4.698   5.902  10.753  0.0839  0.3686 -0.0800
  101OSM    O1410162   4.791   5.673  10.741 -0.6018  0.3855 -0.0979
  101OSM    O1110163   4.692   5.765  10.547  0.3122 -0.3552  0.2816
  101OSM    O1210164   4.544   5.713  10.739  0.2097 -0.5513  0.6557
  101OSM    C1S10165   4.574   5.751  10.466 -0.2071 -0.2251  0.5002
  101OSM    H1S10166   4.496   5.829  10.481 -0.6747 -0.7318  0.7101
  101OSM    H1T10167   4.532   5.648  10.466  1.9230 -1.1456  0.1013
  101OSM     NF10168   4.494   5.788  10.226 -0.0653 -0.1099  0.5151
  101OSM    HNF10169   4.463   5.715  10.165 -2.7775 -0.1600  1.7887
  101OSM    C2S10170   4.609   5.769  10.312 -0.1105  0.1200  0.1961
  101OSM    H2S10171   4.673   5.859  10.314 -0.4745  0.3740  0.7601
  101OSM    C3S10172   4.701   5.649  10.259 -0.1892 -0.6965 -0.1742
  101OSM    H3S10173   4.630   5.564  10.253 -2.2216  1.0015 -1.9518
  101OSM     O310174   4.810   5.623  10.347 -0.4946  0.8079 -0.3141
  101OSM    HO310175   4.783   5.669  10.426 -2.8192 -0.6561 -0.1488
  101OSM    C4S10176   4.738   5.684  10.114 -0.2582  0.6893 -0.1581
  101OSM    H4S10177   4.694   5.629  10.030  0.1463 -1.6513  1.0675
  101OSM    C5S10178   4.837   5.767  10.083 -0.7176  0.0526  0.4527
  101OSM    H5S10179   4.905   5.814  10.156  0.8669 -0.7170 -0.4629
  101OSM    C6S10180   4.873   5.800   9.938 -0.5439  0.1088 -0.0165
  101OSM    H6S10181   4.897   5.703   9.890  1.4915 -1.5041  3.8217
  101OSM    H6T10182   4.959   5.867   9.917  0.4344 -1.7296 -2.3400
  101OSM    C7S10183   4.757   5.847   9.851 -0.0865 -0.1882  0.3833
  101OSM    H7S10184   4.706   5.927   9.909 -0.4926 -0.0258 -0.1830
  101OSM    H7T10185   4.674   5.775   9.835  1.0181 -0.9267 -2.7934
  101OSM    C8S10186   4.797   5.886   9.709 -0.0287 -0.2924  0.1192
  101OSM    H8S10187   4.872   5.967   9.720  1.4049 -1.4831 -0.3984
  101OSM    H8T10188   4.712   5.931   9.653 -0.7259 -0.3800  1.0831
  101OSM    C9S10189   4.861   5.776   9.624 -0.3791  0.2753  0.2793
  101OSM    H9S10190   4.811   5.678   9.639  1.6651 -0.6040  1.9519
  101OSM    H9T10191   4.966   5.776   9.661 -0.1540 -0.5944 -0.3373
  101OSM   C10S10192   4.864   5.817   9.477 -0.3009  0.0410 -0.5225
  101OSM   H10S10193   4.868   5.928   9.475 -1.1465  0.0858  0.0437
  101OSM   H10T10194   4.773   5.791   9.418  0.8082  1.9272 -3.3282
  101OSM   C11S10195   4.986   5.765   9.402  0.6869  0.5099 -0.2908
  101OSM   H11S10196   4.994   5.654   9.409  1.4504  0.6436  1.3126
  101OSM   H11T10197   5.070   5.785   9.471  0.9100  0.4718 -0.5494
  101OSM   C12S10198   4.998   5.810   9.256 -0.5230  0.2749  0.9299
  101OSM   H12S10199   5.015   5.920   9.246  1.4241 -0.1834 -2.2952
  101OSM   H12T10200   4.907   5.772   9.205  0.6256 -1.8331  0.3382
  101OSM   C13S10201   5.125   5.751   9.186  0.2219  0.2592 -0.8408
  101OSM   H13S10202   5.127   5.640   9.189  0.6916  0.2715 -0.3676
  101OSM   H13T10203   5.213   5.795   9.239  1.3028 -0.8539 -1.6376
  101OSM   C14S10204   5.152   5.792   9.036 -0.1772  0.2201  0.7757
  101OSM   H14S10205   5.244   5.737   9.006  0.8804  0.8922  2.6434
  101OSM   H14T10206   5.172   5.901   9.036 -0.0092  0.1932  1.2957
  101OSM   C15S10207   5.042   5.744   8.941  0.0935  0.4232  0.3771
  101OSM   H15S10208   4.944   5.772   8.986 -0.8232 -1.5409 -0.2939
  101OSM   H15T10209   5.036   5.633   8.938 -3.3552  0.4494  1.3196
  101OSM   C16S10210   5.054   5.800   8.792  0.3960 -0.6729 -0.0205
  101OSM   H16S10211   5.151   5.760   8.754  0.2884 -1.5269  0.5721
  101OSM   H16T10212   5.053   5.911   8.788 -2.2639 -0.6531 -2.3048
  101OSM   C17S10213   4.944   5.758   8.700  0.8110 -0.7874  0.1107
  101OSM   H17S10214   4.942   5.826   8.612 -4.2398 -1.0368 -0.2828
  101OSM   H17T10215   4.850   5.781   8.755  0.5402 -4.0341  1.2259
  101OSM   C18S10216   4.949   5.611   8.665  0.1870 -0.2443  0.2252
  101OSM   H18S10217   4.869   5.592   8.591  0.5369  1.8796 -0.7507
  101OSM   H18T10218   4.923   5.540   8.747 -1.5258 -1.7661 -1.5200
  101OSM   H18U10219   5.051   5.588   8.627  0.8860  1.8648  0.6603
  101OSM    C1F10220   4.411   5.889  10.239 -0.5482 -0.3107 -0.0898
  101OSM     OF10221   4.437   5.992  10.307 -0.0726 -0.5932  1.0027
  101OSM    C2F10222   4.296   5.894  10.141  0.4828  0.5406 -0.4220
  101OSM    H2F10223   4.244   5.992  10.135  1.8118  1.3272  0.4559
  101OSM    H2G10224   4.218   5.825  10.181  3.1788 -2.1697  0.5882
  101OSM    C3F10225   4.319   5.868   9.986 -0.3803 -1.1200 -0.6645
  101OSM    H3F10226   4.221   5.840   9.942 -0.7958  0.3349 -0.6940
  101OSM    H3G10227   4.406   5.800   9.976  0.1303 -0.6942  0.6207
  101OSM    C4F10228   4.362   6.001   9.913 -0.3460  0.0114 -0.1272
  101OSM    H4F10229   4.463   6.024   9.952  0.3457 -2.6087 -0.1680
  101OSM    H4G10230   4.287   6.081   9.932  1.0608  1.3791 -0.1738
  101OSM    C5F10231   4.385   5.984   9.756 -0.0224 -0.8637  0.5048
  101OSM    H5F10232   4.437   5.891   9.724 -2.7940 -1.9840 -1.0695
  101OSM    H5G10233   4.429   6.080   9.721 -1.7764  0.5267  1.9021
  101OSM    C6F10234   4.259   5.980   9.672  0.1010 -0.3485 -0.2040
  101OSM    H6F10235   4.202   6.068   9.708  0.3487 -0.6006  0.8558
  101OSM    H6G10236   4.206   5.889   9.707  1.6292 -1.2689 -0.1847
  101OSM    C7F10237   4.270   5.971   9.520 -0.2035 -0.0528  0.1013
  101OSM    H7F10238   4.169   5.986   9.477 -0.3935  1.4876  1.0269
  101OSM    H7G10239   4.305   5.870   9.487 -0.6724 -0.3151  0.4068
  101OSM    C8F10240   4.371   6.075   9.456  0.4058 -0.2768 -0.0150
  101OSM    H8F10241   4.362   6.037   9.352 -2.1903 -2.4978  0.9023
  101OSM    H8G10242   4.469   6.050   9.502  0.6104 -2.0611 -1.3357
  101OSM    C9F10243   4.336   6.222   9.462  0.4363  0.0323 -0.3965
  101OSM    H9F10244   4.309   6.258   9.563  1.8055  0.4538 -0.1610
  101OSM   C10F10245   4.336   6.316   9.367 -0.3658  0.1917  0.7842
  101OSM   H10F10246   4.315   6.419   9.399  0.2159 -0.0118  1.8396
  101OSM   C11F10247   4.374   6.290   9.227  0.3073 -0.0068 -0.1409
  101OSM   H11F10248   4.362   6.181   9.206  0.3098 -0.3789  1.6630
  101OSM   H11G10249   4.471   6.336   9.200 -0.0418 -0.8425 -3.2340
  101OSM   C12F10250   4.262   6.370   9.158 -0.5615 -0.5756  0.0255
  101OSM   H12F10251   4.247   6.471   9.200  2.6530  0.3109 -0.6841
  101OSM   H12G10252   4.165   6.318   9.173 -1.5356  0.9275 -0.8113
  101OSM   C13F10253   4.276   6.381   9.004 -0.8948  0.2074  0.1600
  101OSM   H13F10254   4.197   6.319   8.957 -1.8032  2.8577 -2.1253
  101OSM   H13G10255   4.370   6.330   8.976 -0.4880 -0.7779  2.9651
  101OSM   C14F10256   4.275   6.524   8.950  0.0386  0.4952  0.6154
  101OSM   H14F10257   4.364   6.576   8.993 -0.6979  3.3216 -1.0571
  101OSM   H14G10258   4.178   6.577   8.961 -0.7721  0.0579 -3.2222
  101OSM   C15F10259   4.302   6.515   8.799  0.2764 -0.6524  0.1476
  101OSM   H15F10260   4.215   6.464   8.752  0.1698  0.7882 -1.3005
  101OSM   H15G10261   4.389   6.446   8.795  0.2255 -0.7387  0.5095
  101OSM   C16F10262   4.330   6.645   8.717  0.2642  0.1847  0.3524
  101OSM   H16F10263   4.342   6.611   8.611 -0.3502  0.4326  0.1998
  101OSM   H16G10264   4.421   6.698   8.752 -1.6387  2.1809  2.6252
  101OSM   C17F10265   4.218   6.744   8.706  0.1587  0.2294  0.5826
  101OSM   H17F10266   4.258   6.832   8.651 -0.4308 -0.9787 -1.8779
  101OSM   H17G10267   4.191   6.787   8.805  0.4913 -1.7087  1.5596
  101OSM   C18F10268   4.090   6.702   8.624  0.2883 -0.3874 -0.8535
  101OSM   H18F10269   4.018   6.645   8.687 -0.5580  2.2280  0.7284
  101OSM   H18G10270   4.128   6.629   8.550 -2.0614 -1.3981 -1.1689
  101OSM   H18H10271   4.036   6.787   8.575 -2.4574 -0.2872  1.9752
  102OSM      N10272   3.684   5.701  10.720  0.2833  0.3993  0.1127
  102OSM    C1510273   3.831   5.691  10.700 -0.3252  0.1822  0.0722
  102OSM   H15A10274   3.862   5.588  10.702 -0.0107  0.2766  0.1262
  102OSM   H15B10275   3.885   5.729  10.786 -0.1032 -2.7136  1.3462
  102OSM   H15C10276   3.859   5.740  10.608 -3.2502  2.1045  0.0928
  102OSM    C1410277   3.618   5.605  10.621 -0.5776  0.0022  0.4512
  102OSM   H14A10278   3.514   5.631  10.605 -0.0823  1.9718  0.0981
  102OSM   H14B10279   3.622   5.504  10.658 -0.6358 -0.3539 -0.5146
  102OSM   H14C10280   3.671   5.615  10.528 -0.1027  1.1628  0.8268
  102OSM    C1310281   3.654   5.647  10.867 -0.3757 -0.0130 -0.2333
  102OSM   H13A10282   3.701   5.551  10.881 -0.5268  0.1675  2.0012
  102OSM   H13B10283   3.547   5.637  10.876 -0.2977 -2.9957 -1.5555
  102OSM   H13C10284   3.688   5.719  10.941 -1.4493  0.3015 -0.0270
  102OSM    C1210285   3.641   5.839  10.696  0.3048  0.2386 -0.1073
  102OSM   H12A10286   3.536   5.856  10.713 -0.3569 -1.5475 -2.0544
  102OSM   H12B10287   3.651   5.855  10.590 -0.1354  3.1091  0.1960
  102OSM    C1110288   3.708   5.947  10.785 -0.2722 -0.4945  0.7118
  102OSM   H11A10289   3.687   5.914  10.888  1.0468 -1.5488  0.6815
  102OSM   H11B10290   3.656   6.039  10.750 -0.2303 -0.2552  1.2719
  102OSM      P10291   3.898   6.054  10.634 -0.1480 -0.1622  0.6485
  102OSM    O1310292   3.898   6.192  10.683  0.0770  0.7491  0.5177
  102OSM    O1410293   4.026   6.001  10.585 -0.5848  0.0163  0.0626
  102OSM    O1110294   3.789   6.038  10.523  0.5210 -0.5545 -0.7260
  102OSM    O1210295   3.843   5.968  10.754  0.0599  0.4971 -0.1080
  102OSM    C1S10296   3.786   6.119  10.409 -0.3914  0.2021 -0.2051
  102OSM    H1S10297   3.817   6.224  10.428 -0.4782  0.4126 -1.1414
  102OSM    H1T10298   3.680   6.128  10.377 -0.0658  4.2337 -0.6815
  102OSM     NF10299   3.915   6.151  10.192  0.0917  0.6291  0.3686
  102OSM    HNF10300   3.852   6.165  10.115  0.8024  1.9530 -0.0138
  102OSM    C2S10301   3.871   6.057  10.297 -0.5547 -0.9828  0.4182
  102OSM    H2S10302   3.966   6.022  10.342  0.3262  1.3121  0.4412
  102OSM    C3S10303   3.787   5.936  10.247 -0.7729  0.3566  0.3019
  102OSM    H3S10304   3.683   5.962  10.216 -1.5109 -1.0076  1.5197
  102OSM     O310305   3.761   5.838  10.349 -0.5133 -0.4932 -0.2646
  102OSM    HO310306   3.793   5.892  10.423  1.6616  0.0757 -1.5365
  102OSM    C4S10307   3.867   5.861  10.141  0.1575  0.1694 -0.3047
  102OSM    H4S10308   3.966   5.831  10.179  0.9009  0.6615 -1.7872
  102OSM    C5S10309   3.845   5.847  10.009  0.0532 -0.1516 -0.0812
  102OSM    H5S10310   3.761   5.906   9.970  1.0989  0.9316 -0.7584
  102OSM    C6S10311   3.921   5.772   9.905 -0.6175  0.0695  0.3498
  102OSM    H6S10312   3.885   5.668   9.915  1.3396 -0.7682 -0.8628
  102OSM    H6T10313   4.026   5.772   9.941 -0.3161  1.4530 -0.4446
  102OSM    C7S10314   3.906   5.819   9.762 -0.5090  0.0340  0.6464
  102OSM    H7S10315   3.963   5.914   9.759 -0.6920  0.2378  2.4482
  102OSM    H7T10316   3.798   5.841   9.749 -0.5112 -0.2094  0.2375
  102OSM    C8S10317   3.965   5.725   9.664 -0.0955  1.0684 -0.0818
  102OSM    H8S10318   3.927   5.623   9.688  1.1699  0.1205 -1.8978
  102OSM    H8T10319   4.076   5.717   9.666 -0.1702 -0.0047  0.6406
  102OSM    C9S10320   3.932   5.761   9.523 -0.2085  0.9696  0.6656
  102OSM    H9S10321   3.999   5.699   9.460  0.1113 -1.4335  3.2056
  102OSM    H9T10322   3.937   5.872   9.512 -0.6758  1.1500  2.0910
  102OSM   C10S10323   3.788   5.705   9.485 -0.0226 -0.4034 -0.1476
  102OSM   H10S10324   3.710   5.776   9.521  1.7802  1.0740  1.0808
  102OSM   H10T10325   3.757   5.601   9.509 -0.6456 -0.1131  0.3785
  102OSM   C11S10326   3.780   5.719   9.328 -0.4410  0.0400  0.1292
  102OSM   H11S10327   3.857   5.658   9.275 -0.2019 -0.7870  1.3874
  102OSM   H11T10328   3.803   5.822   9.295  3.0247 -0.6026  0.1934
  102OSM   C12S10329   3.641   5.685   9.274 -0.2326  0.2728  0.2546
  102OSM   H12S10330   3.596   5.785   9.258  1.8656  1.1995 -0.1613
  102OSM   H12T10331   3.587   5.636   9.358  0.0625  0.0022  0.2885
  102OSM   C13S10332   3.637   5.577   9.156  0.8654 -0.5850 -0.6921
  102OSM   H13S10333   3.715   5.500   9.175  0.4199 -0.6368  1.0404
  102OSM   H13T10334   3.669   5.634   9.066 -0.2268  0.3369 -0.5189
  102OSM   C14S10335   3.495   5.524   9.143 -0.0001 -0.0618 -0.1698
  102OSM   H14S10336   3.467   5.463   9.232 -0.1782  2.3330  1.5165
  102OSM   H14T10337   3.498   5.459   9.053  2.3260  0.2342 -0.3493
  102OSM   C15S10338   3.376   5.616   9.111 -0.2907  0.6334  0.4776
  102OSM   H15S10339   3.397   5.691   9.032 -1.9501  0.0254 -0.5824
  102OSM   H15T10340   3.362   5.682   9.199  0.5643  2.8032 -0.9299
  102OSM   C16S10341   3.247   5.550   9.071 -0.2516  0.8288 -0.3157
  102OSM   H16S10342   3.249   5.510   8.967 -0.6568  2.9853 -1.1974
  102OSM   H16T10343   3.175   5.634   9.082 -0.8174  0.2757  0.2534
  102OSM   C17S10344   3.205   5.433   9.151  0.6088  0.6200 -0.6133
  102OSM   H17S10345   3.212   5.455   9.260 -0.0840  0.6518 -0.5728
  102OSM   H17T10346   3.268   5.345   9.129  1.3761  0.3952  2.1644
  102OSM   C18S10347   3.067   5.393   9.113  0.3512 -0.1381  0.1161
  102OSM   H18S10348   3.068   5.385   9.002  1.1057  0.6453  0.0583
  102OSM   H18T10349   2.987   5.463   9.146 -0.5872 -1.4651  0.7565
  102OSM   H18U10350   3.051   5.297   9.167 -0.3263  1.9603  4.0241
  102OSM    C1F10351   4.025   6.226  10.203  0.8284  0.3641  0.9288
  102OSM     OF10352   4.097   6.216  10.299 -0.1445 -0.6786 -0.0813
  102OSM    C2F10353   4.067   6.313  10.093 -0.4665  0.2885  0.0960
  102OSM    H2F10354   4.003   6.404  10.096 -0.7974  0.0338  2.2117
  102OSM    H2G10355   4.049   6.267   9.993  1.8881  2.7147 -1.5656
  102OSM    C3F10356   4.224   6.353  10.114  0.1689 -0.8031  0.1064
  102OSM    H3F10357   4.285   6.260  10.111 -1.2737 -1.7742 -0.2350
  102OSM    H3G10358   4.239   6.397  10.215 -0.4553 -0.7193  0.1682
  102OSM    C4F10359   4.262   6.452  10.000 -0.3574 -0.2077 -0.4254
  102OSM    H4F10360   4.352   6.512  10.026 -0.9808  0.4445  0.2637
  102OSM    H4G10361   4.184   6.527   9.973  1.3833  1.2107 -1.7729
  102OSM    C5F10362   4.300   6.377   9.871 -0.2245 -0.4024 -0.1297
  102OSM    H5F10363   4.206   6.328   9.838 -1.2314  0.5805  1.1413
  102OSM    H5G10364   4.380   6.306   9.901  0.7301  1.5544  2.3090
  102OSM    C6F10365   4.347   6.474   9.767 -0.4523 -0.4851 -0.0265
  102OSM    H6F10366   4.416   6.418   9.700 -0.6138  0.4943 -1.0239
  102OSM    H6G10367   4.417   6.549   9.812  3.0352 -2.9374 -0.8922
  102OSM    C7F10368   4.241   6.545   9.687 -0.5784 -0.0292  0.5469
  102OSM    H7F10369   4.154   6.569   9.752 -0.6985  1.2778 -0.0890
  102OSM    H7G10370   4.192   6.476   9.616  4.1552 -1.5532 -1.7044
  102OSM    C8F10371   4.287   6.673   9.608 -0.2994  0.3965 -0.0784
  102OSM    H8F10372   4.332   6.739   9.685 -2.1418 -3.4444  4.8513
  102OSM    H8G10373   4.200   6.731   9.570 -1.8102 -1.1540  0.8394
  102OSM    C9F10374   4.393   6.644   9.500  0.6119 -0.3773 -0.8087
  102OSM    H9F10375   4.460   6.564   9.534 -1.4738 -2.0964 -0.5263
  102OSM   C10F10376   4.408   6.715   9.384  0.0422 -0.2275  0.3397
  102OSM   H10F10377   4.473   6.675   9.305 -1.0188 -0.2417 -0.5412
  102OSM   C11F10378   4.316   6.827   9.332  0.1245  0.0319  0.1857
  102OSM   H11F10379   4.311   6.911   9.404 -1.6906 -0.9262  1.2425
  102OSM   H11G10380   4.212   6.790   9.323 -0.1927  1.2611 -1.6464
  102OSM   C12F10381   4.360   6.879   9.192 -0.7985  0.0993 -0.4794
  102OSM   H12F10382   4.342   6.803   9.113 -0.6881  1.0055 -1.3852
  102OSM   H12G10383   4.470   6.893   9.191 -0.7569  0.0260  0.7246
  102OSM   C13F10384   4.311   7.020   9.173  0.6790  0.0828  0.3897
  102OSM   H13F10385   4.341   7.091   9.253  3.1010  2.6125 -2.5039
  102OSM   H13G10386   4.203   7.013   9.198  0.4269  3.3773  0.6374
  102OSM   C14F10387   4.341   7.098   9.042 -0.1265  0.3300 -0.2037
  102OSM   H14F10388   4.450   7.119   9.032 -0.1398  1.3378  1.4248
  102OSM   H14G10389   4.290   7.195   9.059  1.1937  0.8699  0.9015
  102OSM   C15F10390   4.305   7.016   8.919 -0.5111  0.7106 -0.1202
  102OSM   H15F10391   4.205   6.969   8.920 -0.7399  1.1723 -0.6847
  102OSM   H15G10392   4.382   6.936   8.919 -1.4107 -0.1761  0.7198
  102OSM   C16F10393   4.319   7.092   8.791  0.2081 -0.0904 -0.4306
  102OSM   H16F10394   4.336   7.024   8.705 -3.5921 -1.4801 -0.2586
  102OSM   H16G10395   4.409   7.156   8.806  0.3022 -0.3943  0.3359
  102OSM   C17F10396   4.212   7.195   8.751  0.1773 -0.0451 -0.0093
  102OSM   H17F10397   4.215   7.277   8.826  0.5734  0.1126 -0.1966
  102OSM   H17G10398   4.114   7.143   8.764 -0.0780 -0.0228 -1.6433
  102OSM   C18F10399   4.244   7.263   8.623  0.1170 -0.0330 -0.1231
  102OSM   H18F10400   4.218   7.202   8.534 -0.6271  0.1770 -0.0592
  102OSM   H18G10401   4.352   7.287   8.622  0.0483  0.3026  0.1034
  102OSM   H18H10402   4.186   7.357   8.612  1.5929  1.1120  1.3290
  103OSM      N10403   6.100   1.333  11.268 -0.4202 -0.7351 -0.2446
  103OSM    C1510404   6.176   1.248  11.369  0.3127 -0.0515  0.0737
  103OSM   H15A10405   6.135   1.149  11.365  1.1185 -0.4655  1.5180
  103OSM   H15B10406   6.174   1.289  11.468  0.4266  4.0253 -1.4096
  103OSM   H15C10407   6.282   1.248  11.346 -0.1070  0.3648 -2.0672
  103OSM    C1410408   5.959   1.347  11.311  0.7737  0.5292 -0.5721
  103OSM   H14A10409   5.905   1.412  11.245 -2.4291 -0.8529  0.4722
  103OSM   H14B10410   5.954   1.380  11.414  4.1253 -0.0109 -0.1325
  103OSM   H14C10411   5.900   1.257  11.302 -0.2893  0.8894  1.9704
  103OSM    C1310412   6.164   1.470  11.272  0.4128 -1.0273 -0.0468
  103OSM   H13A10413   6.127   1.513  11.364 -1.4336 -2.7416  0.0961
  103OSM   H13B10414   6.126   1.537  11.196 -0.1867 -0.4717  0.7259
  103OSM   H13C10415   6.272   1.471  11.278  0.4085 -0.4344 -0.0331
  103OSM    C1210416   6.114   1.266  11.132 -0.1637  0.0587 -0.7597
  103OSM   H12A10417   6.068   1.168  11.139 -1.9068  0.8456 -0.7640
  103OSM   H12B10418   6.218   1.245  11.113  0.1967 -0.2340  1.2586
  103OSM    C1110419   6.050   1.339  11.012 -0.1928 -0.0815  0.1596
  103OSM   H11A10420   6.119   1.319  10.928  0.9275 -3.4984  1.7176
  103OSM   H11B10421   6.048   1.448  11.033 -0.7801  0.2647 -1.5652
  103OSM      P10422   5.900   1.163  10.911 -0.0087  0.0918 -0.1229
  103OSM    O1310423   6.011   1.070  10.933  0.0446 -0.0751 -0.1442
  103OSM    O1410424   5.762   1.110  10.921 -0.0602  0.6641  0.3553
  103OSM    O1110425   5.920   1.221  10.769 -1.0367  0.2858 -0.1436
  103OSM    O1210426   5.919   1.299  10.990  0.2839  0.4852  0.9128
  103OSM    C1S10427   5.908   1.125  10.665 -0.7319 -0.2044 -0.5249
  103OSM    H1S10428   5.808   1.077  10.672 -1.0648  0.2517 -1.9306
  103OSM    H1T10429   5.984   1.044  10.673  1.4170  1.4427 -2.8824
  103OSM     NF10430   5.893   1.119  10.423  0.1915  0.5178  0.8543
  103OSM    HNF10431   5.954   1.052  10.381  1.5085  2.0730  0.1652
  103OSM    C2S10432   5.941   1.196  10.532  0.5074 -0.1779 -0.3555
  103OSM    H2S10433   5.884   1.291  10.540  2.8646  1.3323 -0.6970
  103OSM    C3S10434   6.088   1.230  10.531 -0.0929  0.0881  0.1748
  103OSM    H3S10435   6.157   1.145  10.550  1.6512  1.0260 -1.5999
  103OSM     O310436   6.142   1.310  10.632  0.4368 -0.4723  0.0927
  103OSM    HO310437   6.067   1.317  10.692  0.0909 -3.5778  0.1724
  103OSM    C4S10438   6.124   1.297  10.402 -0.0433  0.4736  0.0640
  103OSM    H4S10439   6.069   1.389  10.376  1.5715  2.4760  3.1337
  103OSM    C5S10440   6.217   1.261  10.317 -0.0508 -0.4137 -0.2962
  103OSM    H5S10441   6.268   1.164  10.323 -1.4406 -1.1655 -0.2236
  103OSM    C6S10442   6.242   1.336  10.188 -0.8295  0.1663 -0.2482
  103OSM    H6S10443   6.325   1.408  10.202 -0.5997 -0.3562  1.1805
  103OSM    H6T10444   6.157   1.404  10.164 -0.8359  1.6717  3.3526
  103OSM    C7S10445   6.285   1.259  10.064 -0.2196 -0.7031  0.3051
  103OSM    H7S10446   6.198   1.199  10.031 -0.9289  0.6999 -0.5033
  103OSM    H7T10447   6.357   1.177  10.083 -0.2552 -1.0099 -0.7935
  103OSM    C8S10448   6.317   1.349   9.945 -0.4581 -0.7005  0.3088
  103OSM    H8S10449   6.405   1.413   9.965 -2.9441  3.2051 -0.1227
  103OSM    H8T10450   6.238   1.424   9.924  0.1385 -0.5381 -1.5936
  103OSM    C9S10451   6.359   1.261   9.819  0.0030 -0.1884 -0.3723
  103OSM    H9S10452   6.274   1.205   9.775  1.1704 -0.3013 -2.6404
  103OSM    H9T10453   6.430   1.181   9.850 -0.0213 -0.0151  0.1459
  103OSM   C10S10454   6.421   1.348   9.708  0.1729 -0.2322 -0.4355
  103OSM   H10S10455   6.527   1.371   9.730 -0.2576  1.4128  0.0932
  103OSM   H10T10456   6.367   1.445   9.713 -1.1930 -0.9574 -0.5810
  103OSM   C11S10457   6.411   1.283   9.572 -0.7537 -0.2721  0.1890
  103OSM   H11S10458   6.302   1.263   9.561 -0.8007  0.5635 -1.1023
  103OSM   H11T10459   6.464   1.187   9.553 -1.0166 -0.1013 -1.5791
  103OSM   C12S10460   6.462   1.384   9.453 -0.3928 -1.2763 -0.2912
  103OSM   H12S10461   6.568   1.415   9.462 -0.5814 -0.4315 -0.9172
  103OSM   H12T10462   6.400   1.475   9.466  1.5672  0.0254  0.2857
  103OSM   C13S10463   6.443   1.321   9.317  0.2752  0.4488 -0.0231
  103OSM   H13S10464   6.495   1.223   9.318  1.5753  1.0237 -3.1424
  103OSM   H13T10465   6.502   1.374   9.240  0.8111  1.1114  0.8232
  103OSM   C14S10466   6.298   1.295   9.276 -0.5552 -0.1558  0.2987
  103OSM   H14S10467   6.240   1.389   9.262  0.9822  0.8729  0.4647
  103OSM   H14T10468   6.249   1.238   9.357 -0.4433  1.3542  1.4620
  103OSM   C15S10469   6.270   1.213   9.143  0.2809  0.2197 -0.0683
  103OSM   H15S10470   6.161   1.215   9.124  0.3988  1.1612 -0.7354
  103OSM   H15T10471   6.301   1.108   9.158  0.2156 -0.2617 -2.8238
  103OSM   C16S10472   6.336   1.275   9.018 -0.1283  0.6845 -0.0561
  103OSM   H16S10473   6.446   1.277   9.033  0.1710  0.7910 -2.0559
  103OSM   H16T10474   6.305   1.378   8.994 -0.2734  0.5633 -0.3925
  103OSM   C17S10475   6.306   1.184   8.887 -0.4741  0.2886 -0.1932
  103OSM   H17S10476   6.198   1.159   8.882 -0.4917  0.6045 -2.4181
  103OSM   H17T10477   6.360   1.089   8.903  1.8068  1.5074 -0.2514
  103OSM   C18S10478   6.349   1.242   8.752  0.4743 -0.3918 -0.0358
  103OSM   H18S10479   6.295   1.334   8.722  0.3839 -0.8635 -1.4309
  103OSM   H18T10480   6.327   1.173   8.667  0.0942  0.9356 -1.0383
  103OSM   H18U10481   6.459   1.254   8.758  0.4803 -0.2693 -0.3837
  103OSM    C1F10482   5.763   1.108  10.397 -0.4953 -0.8968 -0.1802
  103OSM     OF10483   5.688   1.192  10.441  0.7969  0.1018  0.3120
  103OSM    C2F10484   5.710   0.999  10.308 -0.2523 -0.4437 -0.0746
  103OSM    H2F10485   5.600   1.002  10.319 -0.5338  1.1278 -2.4941
  103OSM    H2G10486   5.746   0.903  10.352 -0.8660  0.3004  2.1594
  103OSM    C3F10487   5.750   1.010  10.160  0.1010 -0.2265 -0.2404
  103OSM    H3F10488   5.692   0.937  10.101 -1.0837  0.5373 -0.0486
  103OSM    H3G10489   5.851   0.963  10.163 -0.6154 -1.8390 -0.5583
  103OSM    C4F10490   5.744   1.150  10.097 -0.3363 -0.0008  0.0067
  103OSM    H4F10491   5.779   1.236  10.158 -1.8289  1.4052 -1.0418
  103OSM    H4G10492   5.641   1.169  10.063 -0.8176  0.2169  1.5064
  103OSM    C5F10493   5.830   1.148   9.974 -0.2734  0.0682 -0.2657
  103OSM    H5F10494   5.812   1.057   9.914  0.9591  1.0567 -2.2641
  103OSM    H5G10495   5.936   1.134  10.004  0.2134  2.1804 -0.7972
  103OSM    C6F10496   5.817   1.273   9.891 -0.1205  0.3311  0.3941
  103OSM    H6F10497   5.836   1.357   9.961 -1.8215  1.0587  0.0178
  103OSM    H6G10498   5.720   1.284   9.838 -0.7612 -1.1587  1.2167
  103OSM    C7F10499   5.922   1.276   9.775 -0.8933 -0.2157 -0.5376
  103OSM    H7F10500   5.899   1.189   9.710 -0.0054 -0.1131 -0.9993
  103OSM    H7G10501   6.022   1.252   9.816 -0.6180 -2.2655 -2.2444
  103OSM    C8F10502   5.917   1.410   9.707  0.2040 -0.3078  0.3115
  103OSM    H8F10503   5.944   1.488   9.781 -1.4872  0.5364  0.0940
  103OSM    H8G10504   5.817   1.436   9.668 -0.1980 -2.7011 -0.4742
  103OSM    C9F10505   6.028   1.417   9.606  0.4249  0.1397  0.4276
  103OSM    H9F10506   6.127   1.401   9.651 -0.0478  0.5365  1.6379
  103OSM   C10F10507   6.026   1.463   9.483  0.7879 -0.2002  0.9416
  103OSM   H10F10508   6.118   1.486   9.428  0.0038 -0.7719 -0.6868
  103OSM   C11F10509   5.898   1.528   9.423  0.2750  0.1317 -0.0330
  103OSM   H11F10510   5.880   1.624   9.476 -0.8865  0.0905 -0.3205
  103OSM   H11G10511   5.805   1.467   9.435 -0.3879  1.5650  3.5243
  103OSM   C12F10512   5.916   1.571   9.277 -0.1945 -0.8561 -0.0966
  103OSM   H12F10513   6.000   1.642   9.266  0.5670 -1.0933  3.0665
  103OSM   H12G10514   5.820   1.618   9.247  0.7831  0.4558 -1.2858
  103OSM   C13F10515   5.943   1.451   9.168  0.0795 -0.1306 -0.0534
  103OSM   H13F10516   6.034   1.392   9.195 -0.4300 -1.3675 -0.9435
  103OSM   H13G10517   5.853   1.387   9.158  0.1588  0.0508 -2.9824
  103OSM   C14F10518   5.967   1.511   9.029  0.1599 -0.5187 -0.0712
  103OSM   H14F10519   6.066   1.560   9.026 -0.0124  0.0260  2.0138
  103OSM   H14G10520   5.903   1.597   8.999 -0.7505 -1.3319 -0.5269
  103OSM   C15F10521   5.963   1.409   8.920 -0.1163  0.7053  0.2213
  103OSM   H15F10522   5.876   1.342   8.932  1.2648 -0.9260  1.7084
  103OSM   H15G10523   6.054   1.347   8.936 -2.3237 -2.4090  1.6588
  103OSM   C16F10524   5.959   1.465   8.777  0.1616 -0.3961 -0.1430
  103OSM   H16F10525   6.063   1.467   8.738  0.2390 -0.9301  0.0359
  103OSM   H16G10526   5.918   1.569   8.780  1.1303 -0.0387  1.7656
  103OSM   C17F10527   5.863   1.382   8.687 -0.2985 -0.0132 -0.2896
  103OSM   H17F10528   5.840   1.451   8.603 -0.6192  1.7931  1.2070
  103OSM   H17G10529   5.768   1.360   8.739 -1.5056 -1.8068 -3.0708
  103OSM   C18F10530   5.928   1.249   8.639 -0.1732  0.0793 -0.5632
  103OSM   H18F10531   6.031   1.275   8.608 -0.6441  3.0261  0.0308
  103OSM   H18G10532   5.871   1.192   8.562 -0.8030 -0.6118  0.3948
  103OSM   H18H10533   5.926   1.178   8.724 -1.5931 -2.1344 -2.3107
  104OSM      N10534   3.279   0.978  10.854 -0.3094  0.9367  0.1515
  104OSM    C1510535   3.334   0.945  10.721 -0.2066 -0.1019 -0.3400
  104OSM   H15A10536   3.403   1.016  10.677  0.3295 -0.1426  0.4022
  104OSM   H15B10537   3.252   0.940  10.652  0.1163  0.1599 -0.7472
  104OSM   H15C10538   3.383   0.848  10.729  1.6301  0.7329 -0.8809
  104OSM    C1410539   3.194   0.859  10.901 -0.1418  0.1250 -0.3047
  104OSM   H14A10540   3.106   0.850  10.839  0.0973  3.5928 -1.3581
  104OSM   H14B10541   3.156   0.875  11.001 -1.5008 -0.1422 -0.7572
  104OSM   H14C10542   3.244   0.764  10.912  0.9211  0.7515  0.4956
  104OSM    C1310543   3.393   0.982  10.951  0.2652  0.5292 -0.0427
  104OSM   H13A10544   3.446   0.888  10.945  3.5081  2.1865  0.3449
  104OSM   H13B10545   3.367   1.005  11.053  0.0548 -1.4646  0.3911
  104OSM   H13C10546   3.476   1.048  10.930  1.0619 -0.2149  0.6884
  104OSM    C1210547   3.196   1.103  10.851 -0.5451 -0.5145 -0.2957
  104OSM   H12A10548   3.256   1.187  10.821  0.1616 -0.2142  1.7818
  104OSM   H12B10549   3.168   1.115  10.955 -0.5047  0.1147 -0.3529
  104OSM    C1110550   3.061   1.118  10.763  0.0750 -0.2279 -0.3179
  104OSM   H11A10551   3.016   1.218  10.779  0.0252 -0.4364  0.8899
  104OSM   H11B10552   2.982   1.052  10.804 -0.4608  0.2187 -0.6217
  104OSM      P10553   3.104   1.175  10.508 -0.0899  0.4476 -0.1507
  104OSM    O1310554   3.208   1.267  10.545  0.0150 -0.0593 -0.1946
  104OSM    O1410555   3.127   1.091  10.392  0.7075  0.6300 -0.0886
  104OSM    O1110556   2.970   1.250  10.497 -0.2936 -0.0248 -0.1955
  104OSM    O1210557   3.077   1.076  10.632 -0.4229  0.1586  0.1727
  104OSM    C1S10558   2.938   1.354  10.406  0.5206  0.2790  0.1417
  104OSM    H1S10559   3.007   1.352  10.319  2.3110 -0.2152  1.5074
  104OSM    H1T10560   2.952   1.456  10.447 -1.7380  0.6759  0.0426
  104OSM     NF10561   2.794   1.447  10.236 -0.0102  0.7290  0.6874
  104OSM    HNF10562   2.725   1.519  10.239  1.1893  2.0419 -0.9156
  104OSM    C2S10563   2.804   1.347  10.344  0.1477 -0.1992  0.0290
  104OSM    H2S10564   2.790   1.250  10.293  0.3918 -0.5194  0.5608
  104OSM    C3S10565   2.692   1.355  10.458 -0.7492 -0.0435  0.0085
  104OSM    H3S10566   2.702   1.454  10.507 -1.3233  0.4868 -0.9159
  104OSM     O310567   2.704   1.256  10.561 -0.2476 -0.2096  0.0655
  104OSM    HO310568   2.786   1.208  10.546 -0.0926  0.5367 -1.6886
  104OSM    C4S10569   2.557   1.340  10.394  0.5751  0.0591  0.3302
  104OSM    H4S10570   2.521   1.236  10.389 -1.5273  0.7656 -0.0725
  104OSM    C5S10571   2.483   1.446  10.370 -0.3019 -0.4589 -0.1780
  104OSM    H5S10572   2.530   1.544  10.386  1.2167 -1.7081  4.7576
  104OSM    C6S10573   2.343   1.448  10.317  0.5198 -0.7851 -0.3333
  104OSM    H6S10574   2.311   1.554  10.313 -1.5200 -1.3535 -0.3853
  104OSM    H6T10575   2.279   1.398  10.393  1.2193  0.2332  0.9629
  104OSM    C7S10576   2.335   1.372  10.186  0.2703  0.2270 -0.0137
  104OSM    H7S10577   2.385   1.273  10.194 -0.1905  0.0310  0.4831
  104OSM    H7T10578   2.391   1.430  10.109  0.2897 -0.2912 -0.3919
  104OSM    C8S10579   2.193   1.337  10.130 -0.3031 -0.0051 -0.7285
  104OSM    H8S10580   2.133   1.431  10.129  1.5745  1.2799  0.3087
  104OSM    H8T10581   2.141   1.265  10.196 -2.2301  2.2409  0.3479
  104OSM    C9S10582   2.210   1.273   9.992 -0.4607  0.4727 -0.1297
  104OSM    H9S10583   2.287   1.195   9.976 -2.2023 -1.0217 -1.7297
  104OSM    H9T10584   2.223   1.354   9.918 -0.8745  1.3002  0.6835
  104OSM   C10S10585   2.081   1.201   9.957 -0.5419 -0.0501  0.1978
  104OSM   H10S10586   1.992   1.266   9.950 -0.6963 -0.2165  0.6141
  104OSM   H10T10587   2.057   1.126  10.035 -3.1113  0.6115  0.1259
  104OSM   C11S10588   2.115   1.110   9.833 -0.2937 -0.0896  0.1233
  104OSM   H11S10589   2.038   1.038   9.800 -1.2828  1.1575 -0.3552
  104OSM   H11T10590   2.205   1.047   9.850 -1.7545 -2.8710 -1.7024
  104OSM   C12S10591   2.142   1.190   9.700  0.1351  0.1390  0.1064
  104OSM   H12S10592   2.232   1.255   9.705  0.0258  0.2931  0.0905
  104OSM   H12T10593   2.058   1.252   9.661  1.2329  1.0530 -0.8890
  104OSM   C13S10594   2.176   1.094   9.583 -0.5665 -0.0539  0.3502
  104OSM   H13S10595   2.099   1.015   9.572  1.8788 -2.5140  0.0185
  104OSM   H13T10596   2.268   1.037   9.608  0.5722  0.8450 -1.5251
  104OSM   C14S10597   2.209   1.161   9.448 -0.6415  0.5242 -0.0198
  104OSM   H14S10598   2.280   1.103   9.387 -1.7329 -2.3404  1.2708
  104OSM   H14T10599   2.263   1.258   9.453  0.3579  0.0546 -1.2120
  104OSM   C15S10600   2.083   1.187   9.367 -0.0194 -0.6714  0.1357
  104OSM   H15S10601   2.002   1.214   9.439 -0.6469  0.0828 -0.8234
  104OSM   H15T10602   2.045   1.095   9.318 -0.8660 -0.2311 -0.0614
  104OSM   C16S10603   2.104   1.289   9.249  0.3352  0.4188  0.4752
  104OSM   H16S10604   2.131   1.389   9.291  3.0393  1.3129 -2.8685
  104OSM   H16T10605   2.007   1.321   9.205  1.2012  2.0008 -0.3880
  104OSM   C17S10606   2.218   1.246   9.157 -0.0726 -0.3341  0.1777
  104OSM   H17S10607   2.209   1.137   9.138 -1.3462 -0.0940 -0.7623
  104OSM   H17T10608   2.317   1.265   9.203  0.0182  1.0560 -0.5273
  104OSM   C18S10609   2.214   1.318   9.020  0.4723  0.7281  0.5495
  104OSM   H18S10610   2.300   1.298   8.953  1.0163 -0.7700  1.6430
  104OSM   H18T10611   2.239   1.424   9.040 -0.1534  1.2106 -1.0832
  104OSM   H18U10612   2.120   1.311   8.960  1.2850  0.0572 -0.6895
  104OSM    C1F10613   2.864   1.435  10.119  0.2124 -0.8081  0.3688
  104OSM     OF10614   2.935   1.339  10.094  0.1767 -0.4043 -0.4551
  104OSM    C2F10615   2.867   1.555  10.026  0.5487 -0.0735 -0.6176
  104OSM    H2F10616   2.964   1.610  10.038  0.8600 -0.9825  1.5235
  104OSM    H2G10617   2.780   1.621  10.046  1.1097  0.2389  0.9697
  104OSM    C3F10618   2.854   1.505   9.883 -0.3342 -0.4036 -0.2748
  104OSM    H3F10619   2.748   1.472   9.877 -1.3867  2.2701  1.4861
  104OSM    H3G10620   2.929   1.428   9.856  0.2958  0.2080 -0.3063
  104OSM    C4F10621   2.855   1.617   9.779  0.0435  0.2425  0.1669
  104OSM    H4F10622   2.948   1.678   9.780  0.0542  0.3324 -2.0471
  104OSM    H4G10623   2.773   1.687   9.804  0.8758  1.3252 -0.0524
  104OSM    C5F10624   2.850   1.554   9.641  0.0868  0.7349  0.5798
  104OSM    H5F10625   2.750   1.507   9.630  0.7410 -0.6538  0.3737
  104OSM    H5G10626   2.925   1.473   9.637 -0.5583  0.1548 -0.0381
  104OSM    C6F10627   2.868   1.650   9.524 -0.5192 -0.7552  0.6140
  104OSM    H6F10628   2.973   1.683   9.511 -0.5172 -0.3709  1.5570
  104OSM    H6G10629   2.818   1.747   9.543  2.2736  1.8229 -3.6202
  104OSM    C7F10630   2.804   1.596   9.391 -0.4319  0.8981  0.5619
  104OSM    H7F10631   2.694   1.591   9.404 -0.4249 -1.1974  0.2628
  104OSM    H7G10632   2.836   1.490   9.376  1.3148  1.2636  1.4374
  104OSM    C8F10633   2.837   1.685   9.266 -0.0954 -0.2160 -1.0229
  104OSM    H8F10634   2.832   1.792   9.294 -1.4627 -0.7942  1.2234
  104OSM    H8G10635   2.764   1.659   9.187  0.0732 -1.3250 -0.8419
  104OSM    C9F10636   2.978   1.658   9.218 -0.0670  0.6000 -0.6936
  104OSM    H9F10637   3.046   1.673   9.303  1.1848 -0.2851 -1.4933
  104OSM   C10F10638   3.032   1.623   9.099  0.0847  0.1726  0.3778
  104OSM   H10F10639   3.139   1.598   9.098  0.0274 -0.0662  0.1701
  104OSM   C11F10640   2.947   1.603   8.976 -0.4342 -0.5924 -0.8451
  104OSM   H11F10641   2.849   1.553   8.991  0.4651 -2.4154 -0.7689
  104OSM   H11G10642   3.006   1.551   8.896  3.6380  2.5014 -0.1858
  104OSM   C12F10643   2.908   1.742   8.928  0.7381  0.1302 -0.2046
  104OSM   H12F10644   2.999   1.796   8.894  0.3556  2.7173  2.4792
  104OSM   H12G10645   2.864   1.798   9.014  0.3574 -1.4784  0.6833
  104OSM   C13F10646   2.810   1.737   8.814  0.3516  0.3657 -0.6468
  104OSM   H13F10647   2.834   1.653   8.746 -0.4045  0.9141 -1.6233
  104OSM   H13G10648   2.815   1.830   8.753  0.4237  0.5804 -0.3182
  104OSM   C14F10649   2.665   1.725   8.861 -0.3835  0.4724  0.7721
  104OSM   H14F10650   2.652   1.792   8.949 -0.4557  0.2622  0.9219
  104OSM   H14G10651   2.652   1.625   8.906 -0.5833  0.5311  0.8464
  104OSM   C15F10652   2.570   1.751   8.750  0.1979 -0.0479  0.5692
  104OSM   H15F10653   2.607   1.840   8.694  0.5065 -1.2188 -1.1511
  104OSM   H15G10654   2.464   1.772   8.776  0.4404  0.2724  1.3394
  104OSM   C16F10655   2.569   1.642   8.637  0.6937  0.4331 -0.2049
  104OSM   H16F10656   2.670   1.595   8.629  1.1974  1.0979  1.7948
  104OSM   H16G10657   2.546   1.677   8.534 -1.6166 -2.9764 -1.0104
  104OSM   C17F10658   2.471   1.522   8.665 -0.1718 -0.1299  0.3166
  104OSM   H17F10659   2.486   1.471   8.763  0.2531 -4.2156 -1.6556
  104OSM   H17G10660   2.490   1.449   8.583 -0.6071  0.6890 -0.5321
  104OSM   C18F10661   2.323   1.554   8.647  0.8435 -0.1097  0.0768
  104OSM   H18F10662   2.282   1.636   8.710 -0.3568 -0.1236 -0.6473
  104OSM   H18G10663   2.263   1.463   8.669  0.6891  0.0502  0.3198
  104OSM   H18H10664   2.309   1.586   8.542  0.4298 -0.5165  0.0044
  105OSM      N10665   2.178   1.426  10.898 -0.5582  0.3395  0.2142
  105OSM    C1510666   2.182   1.300  10.980 -0.3254 -0.6492  0.5553
  105OSM   H15A10667   2.086   1.254  10.964 -0.1848 -2.0615  3.1514
  105OSM   H15B10668   2.193   1.316  11.086  0.4688 -0.7709  0.4983
  105OSM   H15C10669   2.261   1.231  10.952  0.4839  0.6118 -0.3884
  105OSM    C1410670   2.055   1.497  10.948 -0.0179 -0.3713 -0.6520
  105OSM   H14A10671   2.068   1.525  11.051 -1.0294 -1.8370 -0.0825
  105OSM   H14B10672   1.969   1.432  10.962 -0.5349  0.3484 -0.4475
  105OSM   H14C10673   2.034   1.591  10.900 -0.1977  0.4087  0.8924
  105OSM    C1310674   2.303   1.516  10.924  0.4105  0.0289 -0.0238
  105OSM   H13A10675   2.396   1.469  10.897  1.3876 -0.1744  3.2375
  105OSM   H13B10676   2.321   1.546  11.026  0.6469 -0.1702 -0.0057
  105OSM   H13C10677   2.290   1.612  10.875 -1.0276 -0.1148  0.0496
  105OSM    C1210678   2.165   1.394  10.750 -0.1427 -0.4294  0.6655
  105OSM   H12A10679   2.184   1.487  10.698  0.6160 -0.7681  0.3225
  105OSM   H12B10680   2.063   1.374  10.718 -0.4227  0.2253  1.1205
  105OSM    C1110681   2.259   1.294  10.678 -0.0706 -0.1979  0.2597
  105OSM   H11A10682   2.365   1.320  10.696  0.7857 -3.4010  0.6071
  105OSM   H11B10683   2.243   1.308  10.569  3.0632  1.9562 -0.0628
  105OSM      P10684   2.121   1.081  10.665  0.1768 -0.4910  0.1987
  105OSM    O1310685   2.060   1.006  10.774 -0.6874 -0.4446  0.2403
  105OSM    O1410686   2.037   1.176  10.586  0.5623 -0.3064  1.0375
  105OSM    O1110687   2.190   0.990  10.554 -0.2712  0.4052  0.2499
  105OSM    O1210688   2.245   1.161  10.718  0.0919 -0.1703 -0.2958
  105OSM    C1S10689   2.319   1.019  10.505  0.0529  0.1483  0.7531
  105OSM    H1S10690   2.388   0.981  10.583 -0.5652 -0.9774  0.7775
  105OSM    H1T10691   2.351   1.125  10.493  2.6429 -0.5724  0.6832
  105OSM     NF10692   2.488   0.902  10.358  0.2662 -0.5157  0.6024
  105OSM    HNF10693   2.542   0.953  10.291 -0.8597 -0.3049 -0.1702
  105OSM    C2S10694   2.347   0.925  10.378  0.0522 -0.0020 -0.0448
  105OSM    H2S10695   2.295   0.829  10.400 -0.1733  0.3134  0.8731
  105OSM    C3S10696   2.277   0.983  10.252  0.0821  0.1766 -0.4293
  105OSM    H3S10697   2.336   1.074  10.229 -0.6905  0.4900 -1.2225
  105OSM     O310698   2.140   1.019  10.289 -0.4554 -0.3588 -0.3774
  105OSM    HO310699   2.136   1.000  10.383 -1.0123  1.2306 -0.0578
  105OSM    C4S10700   2.279   0.890  10.135 -0.1304 -0.8522  1.2709
  105OSM    H4S10701   2.352   0.929  10.062 -0.0594  1.9660  2.6824
  105OSM    C5S10702   2.198   0.789  10.114  0.0600 -0.0996 -0.1310
  105OSM    H5S10703   2.112   0.777  10.183 -0.9938  3.6192 -0.5703
  105OSM    C6S10704   2.193   0.705   9.990  0.0099 -0.5434  0.0121
  105OSM    H6S10705   2.087   0.679   9.971  0.2851 -1.3717 -0.4656
  105OSM    H6T10706   2.246   0.609  10.010  1.2679  0.0626 -0.2717
  105OSM    C7S10707   2.256   0.759   9.859  0.0311 -0.2413  0.9100
  105OSM    H7S10708   2.362   0.784   9.880 -0.5661  3.6980 -0.0558
  105OSM    H7T10709   2.216   0.858   9.831 -0.6068 -1.0867 -1.4023
  105OSM    C8S10710   2.231   0.671   9.741  0.2763  0.5358 -0.2566
  105OSM    H8S10711   2.125   0.669   9.709  0.3184 -0.0047 -0.3756
  105OSM    H8T10712   2.267   0.569   9.764  0.7049  0.3541 -1.6415
  105OSM    C9S10713   2.312   0.718   9.617 -0.7738 -0.2634  0.3677
  105OSM    H9S10714   2.416   0.683   9.631 -1.7157 -2.3535  3.0555
  105OSM    H9T10715   2.327   0.828   9.604  0.5978 -0.6278 -1.3762
  105OSM   C10S10716   2.254   0.664   9.490  0.3665  0.0170  0.3310
  105OSM   H10S10717   2.146   0.686   9.501  0.5008  1.8763 -1.4096
  105OSM   H10T10718   2.259   0.553   9.488  2.1234 -0.1908  4.6540
  105OSM   C11S10719   2.296   0.744   9.367 -0.6442  0.4735 -0.2866
  105OSM   H11S10720   2.406   0.731   9.358 -0.4415 -0.4012  2.5320
  105OSM   H11T10721   2.265   0.850   9.381  2.2702  1.2155  1.2791
  105OSM   C12S10722   2.225   0.678   9.244  0.3695  0.4252 -0.1008
  105OSM   H12S10723   2.138   0.619   9.279  1.1131 -2.0864 -2.1619
  105OSM   H12T10724   2.297   0.618   9.184 -1.2740 -0.5611 -1.1599
  105OSM   C13S10725   2.186   0.798   9.157  0.3362 -0.1904  0.1801
  105OSM   H13S10726   2.128   0.876   9.210 -0.0605 -0.8166  0.6867
  105OSM   H13T10727   2.111   0.758   9.086 -0.1056 -0.5751  0.8566
  105OSM   C14S10728   2.319   0.853   9.085 -0.2040  0.0930 -0.5909
  105OSM   H14S10729   2.369   0.759   9.055  0.7431  1.0335 -2.1196
  105OSM   H14T10730   2.386   0.905   9.158 -1.9191  1.2784  0.2072
  105OSM   C15S10731   2.287   0.929   8.955  0.4159  0.6419 -0.5932
  105OSM   H15S10732   2.380   0.961   8.904  1.7083 -2.4492 -0.3431
  105OSM   H15T10733   2.221   1.012   8.988 -1.0868 -1.1442  1.1385
  105OSM   C16S10734   2.211   0.852   8.849 -0.0792 -0.8635  0.5675
  105OSM   H16S10735   2.195   0.921   8.763 -2.1195 -2.9766 -0.8560
  105OSM   H16T10736   2.106   0.834   8.879 -0.8917  2.0715 -0.2050
  105OSM   C17S10737   2.280   0.724   8.792 -0.6008 -0.8626  0.2651
  105OSM   H17S10738   2.215   0.669   8.721 -0.2116 -2.2959  0.9610
  105OSM   H17T10739   2.299   0.651   8.874 -1.4838 -1.5706 -0.1405
  105OSM   C18S10740   2.410   0.753   8.718  0.1566 -0.7632 -0.1795
  105OSM   H18S10741   2.459   0.660   8.682 -2.6821 -1.3359 -3.0548
  105OSM   H18T10742   2.476   0.807   8.790  0.9861  0.9169 -2.1246
  105OSM   H18U10743   2.393   0.815   8.628 -2.4988  0.3355  0.9676
  105OSM    C1F10744   2.555   0.817  10.436  0.5345  0.4010 -0.4138
  105OSM     OF10745   2.486   0.761  10.529 -0.7112 -0.0265 -0.7465
  105OSM    C2F10746   2.700   0.803  10.413 -0.0329  0.2164  0.7295
  105OSM    H2F10747   2.747   0.780  10.511  0.6989  2.0934  0.8691
  105OSM    H2G10748   2.742   0.897  10.371 -1.6982 -0.2059 -2.1326
  105OSM    C3F10749   2.733   0.691  10.309  0.4931  0.8402 -0.4830
  105OSM    H3F10750   2.842   0.673  10.317  0.5605  1.9681  2.2492
  105OSM    H3G10751   2.715   0.724  10.205  0.5044 -1.3510 -1.2309
  105OSM    C4F10752   2.653   0.565  10.322  0.0725  0.4385 -0.5847
  105OSM    H4F10753   2.543   0.581  10.318  0.0211  0.6281  0.9576
  105OSM    H4G10754   2.669   0.523  10.424  1.1763 -0.4952 -1.1090
  105OSM    C5F10755   2.696   0.449  10.223  0.4663 -0.6951 -0.0733
  105OSM    H5F10756   2.654   0.359  10.272  2.1033 -0.8979  1.0528
  105OSM    H5G10757   2.806   0.434  10.219  0.7950 -0.1388  3.5433
  105OSM    C6F10758   2.632   0.478  10.091  0.4890 -0.4365  0.1049
  105OSM    H6F10759   2.687   0.561  10.041 -1.0473  0.1815 -0.6276
  105OSM    H6G10760   2.530   0.522  10.099  0.7127  0.4244 -1.3128
  105OSM    C7F10761   2.645   0.363   9.985  0.2933 -0.2239 -0.0763
  105OSM    H7F10762   2.616   0.270  10.038  1.7662  0.4618  2.0870
  105OSM    H7G10763   2.754   0.345   9.979  0.0517 -1.3592 -2.4467
  105OSM    C8F10764   2.579   0.401   9.849  1.0224  0.9710 -0.3636
  105OSM    H8F10765   2.638   0.487   9.812  2.7327  0.6748  1.4871
  105OSM    H8G10766   2.479   0.441   9.878  1.6586 -0.1259  4.2230
  105OSM    C9F10767   2.561   0.280   9.763 -0.0997  0.4684 -0.1088
  105OSM    H9F10768   2.498   0.202   9.808  2.3345 -1.0238  0.9683
  105OSM   C10F10769   2.616   0.259   9.640  0.5082  0.6091 -0.2450
  105OSM   H10F10770   2.594   0.165   9.588 -0.4377  0.5948  0.1707
  105OSM   C11F10771   2.709   0.355   9.568 -0.1412 -0.3496  0.7797
  105OSM   H11F10772   2.783   0.312   9.497  0.6305  4.4076 -1.6506
  105OSM   H11G10773   2.774   0.413   9.636 -0.1186  2.1859 -1.2586
  105OSM   C12F10774   2.626   0.463   9.492  0.0065  0.1651 -0.1067
  105OSM   H12F10775   2.689   0.543   9.449  0.8499  2.0933  4.1820
  105OSM   H12G10776   2.569   0.513   9.574  0.2304 -0.9025  0.7281
  105OSM   C13F10777   2.535   0.415   9.376  0.5190  0.8280 -0.7056
  105OSM   H13F10778   2.488   0.495   9.315  0.6890  1.6417  0.2114
  105OSM   H13G10779   2.448   0.366   9.425  3.1557 -0.3708  3.3535
  105OSM   C14F10780   2.592   0.310   9.284  0.3849  0.2831  0.4002
  105OSM   H14F10781   2.583   0.210   9.330  2.3140 -0.6733 -1.1445
  105OSM   H14G10782   2.701   0.327   9.270 -0.0009  0.5809 -3.0342
  105OSM   C15F10783   2.521   0.310   9.147 -0.5090 -0.0868 -0.8450
  105OSM   H15F10784   2.555   0.400   9.093  2.3333 -0.1809  0.6401
  105OSM   H15G10785   2.411   0.310   9.166 -0.3615 -1.8727  0.1632
  105OSM   C16F10786   2.545   0.180   9.073 -0.3839 -0.1476 -0.0991
  105OSM   H16F10787   2.453   0.117   9.075 -0.4993 -0.0373 -1.1019
  105OSM   H16G10788   2.630   0.125   9.117 -0.4614 -0.5377 -0.4332
  105OSM   C17F10789   2.593   0.197   8.924  0.2595  0.2690 -0.4362
  105OSM   H17F10790   2.632   0.099   8.888 -0.7665  0.6421 -2.7354
  105OSM   H17G10791   2.667   0.280   8.932 -1.1844  1.5894 -0.2136
  105OSM   C18F10792   2.488   0.235   8.818  0.8330  0.0946  0.2659
  105OSM   H18F10793   2.433   0.141   8.796  1.4684 -0.9424  2.7614
  105OSM   H18G10794   2.530   0.283   8.727  0.7942  0.4033  0.4115
  105OSM   H18H10795   2.407   0.302   8.852  0.5387  0.2283 -0.6639
  106OSM      N10796   3.185   6.519  10.733  1.0378  0.2204  0.0446
  106OSM    C1510797   3.145   6.579  10.599 -0.3498 -0.8889 -0.6341
  106OSM   H15A10798   3.190   6.532  10.513  1.0977 -1.9347  0.6498
  106OSM   H15B10799   3.143   6.687  10.600 -0.6127 -0.8475 -2.1963
  106OSM   H15C10800   3.039   6.564  10.586 -0.5668  1.0306 -1.4178
  106OSM    C1410801   3.328   6.523  10.761 -0.3260  1.2549  0.0911
  106OSM   H14A10802   3.367   6.621  10.782  1.2051  0.5388  0.8086
  106OSM   H14B10803   3.386   6.494  10.674  2.1634  0.4876  1.8789
  106OSM   H14C10804   3.362   6.462  10.844  0.9643 -1.1111 -2.0217
  106OSM    C1310805   3.116   6.602  10.845  0.8938  0.8555 -0.1102
  106OSM   H13A10806   3.010   6.602  10.826  0.9918 -1.3431 -1.0058
  106OSM   H13B10807   3.144   6.706  10.836  1.6347  0.6508 -0.2793
  106OSM   H13C10808   3.142   6.548  10.935 -0.6229 -0.2712 -0.3032
  106OSM    C1210809   3.132   6.383  10.732  0.0998  0.3385  0.3590
  106OSM   H12A10810   3.025   6.384  10.747 -0.1156 -2.2526 -0.5695
  106OSM   H12B10811   3.178   6.334  10.816  1.2151 -2.7455 -1.8837
  106OSM    C1110812   3.153   6.291  10.602  0.7437  0.2562 -0.5960
  106OSM   H11A10813   3.105   6.341  10.515  1.4441  1.1118 -0.5071
  106OSM   H11B10814   3.104   6.193  10.619 -1.8189  1.6056  0.3175
  106OSM      P10815   3.367   6.146  10.604  0.1970  0.1051  0.3035
  106OSM    O1310816   3.474   6.139  10.506 -0.0701 -0.3362 -0.3998
  106OSM    O1410817   3.408   6.130  10.748 -1.1851  0.0175  0.0958
  106OSM    O1110818   3.268   6.039  10.560 -0.2800  0.1220  0.1454
  106OSM    O1210819   3.291   6.283  10.578 -0.3876  0.0461 -0.0556
  106OSM    C1S10820   3.234   6.005  10.431  0.2935  0.4046 -0.2059
  106OSM    H1S10821   3.239   6.095  10.365 -1.0290 -0.2312 -1.2233
  106OSM    H1T10822   3.127   5.976  10.432  0.5432 -0.5530  0.9504
  106OSM     NF10823   3.266   5.873  10.214  0.2445 -0.2325  0.3324
  106OSM    HNF10824   3.201   5.802  10.190 -0.6253  1.3398 -2.3016
  106OSM    C2S10825   3.318   5.894  10.347  0.5327 -0.1555  0.0892
  106OSM    H2S10826   3.420   5.939  10.347  0.3622  0.3387  2.1084
  106OSM    C3S10827   3.324   5.768  10.430 -0.1783  0.3861 -0.5375
  106OSM    H3S10828   3.219   5.731  10.430 -1.0936  2.7727  0.4368
  106OSM     O310829   3.362   5.776  10.572  0.3223 -0.6417  0.4038
  106OSM    HO310830   3.336   5.862  10.607 -2.6358 -2.0349  1.9968
  106OSM    C4S10831   3.423   5.672  10.365 -0.9542  0.1382  0.2239
  106OSM    H4S10832   3.509   5.729  10.329 -1.3356  0.8111  0.3734
  106OSM    C5S10833   3.418   5.539  10.351  0.0282 -0.2525  0.3519
  106OSM    H5S10834   3.338   5.476  10.392  0.2481 -0.1500  0.9498
  106OSM    C6S10835   3.527   5.465  10.275 -0.1564  0.5069  0.4119
  106OSM    H6S10836   3.536   5.364  10.321  0.6185  0.8661  1.0654
  106OSM    H6T10837   3.629   5.510  10.278  0.5946 -1.0503 -0.4324
  106OSM    C7S10838   3.515   5.429  10.126  0.4437 -0.8355 -0.3198
  106OSM    H7S10839   3.439   5.349  10.113 -1.7946  1.2151 -0.7220
  106OSM    H7T10840   3.616   5.399  10.093  1.0538 -2.4988  2.7413
  106OSM    C8S10841   3.470   5.557  10.055 -0.2821  0.2621 -0.2249
  106OSM    H8S10842   3.529   5.640  10.099  0.4854  0.0110 -0.7567
  106OSM    H8T10843   3.361   5.575  10.064 -0.2707  0.5865 -0.6505
  106OSM    C9S10844   3.509   5.562   9.908 -0.4371  0.1366 -0.4790
  106OSM    H9S10845   3.601   5.506   9.881  1.0104  2.0829  0.2009
  106OSM    H9T10846   3.533   5.669   9.889 -2.3903  0.7968  0.5050
  106OSM   C10S10847   3.382   5.523   9.821  0.1047 -0.1619 -0.5304
  106OSM   H10S10848   3.295   5.585   9.852  0.1552 -0.4213  0.1528
  106OSM   H10T10849   3.379   5.413   9.838  2.5464 -0.1464  0.3777
  106OSM   C11S10850   3.410   5.577   9.675 -0.3537  0.0660  0.6873
  106OSM   H11S10851   3.513   5.568   9.635 -0.3009 -0.0300  0.8431
  106OSM   H11T10852   3.395   5.686   9.689  1.8156  0.4832  0.1460
  106OSM   C12S10853   3.329   5.512   9.562  0.7816  0.4361 -0.1930
  106OSM   H12S10854   3.329   5.410   9.604  2.0305  0.8970  1.0271
  106OSM   H12T10855   3.386   5.517   9.466  2.4432 -0.3908  0.7146
  106OSM   C13S10856   3.174   5.554   9.555  0.1636 -0.0072 -0.7209
  106OSM   H13S10857   3.124   5.513   9.646 -0.4900 -0.9960 -1.5026
  106OSM   H13T10858   3.134   5.494   9.471 -1.1572 -0.4401  0.1725
  106OSM   C14S10859   3.146   5.700   9.528  0.0191 -0.6629 -0.4379
  106OSM   H14S10860   3.222   5.732   9.453  2.4764 -0.8038  1.8216
  106OSM   H14T10861   3.175   5.749   9.623  1.9391  0.5955 -1.6090
  106OSM   C15S10862   3.007   5.730   9.494 -0.1676 -0.2783 -0.4366
  106OSM   H15S10863   3.002   5.841   9.504  0.3190 -0.3671  1.1234
  106OSM   H15T10864   2.923   5.680   9.547 -3.6928  0.2707 -4.8548
  106OSM   C16S10865   2.990   5.707   9.340 -0.0573  0.0544 -0.3172
  106OSM   H16S10866   2.959   5.601   9.332 -0.7795  0.2571 -0.3016
  106OSM   H16T10867   3.081   5.726   9.279 -0.0408 -0.3106 -0.4092
  106OSM   C17S10868   2.897   5.808   9.271  0.0627  0.1699  0.8002
  106OSM   H17S10869   2.937   5.911   9.261  0.2393 -0.1192 -2.5999
  106OSM   H17T10870   2.818   5.833   9.344 -0.0018  0.6269  0.5805
  106OSM   C18S10871   2.841   5.750   9.143 -0.7091 -0.5011  0.0073
  106OSM   H18S10872   2.792   5.656   9.178 -2.6500  0.8444  1.1454
  106OSM   H18T10873   2.921   5.729   9.069 -0.1312  0.8331  0.2282
  106OSM   H18U10874   2.766   5.824   9.107 -0.7992 -0.3897  0.4186
  106OSM    C1F10875   3.283   5.957  10.110  0.0373 -0.1670 -0.3126
  106OSM     OF10876   3.359   6.051  10.112  0.3218  0.0164 -0.2867
  106OSM    C2F10877   3.206   5.922   9.987  0.4401 -0.6342 -0.2593
  106OSM    H2F10878   3.098   5.925  10.010  0.4519 -2.2559  0.1016
  106OSM    H2G10879   3.236   5.821   9.952 -0.5694 -0.6927 -0.9838
  106OSM    C3F10880   3.233   6.015   9.868 -0.7359  1.1375 -0.2066
  106OSM    H3F10881   3.222   6.123   9.894 -0.2922  1.0775  0.2315
  106OSM    H3G10882   3.161   5.983   9.789  0.1452 -2.3955  0.2694
  106OSM    C4F10883   3.377   5.998   9.809  0.3646  0.0955 -0.0024
  106OSM    H4F10884   3.391   5.890   9.784 -1.8383 -0.5002  1.0353
  106OSM    H4G10885   3.455   6.031   9.881 -0.3985  0.7907  0.5182
  106OSM    C5F10886   3.395   6.078   9.670  0.0543  0.5663 -0.3610
  106OSM    H5F10887   3.505   6.089   9.660  0.2797 -0.4933  0.7639
  106OSM    H5G10888   3.342   6.174   9.689 -0.0388  0.2459  1.0901
  106OSM    C6F10889   3.345   5.997   9.549  0.5360 -0.6622  0.6041
  106OSM    H6F10890   3.273   6.070   9.505 -0.2708 -1.1138  1.1453
  106OSM    H6G10891   3.291   5.913   9.597  1.0170 -1.6717 -0.5693
  106OSM    C7F10892   3.436   5.950   9.441  0.1140  0.4649  0.2729
  106OSM    H7F10893   3.409   5.845   9.420  0.2242  0.1311  1.6859
  106OSM    H7G10894   3.537   5.923   9.478 -0.8750 -2.2953  1.2267
  106OSM    C8F10895   3.439   6.026   9.305 -0.2338 -0.3572 -0.2390
  106OSM    H8F10896   3.334   6.047   9.276 -0.8093 -3.0236 -0.3353
  106OSM    H8G10897   3.485   5.960   9.229  1.2135  1.2407 -0.8024
  106OSM    C9F10898   3.522   6.154   9.303  1.3918 -0.0428  0.6115
  106OSM    H9F10899   3.481   6.236   9.363  2.0193  0.6140  0.1553
  106OSM   C10F10900   3.624   6.177   9.229  0.1455  0.1847  0.3396
  106OSM   H10F10901   3.664   6.280   9.231  1.6400 -0.3624  0.0746
  106OSM   C11F10902   3.698   6.081   9.137 -0.0511 -0.8555 -0.3903
  106OSM   H11F10903   3.687   5.977   9.174  0.0654 -1.1644 -1.2086
  106OSM   H11G10904   3.808   6.094   9.135 -0.1508  0.2318  0.0979
  106OSM   C12F10905   3.639   6.095   8.995  0.5218 -0.1940 -0.3927
  106OSM   H12F10906   3.641   6.197   8.953 -2.0746  0.4530  0.8309
  106OSM   H12G10907   3.533   6.066   9.012  0.8704 -0.7808  0.9597
  106OSM   C13F10908   3.707   6.007   8.887  0.7345 -0.5006 -1.2812
  106OSM   H13F10909   3.639   5.964   8.811  1.0212 -0.3816 -1.6093
  106OSM   H13G10910   3.756   5.929   8.949  0.4882  1.5527  1.7384
  106OSM   C14F10911   3.816   6.081   8.810 -0.1533 -0.0442 -0.2239
  106OSM   H14F10912   3.762   6.172   8.776 -0.2288 -0.7915 -2.2570
  106OSM   H14G10913   3.843   6.015   8.725 -4.1289 -2.8747  0.4047
  106OSM   C15F10914   3.943   6.111   8.891 -0.2150  0.0906  0.3338
  106OSM   H15F10915   3.909   6.183   8.970  1.1547  1.8943 -0.6462
  106OSM   H15G10916   3.998   6.183   8.828 -0.9626 -0.3214 -0.8141
  106OSM   C16F10917   4.024   6.003   8.943 -0.1984  0.2913  0.1861
  106OSM   H16F10918   4.065   5.959   8.849  2.6693  4.9803 -1.0946
  106OSM   H16G10919   3.964   5.928   8.999 -0.8093  0.9597  0.4426
  106OSM   C17F10920   4.133   6.042   9.040 -0.4901 -0.1147  0.0759
  106OSM   H17F10921   4.088   6.075   9.136  0.3328  1.1952  0.0382
  106OSM   H17G10922   4.201   6.121   9.001  1.1373 -1.0383  0.9550
  106OSM   C18F10923   4.229   5.928   9.072 -0.0153 -0.2213 -0.2513
  106OSM   H18F10924   4.323   5.953   9.127 -1.6635  1.0394  2.1914
  106OSM   H18G10925   4.265   5.894   8.973  1.5711  0.6570 -0.0095
  106OSM   H18H10926   4.191   5.841   9.129  0.7605  0.8623  2.0666
  107OSM      N10927   5.543   3.070  11.032  0.0773  0.0924 -0.3605
  107OSM    C1510928   5.462   3.163  11.116 -0.5690  0.3463  0.1457
  107OSM   H15A10929   5.426   3.246  11.056 -1.9309  0.2567  0.8001
  107OSM   H15B10930   5.518   3.191  11.204 -0.8966 -2.1884  1.2448
  107OSM   H15C10931   5.378   3.116  11.165 -0.9526  0.9942  0.1307
  107OSM    C1410932   5.680   3.129  10.998  0.6346  0.7198  0.3982
  107OSM   H14A10933   5.726   3.057  10.932 -1.5816  0.6526 -1.1862
  107OSM   H14B10934   5.742   3.150  11.084 -1.4593  0.1828  2.1204
  107OSM   H14C10935   5.657   3.216  10.939 -2.0330  0.5010  0.9720
  107OSM    C1310936   5.569   2.941  11.105  0.4966 -0.3475 -0.2792
  107OSM   H13A10937   5.472   2.897  11.119  0.6644  0.0502  2.7653
  107OSM   H13B10938   5.602   2.964  11.206 -0.2286  4.4895 -0.9219
  107OSM   H13C10939   5.631   2.875  11.046  0.1477  0.1514 -1.2213
  107OSM    C1210940   5.467   3.040  10.902  0.3338 -0.8830  0.2933
  107OSM   H12A10941   5.401   3.123  10.882  0.0653 -0.7298  1.6824
  107OSM   H12B10942   5.392   2.966  10.927 -0.0231 -0.8108 -0.5185
  107OSM    C1110943   5.536   2.991  10.773  0.0963  0.5213 -1.0348
  107OSM   H11A10944   5.600   3.077  10.746  0.1189  0.4799 -1.1151
  107OSM   H11B10945   5.463   2.973  10.691  1.4415  1.0780 -2.3847
  107OSM      P10946   5.706   2.840  10.673  0.1316  0.3766  0.2669
  107OSM    O1310947   5.820   2.937  10.660  0.2562 -0.1794  0.0769
  107OSM    O1410948   5.751   2.697  10.685  0.0780 -0.5030  0.6039
  107OSM    O1110949   5.603   2.864  10.550 -0.0009 -0.4062 -0.3913
  107OSM    O1210950   5.616   2.872  10.805 -0.4234 -0.1327  0.3557
  107OSM    C1S10951   5.522   2.750  10.495 -0.3918 -0.3714 -0.9482
  107OSM    H1S10952   5.421   2.762  10.540 -0.0708  0.8142 -0.4996
  107OSM    H1T10953   5.576   2.657  10.522 -3.2459 -1.5226  1.3772
  107OSM     NF10954   5.396   2.675  10.289  0.7890 -0.5013  0.3413
  107OSM    HNF10955   5.421   2.579  10.295 -1.2955 -1.3286 -2.3362
  107OSM    C2S10956   5.502   2.766  10.339  0.8930 -0.3833  0.3417
  107OSM    H2S10957   5.464   2.869  10.324  1.2541 -0.1324  1.0758
  107OSM    C3S10958   5.638   2.750  10.263 -0.0619  0.9462 -0.1424
  107OSM    H3S10959   5.658   2.642  10.252  0.2751  0.9995 -0.0742
  107OSM     O310960   5.759   2.799  10.329  0.6427 -0.3866  0.0375
  107OSM    HO310961   5.727   2.856  10.399  0.0041 -0.7581  0.0499
  107OSM    C4S10962   5.631   2.803  10.123  0.0696 -1.6085  0.4936
  107OSM    H4S10963   5.529   2.839  10.104  0.3350 -0.4107  1.2224
  107OSM    C5S10964   5.719   2.801  10.023 -0.0332  0.7969 -0.4414
  107OSM    H5S10965   5.818   2.756  10.035 -0.1595  0.4880 -0.5408
  107OSM    C6S10966   5.706   2.855   9.880  0.3265 -0.5820  0.1916
  107OSM    H6S10967   5.740   2.780   9.806  0.4258  0.1745 -0.5484
  107OSM    H6T10968   5.781   2.934   9.857 -0.3946  0.1246  0.2185
  107OSM    C7S10969   5.569   2.914   9.846 -0.3271 -0.1372  0.3317
  107OSM    H7S10970   5.564   3.014   9.894 -0.9187  0.4113 -0.8218
  107OSM    H7T10971   5.487   2.859   9.896 -1.0372  1.3018  0.8307
  107OSM    C8S10972   5.565   2.927   9.694 -0.0797  0.3329  0.0594
  107OSM    H8S10973   5.576   2.820   9.663  0.3000  0.9474 -2.0960
  107OSM    H8T10974   5.649   2.991   9.658  1.1906 -0.2918  1.7455
  107OSM    C9S10975   5.437   2.988   9.636 -0.1736  0.5862  0.3771
  107OSM    H9S10976   5.414   3.085   9.685 -0.6955  1.6884 -1.9189
  107OSM    H9T10977   5.357   2.915   9.658  1.8807 -2.0132 -0.3074
  107OSM   C10S10978   5.439   3.016   9.482  0.1222  0.1670 -0.6767
  107OSM   H10S10979   5.516   3.091   9.455  0.6688  0.0436  0.4849
  107OSM   H10T10980   5.341   3.065   9.465 -0.2127  0.8005  2.5835
  107OSM   C11S10981   5.440   2.884   9.404  0.6114  0.5437  0.5033
  107OSM   H11S10982   5.343   2.833   9.421  0.8845 -0.4153 -0.6390
  107OSM   H11T10983   5.516   2.814   9.444 -1.5117 -2.5570 -0.5513
  107OSM   C12S10984   5.458   2.916   9.248 -0.2506 -0.2154  0.5767
  107OSM   H12S10985   5.558   2.962   9.235 -0.7521  0.6593 -0.2916
  107OSM   H12T10986   5.391   3.000   9.219  0.1565 -0.0935 -0.0131
  107OSM   C13S10987   5.458   2.799   9.151  0.5108 -0.5846  0.2264
  107OSM   H13S10988   5.356   2.758   9.132  0.4674 -1.0810  1.4494
  107OSM   H13T10989   5.519   2.717   9.196  2.0352  1.5934  2.3791
  107OSM   C14S10990   5.528   2.844   9.018  0.0115 -0.2387 -0.1070
  107OSM   H14S10991   5.631   2.875   9.046  0.4039  0.3676 -2.0865
  107OSM   H14T10992   5.480   2.932   8.971  0.4503  0.1313  0.1269
  107OSM   C15S10993   5.557   2.731   8.921 -0.0616  0.4736  0.6070
  107OSM   H15S10994   5.466   2.707   8.861 -0.6034  0.5748  1.3672
  107OSM   H15T10995   5.557   2.634   8.975  0.7005  0.4773  0.6215
  107OSM   C16S10996   5.685   2.749   8.844 -0.0537 -0.3440 -0.3647
  107OSM   H16S10997   5.766   2.783   8.911  0.8568  0.5506 -1.8577
  107OSM   H16T10998   5.671   2.833   8.773  2.2317 -0.1204 -0.6370
  107OSM   C17S10999   5.730   2.624   8.772 -0.6276  0.3920 -0.3029
  107OSM   H17S11000   5.639   2.576   8.731 -0.7094 -0.1692  0.4948
  107OSM   H17T11001   5.767   2.558   8.853  0.8417  0.8425 -0.5842
  107OSM   C18S11002   5.831   2.650   8.662  0.0548  0.3889 -0.3367
  107OSM   H18S11003   5.916   2.704   8.711 -0.2837 -0.0046  0.6997
  107OSM   H18T11004   5.784   2.712   8.583 -2.0657  0.9919  1.2873
  107OSM   H18U11005   5.870   2.556   8.618 -2.3028 -0.8359  0.0586
  107OSM    C1F11006   5.267   2.709  10.295  0.0928  0.5111  0.3100
  107OSM     OF11007   5.228   2.809  10.354 -0.4205  0.2806 -0.4197
  107OSM    C2F11008   5.166   2.621  10.225  0.3785  0.6856 -0.1214
  107OSM    H2F11009   5.119   2.552  10.298 -0.0700  0.5724 -0.5121
  107OSM    H2G11010   5.218   2.563  10.146 -0.6815 -2.0228  1.0543
  107OSM    C3F11011   5.047   2.686  10.150 -0.2862  0.0167 -0.6323
  107OSM    H3F11012   5.001   2.762  10.216  1.6297 -0.0670  0.8756
  107OSM    H3G11013   4.964   2.612  10.149  0.5778 -0.9877 -0.0244
  107OSM    C4F11014   5.094   2.742  10.009  0.6590  0.0244  0.3395
  107OSM    H4F11015   5.147   2.662   9.952  2.3304  0.0652  1.7657
  107OSM    H4G11016   5.176   2.812  10.033  1.7821 -1.2283  0.2897
  107OSM    C5F11017   4.974   2.804   9.932  0.2145  0.7657 -0.8378
  107OSM    H5F11018   4.934   2.879  10.004 -1.3350  0.4256 -1.3210
  107OSM    H5G11019   4.895   2.733   9.900 -0.1026  0.6335  0.1921
  107OSM    C6F11020   5.011   2.886   9.799 -0.0463  0.4134  0.3724
  107OSM    H6F11021   5.087   2.959   9.833  0.6918  0.5981 -1.6096
  107OSM    H6G11022   4.920   2.940   9.764  0.6204  2.2965  1.4228
  107OSM    C7F11023   5.068   2.798   9.682 -0.3888 -0.0110 -0.3247
  107OSM    H7F11024   5.168   2.768   9.719  0.0847  0.1286 -1.4648
  107OSM    H7G11025   5.077   2.869   9.597 -0.8183  0.8561  0.3356
  107OSM    C8F11026   4.984   2.680   9.632 -0.3040  0.4087  0.1790
  107OSM    H8F11027   4.961   2.611   9.717  1.1792 -1.3954 -0.7895
  107OSM    H8G11028   5.052   2.622   9.566  0.5209 -1.6789  2.6569
  107OSM    C9F11029   4.844   2.713   9.573 -0.0549  0.2331 -0.3343
  107OSM    H9F11030   4.763   2.724   9.646  0.1355 -0.7034  0.0303
  107OSM   C10F11031   4.821   2.720   9.439  0.1582  0.5020 -0.2652
  107OSM   H10F11032   4.717   2.728   9.404  0.8210  0.9468 -2.2364
  107OSM   C11F11033   4.935   2.703   9.335  0.9431 -0.8632  0.2232
  107OSM   H11F11034   5.037   2.671   9.367  1.5585  0.5698 -0.2102
  107OSM   H11G11035   4.942   2.797   9.277  2.8064 -2.3438 -2.1618
  107OSM   C12F11036   4.885   2.610   9.226 -0.0944  0.0136 -0.4171
  107OSM   H12F11037   4.774   2.612   9.215 -0.0519  0.2551 -0.8345
  107OSM   H12G11038   4.927   2.511   9.255  2.1183  0.4575 -1.8534
  107OSM   C13F11039   4.951   2.645   9.084 -1.0069 -0.2123  0.2490
  107OSM   H13F11040   4.935   2.752   9.062 -0.3076  0.1478  1.4159
  107OSM   H13G11041   4.887   2.584   9.016 -1.0324  0.4423 -0.3200
  107OSM   C14F11042   5.095   2.598   9.076 -0.8043 -0.2004 -0.3559
  107OSM   H14F11043   5.082   2.493   9.109 -3.1896  0.1153 -0.1422
  107OSM   H14G11044   5.157   2.658   9.147 -1.7274  0.7894 -0.3630
  107OSM   C15F11045   5.164   2.602   8.941 -0.2745 -0.5682  0.2206
  107OSM   H15F11046   5.274   2.592   8.958 -0.0935  2.2273  1.2939
  107OSM   H15G11047   5.157   2.705   8.898  3.3385 -0.0369  0.5249
  107OSM   C16F11048   5.098   2.509   8.839 -0.6999  0.1782 -0.0782
  107OSM   H16F11049   4.989   2.527   8.827 -1.2733 -2.7232  0.0311
  107OSM   H16G11050   5.112   2.406   8.876 -1.2886  0.5268  1.1808
  107OSM   C17F11051   5.163   2.520   8.701  0.0814 -0.3523  0.1921
  107OSM   H17F11052   5.148   2.624   8.665 -0.6952 -0.1846  0.9673
  107OSM   H17G11053   5.107   2.452   8.634  0.1748  0.5427 -0.8113
  107OSM   C18F11054   5.312   2.488   8.704  0.1669 -0.2687 -0.4441
  107OSM   H18F11055   5.360   2.465   8.607  2.6890  1.2251  0.3565
  107OSM   H18G11056   5.343   2.406   8.772 -0.1150  0.5476  0.7036
  107OSM   H18H11057   5.373   2.565   8.754 -1.3347 -0.5041  1.9117
  108OSM      N11058   1.537   6.511  10.953 -0.6150 -0.4300 -0.2004
  108OSM    C1511059   1.617   6.389  10.899  0.4284  0.5412 -0.5052
  108OSM   H15A11060   1.636   6.320  10.980 -1.6333  1.6119  0.9578
  108OSM   H15B11061   1.708   6.423  10.851  0.4588  0.8600 -0.2245
  108OSM   H15C11062   1.565   6.341  10.817 -0.2776  4.5817 -2.6940
  108OSM    C1411063   1.621   6.564  11.075 -1.1426  0.1352 -0.0089
  108OSM   H14A11064   1.578   6.655  11.116 -2.4327 -0.2797 -0.3891
  108OSM   H14B11065   1.719   6.572  11.032 -0.5487  1.2011  1.4676
  108OSM   H14C11066   1.628   6.488  11.152  0.1619 -0.2659 -0.4999
  108OSM    C1311067   1.528   6.612  10.844 -0.1794 -0.2810  0.4878
  108OSM   H13A11068   1.463   6.582  10.763 -0.5471 -1.3509  1.1524
  108OSM   H13B11069   1.622   6.629  10.794 -0.0741 -2.1024  0.0189
  108OSM   H13C11070   1.502   6.711  10.879 -0.9626 -0.9184  1.7617
  108OSM    C1211071   1.404   6.474  11.005 -0.2187  0.3737  0.2337
  108OSM   H12A11072   1.369   6.561  11.058  0.5128  2.3889 -2.3663
  108OSM   H12B11073   1.404   6.396  11.080 -2.8510 -1.8257 -1.8325
  108OSM    C1111074   1.293   6.418  10.913  0.0577  0.5671 -1.3970
  108OSM   H11A11075   1.211   6.368  10.969 -0.2423  2.4553 -0.0358
  108OSM   H11B11076   1.342   6.343  10.847 -0.4052  0.2798 -1.4202
  108OSM      P11077   1.120   6.614  10.888 -0.1299 -0.2214 -0.0955
  108OSM    O1311078   0.983   6.565  10.860  0.3907 -0.4282 -0.1792
  108OSM    O1411079   1.151   6.656  11.028 -0.4096  0.9377 -0.1363
  108OSM    O1111080   1.151   6.743  10.804  0.1401 -0.3859 -0.0015
  108OSM    O1211081   1.226   6.519  10.835  0.0972 -0.7910  0.5104
  108OSM    C1S11082   1.161   6.742  10.662 -0.1007 -0.9784  0.1723
  108OSM    H1S11083   1.247   6.679  10.631 -0.5159 -1.0097 -0.9881
  108OSM    H1T11084   1.188   6.845  10.628  0.3339 -1.7070 -1.8497
  108OSM     NF11085   1.060   6.700  10.433  0.6723 -0.3522  0.0970
  108OSM    HNF11086   1.022   6.770  10.374  1.5606  0.2542  0.2114
  108OSM    C2S11087   1.030   6.714  10.574  0.0476 -0.4135  0.0105
  108OSM    H2S11088   0.987   6.616  10.601  0.0262 -0.9237 -1.7721
  108OSM    C3S11089   0.923   6.820  10.610  0.0029 -0.1268  0.7754
  108OSM    H3S11090   0.947   6.912  10.552 -1.5475 -1.0334 -1.4859
  108OSM     O311091   0.897   6.864  10.743  0.2426  0.0733  0.2155
  108OSM    HO311092   0.974   6.824  10.784 -0.5064 -1.1762  0.4604
  108OSM    C4S11093   0.792   6.778  10.553  0.7887 -0.1956  0.0021
  108OSM    H4S11094   0.763   6.836  10.464  0.3250  1.2973  1.0970
  108OSM    C5S11095   0.708   6.682  10.602  0.0316 -0.1467  0.0557
  108OSM    H5S11096   0.743   6.624  10.688  0.6098  0.5967  0.3378
  108OSM    C6S11097   0.582   6.640  10.533 -0.6655 -0.4498  0.4439
  108OSM    H6S11098   0.497   6.643  10.606  0.7824 -1.4059  2.2438
  108OSM    H6T11099   0.596   6.547  10.475 -0.6256  0.3858 -0.9406
  108OSM    C7S11100   0.523   6.744  10.427  0.4137 -0.1427  0.5583
  108OSM    H7S11101   0.600   6.775  10.353 -0.4993  0.6786 -0.0827
  108OSM    H7T11102   0.506   6.843  10.474 -0.5956  0.4107 -0.8815
  108OSM    C8S11103   0.389   6.698  10.357  0.0515  0.9959 -0.3268
  108OSM    H8S11104   0.350   6.781  10.294  0.7348 -0.9522 -3.5625
  108OSM    H8T11105   0.318   6.666  10.436 -0.5631 -1.1286 -1.6682
  108OSM    C9S11106   0.398   6.571  10.268 -0.7983  0.4280  0.0445
  108OSM    H9S11107   0.296   6.549  10.232 -0.7257 -0.0467  0.1274
  108OSM    H9T11108   0.430   6.493  10.340 -0.8372  0.6540  0.3110
  108OSM   C10S11109   0.492   6.606  10.152 -0.2198  0.3413  0.3108
  108OSM   H10S11110   0.601   6.597  10.174  0.0999 -2.9972 -1.8384
  108OSM   H10T11111   0.469   6.705  10.107 -1.7925  0.1207  0.5890
  108OSM   C11S11112   0.475   6.500  10.039 -0.3741  0.1915 -0.0198
  108OSM   H11S11113   0.365   6.503  10.020 -0.6500  0.1124  1.4276
  108OSM   H11T11114   0.516   6.402  10.072  0.7818  0.9608  0.8744
  108OSM   C12S11115   0.560   6.553   9.925  0.1201 -0.1284  0.4114
  108OSM   H12S11116   0.666   6.563   9.957  0.4172  1.1009 -0.8448
  108OSM   H12T11117   0.532   6.655   9.889  0.5779 -0.2361 -0.2612
  108OSM   C13S11118   0.558   6.459   9.797  0.1895 -0.0270  0.1474
  108OSM   H13S11119   0.455   6.442   9.759  0.1085 -1.1675  0.8242
  108OSM   H13T11120   0.609   6.365   9.825  2.6877  0.7817 -1.4089
  108OSM   C14S11121   0.637   6.515   9.681 -0.6191 -0.5985  0.0288
  108OSM   H14S11122   0.740   6.541   9.714 -0.8793 -0.1930  0.5429
  108OSM   H14T11123   0.600   6.617   9.655 -0.7174 -0.4699  0.6442
  108OSM   C15S11124   0.653   6.431   9.562 -0.0744  0.8531 -0.1244
  108OSM   H15S11125   0.553   6.407   9.520 -0.1717  0.2622  0.4266
  108OSM   H15T11126   0.699   6.337   9.599 -1.7857 -0.2434 -0.6641
  108OSM   C16S11127   0.742   6.493   9.452 -1.4506  0.2469 -0.1820
  108OSM   H16S11128   0.847   6.489   9.486 -2.0586 -0.5429  1.6831
  108OSM   H16T11129   0.707   6.598   9.439 -0.1997  0.8557  1.1662
  108OSM   C17S11130   0.739   6.420   9.320  0.2567 -0.6910  0.0498
  108OSM   H17S11131   0.644   6.444   9.268  0.7983  1.8401  0.0576
  108OSM   H17T11132   0.764   6.312   9.325  0.8019 -0.5416  3.2654
  108OSM   C18S11133   0.835   6.492   9.224 -0.3367 -0.1492 -0.0159
  108OSM   H18S11134   0.806   6.599   9.224  0.0398  0.0412 -2.8122
  108OSM   H18T11135   0.835   6.461   9.117  0.2457  0.4298 -0.1879
  108OSM   H18U11136   0.934   6.487   9.272 -0.1244  0.3044 -0.3988
  108OSM    C1F11137   1.139   6.609  10.378 -0.1497 -0.1831 -0.2907
  108OSM     OF11138   1.158   6.502  10.434  0.2762  0.2478  0.1603
  108OSM    C2F11139   1.207   6.645  10.253 -0.3917 -0.8166  0.7598
  108OSM    H2F11140   1.222   6.755  10.255  2.0927 -0.9301 -2.2887
  108OSM    H2G11141   1.141   6.623  10.166 -0.2350  2.3473 -0.3159
  108OSM    C3F11142   1.348   6.584  10.232  0.0042  0.0371 -0.0249
  108OSM    H3F11143   1.329   6.475  10.221 -0.0291 -0.2015  1.9183
  108OSM    H3G11144   1.411   6.594  10.323 -1.2029  1.6831  0.6714
  108OSM    C4F11145   1.410   6.625  10.105  0.2440 -0.2259 -0.2933
  108OSM    H4F11146   1.380   6.732  10.106  2.1773  0.3516 -0.6820
  108OSM    H4G11147   1.351   6.574  10.026  0.3951  1.2357 -1.3998
  108OSM    C5F11148   1.560   6.589  10.093  0.2836  0.2656  0.3481
  108OSM    H5F11149   1.564   6.485  10.132 -0.1124  0.0850 -0.0845
  108OSM    H5G11150   1.622   6.653  10.160  1.0099  0.9577 -0.9426
  108OSM    C6F11151   1.615   6.598   9.948 -0.1540 -0.0715 -0.8004
  108OSM    H6F11152   1.553   6.529   9.887  1.1019 -0.8253 -1.2639
  108OSM    H6G11153   1.718   6.557   9.950  0.5044  1.4981 -0.9548
  108OSM    C7F11154   1.625   6.749   9.902  0.0589 -0.8532  0.4379
  108OSM    H7F11155   1.668   6.803   9.989  2.7087 -3.0258  0.6162
  108OSM    H7G11156   1.524   6.793   9.888  1.0778  2.4540  2.5820
  108OSM    C8F11157   1.698   6.776   9.772 -0.3643  0.1127  0.2687
  108OSM    H8F11158   1.781   6.703   9.778 -0.7186 -0.2034  1.5631
  108OSM    H8G11159   1.736   6.880   9.775  0.2246 -0.1004  0.3838
  108OSM    C9F11160   1.611   6.754   9.650  0.5952  0.0537  0.1505
  108OSM    H9F11161   1.518   6.812   9.640 -0.7556 -1.8378  1.0545
  108OSM   C10F11162   1.636   6.673   9.546 -0.4579 -0.1860 -0.4105
  108OSM   H10F11163   1.559   6.664   9.469 -2.3786  1.1481  1.2704
  108OSM   C11F11164   1.757   6.581   9.522  0.4536  0.1094 -0.4977
  108OSM   H11F11165   1.734   6.478   9.556  1.3430  0.2635  0.6384
  108OSM   H11G11166   1.847   6.610   9.580  0.7000 -2.1040  0.3142
  108OSM   C12F11167   1.789   6.592   9.369 -0.0777  0.0015 -0.3396
  108OSM   H12F11168   1.884   6.534   9.367 -0.4384 -0.6228  0.2196
  108OSM   H12G11169   1.824   6.691   9.332  1.3328 -0.8350 -1.3434
  108OSM   C13F11170   1.695   6.528   9.270  0.0190 -0.1688 -0.1576
  108OSM   H13F11171   1.596   6.578   9.268  1.2557  2.3984 -0.5133
  108OSM   H13G11172   1.671   6.428   9.314 -0.4805  0.2706  0.5791
  108OSM   C14F11173   1.761   6.520   9.133  0.4526  0.5755  0.5641
  108OSM   H14F11174   1.715   6.430   9.087 -0.5316  0.1143  2.3676
  108OSM   H14G11175   1.868   6.493   9.140  0.4165  0.9120  4.0147
  108OSM   C15F11176   1.751   6.648   9.048 -0.0905  0.1585  0.0565
  108OSM   H15F11177   1.801   6.628   8.951 -0.0103 -0.3640  0.2038
  108OSM   H15G11178   1.801   6.742   9.081 -1.4505 -0.0073  2.8280
  108OSM   C16F11179   1.605   6.693   9.022 -0.0217  0.2448  0.3967
  108OSM   H16F11180   1.617   6.781   8.956 -0.5002  0.6110  0.7882
  108OSM   H16G11181   1.566   6.727   9.120  1.5821 -1.5239  1.7406
  108OSM   C17F11182   1.502   6.606   8.942  0.0711  0.0488  0.4625
  108OSM   H17F11183   1.479   6.519   9.006 -3.1417  0.5039  0.1202
  108OSM   H17G11184   1.550   6.572   8.847 -0.3675  1.2913 -0.2325
  108OSM   C18F11185   1.374   6.689   8.927  0.3518 -0.4756 -0.4329
  108OSM   H18F11186   1.379   6.775   8.857 -1.6346  1.2713  1.4399
  108OSM   H18G11187   1.333   6.722   9.024  2.4080 -1.0082  0.6971
  108OSM   H18H11188   1.304   6.623   8.872  1.0521  1.4566 -3.9093
  109OSM      N11189   2.246   2.104  10.703  0.0843  0.0818 -0.1599
  109OSM    C1511190   2.187   2.116  10.840 -0.0815 -0.1869 -0.3363
  109OSM   H15A11191   2.244   2.061  10.913 -1.4900  0.0212  0.9635
  109OSM   H15B11192   2.081   2.098  10.851  0.1862 -0.7348  1.5499
  109OSM   H15C11193   2.178   2.220  10.865 -1.1437 -0.2460 -0.4259
  109OSM    C1411194   2.244   1.963  10.665 -0.0246 -0.3844  0.0240
  109OSM   H14A11195   2.313   1.957  10.582  0.0703 -1.7392  0.1759
  109OSM   H14B11196   2.144   1.923  10.657 -0.0045 -1.0399  2.2955
  109OSM   H14C11197   2.286   1.903  10.745  0.9645  1.6569  1.1105
  109OSM    C1311198   2.166   2.188  10.604 -0.8443 -0.1492 -0.6798
  109OSM   H13A11199   2.179   2.155  10.503  0.5781 -0.7658 -0.3229
  109OSM   H13B11200   2.181   2.295  10.613  1.5893 -0.4155 -0.9094
  109OSM   H13C11201   2.062   2.183  10.632 -0.9705 -0.1633 -1.1463
  109OSM    C1211202   2.387   2.159  10.713  0.5641 -0.4995 -0.2541
  109OSM   H12A11203   2.437   2.095  10.784  1.1067  0.6501  0.4271
  109OSM   H12B11204   2.380   2.261  10.747  2.9975  0.4568 -2.2545
  109OSM    C1111205   2.470   2.161  10.590 -0.6959  0.0671  0.4786
  109OSM   H11A11206   2.556   2.228  10.612 -2.2505  1.1914  3.6538
  109OSM   H11B11207   2.410   2.200  10.505 -2.7111 -2.8603  0.3985
  109OSM      P11208   2.629   1.950  10.630  0.6042 -0.0867  0.1788
  109OSM    O1311209   2.603   1.943  10.775  0.1230 -0.2342 -0.2886
  109OSM    O1411210   2.645   1.820  10.552  0.1583 -0.0981 -0.1430
  109OSM    O1111211   2.756   2.040  10.599 -0.1387  0.1876 -0.3273
  109OSM    O1211212   2.513   2.031  10.563  0.3786 -0.1079 -0.4907
  109OSM    C1S11213   2.823   2.037  10.476 -0.5838 -0.2470  0.0213
  109OSM    H1S11214   2.782   1.958  10.410  0.6382 -1.3749  0.5658
  109OSM    H1T11215   2.930   2.015  10.496 -0.3281  0.5684 -0.3931
  109OSM     NF11216   2.893   2.172  10.279 -0.0802 -0.3416  0.5706
  109OSM    HNF11217   2.973   2.230  10.270  1.3221 -2.2477 -0.0532
  109OSM    C2S11218   2.825   2.179  10.405  0.3525  0.5603  0.0999
  109OSM    H2S11219   2.719   2.195  10.374  0.7828  1.8453 -0.7857
  109OSM    C3S11220   2.871   2.291  10.502 -0.2320  0.5974 -0.0834
  109OSM    H3S11221   2.981   2.273  10.507 -0.1044  1.0931 -0.8942
  109OSM     O311222   2.831   2.272  10.639  0.1249 -0.7698 -0.5404
  109OSM    HO311223   2.804   2.180  10.634 -2.3970 -0.0417 -2.1875
  109OSM    C4S11224   2.848   2.423  10.441  0.3852 -0.6811  0.4051
  109OSM    H4S11225   2.927   2.448  10.369 -0.6317 -0.1567 -0.5565
  109OSM    C5S11226   2.747   2.511  10.459  0.1196  0.4398 -0.3305
  109OSM    H5S11227   2.675   2.484  10.537  0.0266 -5.7594 -2.0754
  109OSM    C6S11228   2.735   2.640  10.389 -0.2077  0.5839  0.2330
  109OSM    H6S11229   2.762   2.723  10.457  1.1138  1.7231 -1.5963
  109OSM    H6T11230   2.630   2.663  10.360 -0.0821 -1.0075 -1.7446
  109OSM    C7S11231   2.823   2.660  10.261 -0.3078 -0.4596 -0.3130
  109OSM    H7S11232   2.781   2.589  10.187  0.2292 -1.5186  0.3723
  109OSM    H7T11233   2.928   2.631  10.280 -0.1984 -1.4259 -2.1581
  109OSM    C8S11234   2.808   2.801  10.205 -0.2669  0.3931  0.3264
  109OSM    H8S11235   2.813   2.867  10.294 -1.9484  0.7695  0.1760
  109OSM    H8T11236   2.704   2.813  10.167 -1.1181  1.3318  2.7445
  109OSM    C9S11237   2.902   2.853  10.088 -0.5611 -0.2261 -0.4195
  109OSM    H9S11238   3.003   2.822  10.123 -0.8979  0.3561  1.1421
  109OSM    H9T11239   2.898   2.964  10.082  1.4587  0.0069  1.1570
  109OSM   C10S11240   2.876   2.779   9.961  0.5436  0.1096  0.1158
  109OSM   H10S11241   2.875   2.672   9.992  2.2010  0.6605  2.2699
  109OSM   H10T11242   2.968   2.790   9.899  0.8367 -1.0978  0.3086
  109OSM   C11S11243   2.749   2.823   9.886 -0.4036 -0.0690 -0.0739
  109OSM   H11S11244   2.757   2.930   9.856  0.3332 -0.1238 -0.0801
  109OSM   H11T11245   2.667   2.817   9.962 -0.2388  1.4196  0.2712
  109OSM   C12S11246   2.710   2.732   9.769  0.1916 -0.4029  1.1300
  109OSM   H12S11247   2.603   2.745   9.739  0.5132  0.5059  0.3006
  109OSM   H12T11248   2.722   2.629   9.808  1.5642 -0.4614  0.6081
  109OSM   C13S11249   2.803   2.751   9.646  1.0634  0.6470 -0.4046
  109OSM   H13S11250   2.904   2.712   9.671  0.8306  0.5360  0.4038
  109OSM   H13T11251   2.809   2.860   9.630 -2.0143  0.9934  0.1595
  109OSM   C14S11252   2.743   2.685   9.519 -0.1256  0.4782 -0.0611
  109OSM   H14S11253   2.642   2.728   9.504  0.1210  0.8055 -0.8145
  109OSM   H14T11254   2.730   2.575   9.529 -1.9653  0.7921  1.6319
  109OSM   C15S11255   2.831   2.712   9.393  0.6797 -0.4183  0.1030
  109OSM   H15S11256   2.932   2.668   9.408  1.0424 -0.3757 -1.9358
  109OSM   H15T11257   2.843   2.822   9.382  0.1244 -0.4390 -0.7528
  109OSM   C16S11258   2.770   2.666   9.259  0.1695  0.1965 -0.7260
  109OSM   H16S11259   2.680   2.710   9.212 -0.0957 -1.5525 -1.9635
  109OSM   H16T11260   2.727   2.564   9.265 -0.1037  0.3866  0.7646
  109OSM   C17S11261   2.878   2.675   9.154 -0.1713  0.2411  0.6504
  109OSM   H17S11262   2.965   2.617   9.190  0.4543 -0.9972 -2.5600
  109OSM   H17T11263   2.917   2.779   9.147  2.6304 -0.7982 -0.4093
  109OSM   C18S11264   2.842   2.619   9.014  0.3543 -0.0496 -0.2879
  109OSM   H18S11265   2.771   2.692   8.969 -1.8825 -1.2275  1.1840
  109OSM   H18T11266   2.786   2.523   9.023 -0.8967  0.7020  0.2947
  109OSM   H18U11267   2.934   2.613   8.952 -0.2488 -1.5093 -1.0956
  109OSM    C1F11268   2.868   2.088  10.180 -0.3776  0.3231 -0.5329
  109OSM     OF11269   2.758   2.030  10.183  0.0314  0.1588 -0.0304
  109OSM    C2F11270   2.967   2.071  10.076 -0.1004  1.2346 -0.1312
  109OSM    H2F11271   3.067   2.059  10.124 -0.2363 -1.5434 -0.3850
  109OSM    H2G11272   2.960   2.156  10.005  1.6222  0.0897 -1.7695
  109OSM    C3F11273   2.951   1.931  10.000 -0.4336 -0.3352 -0.4970
  109OSM    H3F11274   2.848   1.928   9.961 -0.5957 -0.0888 -0.0962
  109OSM    H3G11275   2.962   1.850  10.075 -2.7818 -1.0236 -0.8246
  109OSM    C4F11276   3.062   1.923   9.885  0.0100 -0.0902  0.1313
  109OSM    H4F11277   3.091   1.816   9.876  1.6647  0.3533 -0.1089
  109OSM    H4G11278   3.146   1.990   9.910 -1.1278  1.8831 -1.0937
  109OSM    C5F11279   3.014   1.965   9.749 -0.3342  0.4632  0.1139
  109OSM    H5F11280   2.946   2.052   9.751  0.1309  0.8684 -0.9733
  109OSM    H5G11281   2.949   1.892   9.696 -0.1368  0.0620  0.4234
  109OSM    C6F11282   3.137   1.989   9.655  0.2919 -0.6738  0.4749
  109OSM    H6F11283   3.204   1.902   9.641 -0.5380 -1.0049 -1.8864
  109OSM    H6G11284   3.202   2.071   9.692 -0.2673 -0.2734  0.5796
  109OSM    C7F11285   3.088   2.051   9.520  0.7372  0.0278  0.1493
  109OSM    H7F11286   3.066   2.157   9.545  0.8618  0.1511 -0.2588
  109OSM    H7G11287   2.999   1.997   9.482  0.6304  1.0569 -1.1327
  109OSM    C8F11288   3.196   2.071   9.407 -0.0390 -0.8669 -0.3342
  109OSM    H8F11289   3.273   2.145   9.440  0.2146 -0.7491 -1.1721
  109OSM    H8G11290   3.163   2.128   9.318 -0.1329 -0.5892 -0.1246
  109OSM    C9F11291   3.250   1.942   9.353 -0.7163 -0.0176 -0.3477
  109OSM    H9F11292   3.197   1.855   9.393 -2.2345  1.5056  1.1402
  109OSM   C10F11293   3.362   1.913   9.275 -0.1113 -0.3477 -0.3444
  109OSM   H10F11294   3.394   1.816   9.234  1.4680  0.1438 -0.3333
  109OSM   C11F11295   3.454   2.024   9.230  0.2143 -1.1083  0.3471
  109OSM   H11F11296   3.432   2.119   9.282  3.4850 -0.6739  1.1441
  109OSM   H11G11297   3.439   2.037   9.121  0.2530  0.3448  0.5047
  109OSM   C12F11298   3.602   2.010   9.273 -0.4295  0.6286 -0.4836
  109OSM   H12F11299   3.616   2.004   9.383 -0.5459 -0.5363 -0.5178
  109OSM   H12G11300   3.652   2.105   9.244  1.4857 -0.4338 -0.8446
  109OSM   C13F11301   3.681   1.900   9.195 -0.3748 -0.0299 -0.8213
  109OSM   H13F11302   3.686   1.924   9.087  1.4945  2.4949 -0.2858
  109OSM   H13G11303   3.633   1.800   9.206 -1.6307  0.7485  1.3649
  109OSM   C14F11304   3.828   1.899   9.231 -0.3747  0.0281  0.6045
  109OSM   H14F11305   3.848   1.829   9.315 -1.4821  0.4233  1.2296
  109OSM   H14G11306   3.859   2.000   9.267  1.5801 -0.0213 -0.7898
  109OSM   C15F11307   3.927   1.862   9.121  0.2361  0.0248  0.3168
  109OSM   H15F11308   3.895   1.764   9.079 -0.5446  1.0733 -1.6500
  109OSM   H15G11309   4.020   1.838   9.177 -0.1638 -0.8262  0.6502
  109OSM   C16F11310   3.932   1.971   9.012  0.4797  0.8953 -0.3240
  109OSM   H16F11311   3.921   2.071   9.061  2.4011  0.7610  0.4688
  109OSM   H16G11312   3.840   1.957   8.952  0.8398  0.7047 -0.8361
  109OSM   C17F11313   4.036   1.949   8.899  0.0100 -0.0800 -0.4991
  109OSM   H17F11314   4.050   1.839   8.896  0.7611 -0.1124  1.9323
  109OSM   H17G11315   4.134   1.988   8.934 -0.6242  0.9161  0.2193
  109OSM   C18F11316   3.997   2.022   8.772 -0.0737 -0.1967  0.3283
  109OSM   H18F11317   3.923   1.959   8.718  0.6518  0.1756 -1.1527
  109OSM   H18G11318   4.090   2.025   8.711  1.3321  0.3918  2.3723
  109OSM   H18H11319   3.954   2.123   8.786  0.2153  0.3336 -2.2755
  110OSM      N11320   3.515   1.678  10.894  0.3641  0.0236 -0.0539
  110OSM    C1511321   3.601   1.568  10.942  0.2596 -0.2359  0.3684
  110OSM   H15A11322   3.685   1.597  11.004  1.6395 -1.1243 -1.0275
  110OSM   H15B11323   3.644   1.528  10.852 -1.5440 -0.6204 -0.3488
  110OSM   H15C11324   3.536   1.494  10.986 -0.1734  0.4899  0.9756
  110OSM    C1411325   3.439   1.730  11.010  0.5697  0.2738  0.5023
  110OSM   H14A11326   3.392   1.656  11.073  0.0687  1.0002  0.9839
  110OSM   H14B11327   3.365   1.802  10.981  1.2418  1.5921  1.9394
  110OSM   H14C11328   3.509   1.785  11.071  0.5272 -0.1578  0.9435
  110OSM    C1311329   3.602   1.789  10.839  0.0505 -0.1012  0.5376
  110OSM   H13A11330   3.687   1.764  10.777  0.5242 -1.0097  1.5121
  110OSM   H13B11331   3.652   1.843  10.919 -1.1431  0.9225  0.6123
  110OSM   H13C11332   3.550   1.856  10.772  0.1638 -1.2000 -0.6768
  110OSM    C1211333   3.425   1.613  10.784 -0.1930  0.3724 -0.4004
  110OSM   H12A11334   3.340   1.680  10.772 -0.4406  0.4714  1.5363
  110OSM   H12B11335   3.386   1.522  10.826  0.2606 -0.2302 -1.2617
  110OSM    C1111336   3.481   1.571  10.645  0.3593  0.3039  0.2942
  110OSM   H11A11337   3.524   1.657  10.589 -1.3621  1.6762  0.9634
  110OSM   H11B11338   3.400   1.545  10.574 -0.3028  0.0931  1.1136
  110OSM      P11339   3.725   1.478  10.577 -0.0625 -0.3771  0.1458
  110OSM    O1311340   3.752   1.621  10.545  0.4587 -0.4889  0.0901
  110OSM    O1411341   3.818   1.396  10.665  0.3982  0.4196 -0.3231
  110OSM    O1111342   3.700   1.405  10.443  0.6534  0.2862 -0.1657
  110OSM    O1211343   3.583   1.466  10.653  0.4883 -0.2491  0.1386
  110OSM    C1S11344   3.579   1.425  10.360 -0.7365  0.2470  0.3129
  110OSM    H1S11345   3.523   1.521  10.363 -2.7332 -0.8181 -0.7384
  110OSM    H1T11346   3.505   1.347  10.385 -1.4542  1.5401  2.4859
  110OSM     NF11347   3.488   1.412  10.133 -0.0498 -0.3334 -1.0064
  110OSM    HNF11348   3.431   1.344  10.087 -0.5205 -1.8194  1.5852
  110OSM    C2S11349   3.611   1.392  10.209 -0.0029  0.1236  0.3011
  110OSM    H2S11350   3.695   1.458  10.182 -0.8698  1.5623  1.0131
  110OSM    C3S11351   3.678   1.240  10.204 -0.1664 -0.1741 -0.5275
  110OSM    H3S11352   3.621   1.170  10.269  0.0964 -3.2889 -3.3886
  110OSM     O311353   3.807   1.239  10.268 -0.1507  0.1349 -0.2275
  110OSM    HO311354   3.792   1.312  10.328  0.4134  0.2163 -0.1772
  110OSM    C4S11355   3.676   1.187  10.062  0.1840 -0.4032 -0.1767
  110OSM    H4S11356   3.739   1.240   9.989  2.2427  0.9512  2.3923
  110OSM    C5S11357   3.604   1.077  10.026 -0.0412 -0.4381  0.5170
  110OSM    H5S11358   3.552   1.024  10.108 -1.7909  0.2850 -0.0627
  110OSM    C6S11359   3.609   1.039   9.879  0.6549 -0.4290 -0.2925
  110OSM    H6S11360   3.582   0.934   9.855 -2.1633 -0.4385  2.3107
  110OSM    H6T11361   3.705   1.074   9.834 -0.2786  0.7513 -1.4427
  110OSM    C7S11362   3.510   1.127   9.797 -0.0834 -0.5718 -0.0870
  110OSM    H7S11363   3.517   1.229   9.839  1.5224 -0.5642 -0.3053
  110OSM    H7T11364   3.404   1.095   9.802 -0.7694  1.1201 -2.3615
  110OSM    C8S11365   3.544   1.125   9.644 -0.1331  0.3041 -0.2577
  110OSM    H8S11366   3.654   1.141   9.639  0.1403  0.1263  3.2129
  110OSM    H8T11367   3.492   1.208   9.592 -0.0023 -0.0456 -0.9727
  110OSM    C9S11368   3.494   0.999   9.570 -0.3211  0.2325  0.3922
  110OSM    H9S11369   3.534   0.904   9.610  1.2764  0.0934 -1.4004
  110OSM    H9T11370   3.549   1.010   9.474 -0.0174  2.0788  0.7348
  110OSM   C10S11371   3.343   0.991   9.538  0.0363 -0.2855 -0.6078
  110OSM   H10S11372   3.285   1.083   9.561  1.0676  0.5339 -1.2021
  110OSM   H10T11373   3.299   0.911   9.602 -0.3726  0.6513  0.3091
  110OSM   C11S11374   3.319   0.970   9.386  0.2529 -0.2651  0.5997
  110OSM   H11S11375   3.366   0.874   9.358  0.9836  0.8735 -2.5213
  110OSM   H11T11376   3.395   1.030   9.332  0.5933 -2.1322 -1.0970
  110OSM   C12S11377   3.180   0.994   9.333 -0.5278 -0.9954 -0.4348
  110OSM   H12S11378   3.137   1.096   9.334  0.7071 -0.3744  3.1723
  110OSM   H12T11379   3.113   0.951   9.410 -0.7916 -2.1043 -1.2507
  110OSM   C13S11380   3.161   0.942   9.190 -0.1324  0.7006 -0.5513
  110OSM   H13S11381   3.052   0.924   9.176 -0.6369  2.1691  1.2368
  110OSM   H13T11382   3.198   0.837   9.181 -1.5401  0.1940 -0.6681
  110OSM   C14S11383   3.203   1.030   9.071  0.4749 -0.7462 -0.4895
  110OSM   H14S11384   3.177   0.977   8.977 -0.1414 -0.8699 -0.2521
  110OSM   H14T11385   3.313   1.036   9.083  0.4792  0.6346 -1.1392
  110OSM   C15S11386   3.165   1.180   9.083 -0.2281 -0.4884 -0.1012
  110OSM   H15S11387   3.195   1.218   9.182 -0.0785 -0.7125 -0.0598
  110OSM   H15T11388   3.055   1.168   9.085 -0.2871 -0.0689 -0.5478
  110OSM   C16S11389   3.207   1.266   8.965  0.6062  0.6579 -0.9756
  110OSM   H16S11390   3.317   1.279   8.953  0.9044  2.4520  2.3373
  110OSM   H16T11391   3.171   1.368   8.989  1.8071  0.7991  0.3369
  110OSM   C17S11392   3.131   1.225   8.837  0.4311 -0.0768 -0.4641
  110OSM   H17S11393   3.022   1.221   8.855  0.5859  0.6985  0.7273
  110OSM   H17T11394   3.152   1.117   8.817 -0.5788 -0.3910  0.1100
  110OSM   C18S11395   3.158   1.304   8.715 -0.6336  0.3997  0.6959
  110OSM   H18S11396   3.090   1.276   8.632  1.9077 -1.9478 -0.7578
  110OSM   H18T11397   3.250   1.278   8.658 -1.2414  1.1419 -0.6705
  110OSM   H18U11398   3.156   1.414   8.731  0.2316  0.9698 -2.4305
  110OSM    C1F11399   3.436   1.540  10.116  0.3879  0.3750  0.7551
  110OSM     OF11400   3.502   1.631  10.159 -0.1002  0.0860 -0.3127
  110OSM    C2F11401   3.302   1.554  10.030 -1.2420  0.6132  0.1237
  110OSM    H2F11402   3.246   1.644  10.061  0.6530  1.4372  1.3636
  110OSM    H2G11403   3.249   1.460  10.054  0.5834 -0.3702  0.5241
  110OSM    C3F11404   3.333   1.546   9.874  0.3916  0.0066  1.0484
  110OSM    H3F11405   3.385   1.449   9.862  2.0339  0.8471  1.0710
  110OSM    H3G11406   3.402   1.628   9.845  1.2557 -1.6364 -2.0321
  110OSM    C4F11407   3.207   1.549   9.788  0.4148 -0.3849  0.5532
  110OSM    H4F11408   3.163   1.644   9.824  0.7274  0.4203 -1.0699
  110OSM    H4G11409   3.142   1.460   9.802 -0.7880  0.7032  2.1500
  110OSM    C5F11410   3.245   1.580   9.640  0.0871  0.2426  0.9308
  110OSM    H5F11411   3.314   1.664   9.619 -1.2438  0.7372 -1.9596
  110OSM    H5G11412   3.153   1.615   9.589  0.8702 -0.0293 -0.7290
  110OSM    C6F11413   3.309   1.461   9.561 -0.0668 -0.1174 -0.9710
  110OSM    H6F11414   3.230   1.383   9.549 -0.7430  0.6743 -1.7745
  110OSM    H6G11415   3.401   1.433   9.615 -0.4015 -0.6818 -0.6798
  110OSM    C7F11416   3.331   1.506   9.416  0.4998  0.5817  0.2965
  110OSM    H7F11417   3.384   1.604   9.421 -3.0235  2.8199 -1.9309
  110OSM    H7G11418   3.234   1.533   9.369  0.3653  0.1718  0.3347
  110OSM    C8F11419   3.393   1.393   9.323  0.3123 -0.0563 -0.1014
  110OSM    H8F11420   3.361   1.418   9.220 -1.0513 -1.0862  0.0440
  110OSM    H8G11421   3.353   1.293   9.350 -1.0633  0.2721 -0.8518
  110OSM    C9F11422   3.543   1.385   9.339  0.3307  0.2664 -0.0318
  110OSM    H9F11423   3.568   1.327   9.429 -1.2347 -0.4141 -0.0072
  110OSM   C10F11424   3.635   1.445   9.267 -0.1609 -0.4624  0.8193
  110OSM   H10F11425   3.742   1.426   9.278  0.1769  0.5574 -0.3912
  110OSM   C11F11426   3.595   1.531   9.147 -0.0984 -0.4227 -0.2135
  110OSM   H11F11427   3.660   1.619   9.128 -1.2431  0.0094 -2.4010
  110OSM   H11G11428   3.487   1.557   9.152  0.6946  3.3854 -0.0662
  110OSM   C12F11429   3.628   1.444   9.021  0.5158  0.6034 -0.4458
  110OSM   H12F11430   3.562   1.355   9.032 -0.0783  1.1195  0.2660
  110OSM   H12G11431   3.732   1.405   9.021 -0.1223 -1.2101 -1.3516
  110OSM   C13F11432   3.603   1.515   8.887 -1.1157 -0.6677  0.4598
  110OSM   H13F11433   3.502   1.563   8.888  0.0908  2.1754 -1.0586
  110OSM   H13G11434   3.599   1.435   8.810 -3.0547  0.6869 -0.9607
  110OSM   C14F11435   3.713   1.619   8.845  0.2811 -0.6366 -0.4306
  110OSM   H14F11436   3.742   1.680   8.933  2.6155  0.2521 -1.7208
  110OSM   H14G11437   3.673   1.683   8.764  0.3633 -1.7570 -1.3749
  110OSM   C15F11438   3.848   1.563   8.800 -0.3560 -0.2017 -0.9107
  110OSM   H15F11439   3.836   1.473   8.735 -2.6841 -1.7120  1.4368
  110OSM   H15G11440   3.899   1.528   8.892  2.4007 -1.6870 -2.8359
  110OSM   C16F11441   3.918   1.663   8.707 -0.3862  0.2782  0.6701
  110OSM   H16F11442   3.926   1.764   8.752  0.7851  0.2609  0.5285
  110OSM   H16G11443   3.854   1.684   8.619 -0.4910  1.1833  0.9587
  110OSM   C17F11444   4.058   1.618   8.653 -0.7566  0.7315  0.5410
  110OSM   H17F11445   4.042   1.524   8.596 -0.4083  1.5730 -1.0077
  110OSM   H17G11446   4.126   1.601   8.739  0.1003 -0.5273 -0.3361
  110OSM   C18F11447   4.123   1.722   8.561  0.3582  0.0574 -0.1090
  110OSM   H18F11448   4.170   1.797   8.628  0.8228 -1.0963  0.8982
  110OSM   H18G11449   4.052   1.766   8.489  0.6992 -0.8798 -1.0568
  110OSM   H18H11450   4.200   1.674   8.496 -0.1198 -0.3892 -0.3457
  111OSM      N11451   4.280   4.173  10.777  0.1702 -0.0053  0.3153
  111OSM    C1511452   4.397   4.140  10.858 -0.1842 -0.3258 -0.4389
  111OSM   H15A11453   4.400   4.210  10.940  1.7601 -0.3174 -0.4768
  111OSM   H15B11454   4.490   4.141  10.804  1.1127 -0.8175  1.6638
  111OSM   H15C11455   4.380   4.044  10.906 -0.4447 -0.7386 -1.3338
  111OSM    C1411456   4.167   4.194  10.857  0.2137 -0.2885  0.0728
  111OSM   H14A11457   4.182   4.252  10.947 -0.2358 -1.7031  1.1004
  111OSM   H14B11458   4.123   4.107  10.904 -3.2195  1.2621  0.0621
  111OSM   H14C11459   4.085   4.240  10.803  0.2873 -2.0803 -1.6638
  111OSM    C1311460   4.306   4.297  10.713  0.1791  0.1428  1.2348
  111OSM   H13A11461   4.314   4.378  10.784 -1.5424  1.3259  0.1713
  111OSM   H13B11462   4.217   4.319  10.655 -1.1721 -2.1867  2.2542
  111OSM   H13C11463   4.385   4.297  10.640 -1.5539  1.8091 -0.7753
  111OSM    C1211464   4.251   4.060  10.676  0.2175  0.3711  0.1979
  111OSM   H12A11465   4.247   3.976  10.744 -0.4357  1.2192  1.2493
  111OSM   H12B11466   4.336   4.038  10.613  2.0215  0.2967  2.5093
  111OSM    C1111467   4.115   4.075  10.600  0.2271  0.3805  0.0739
  111OSM   H11A11468   4.116   3.999  10.518 -0.7633  1.4611 -0.9742
  111OSM   H11B11469   4.097   4.174  10.554 -2.3378  0.9647  2.1489
  111OSM      P11470   3.855   4.077  10.633 -0.1428  0.0931  0.1693
  111OSM    O1311471   3.830   3.993  10.511  0.3458  0.3816 -0.2518
  111OSM    O1411472   3.773   4.058  10.749  0.2343 -0.3727 -0.2231
  111OSM    O1111473   3.850   4.233  10.598  0.0722  0.6191 -0.1535
  111OSM    O1211474   4.004   4.044  10.682  0.1202  0.5112 -0.0774
  111OSM    C1S11475   3.869   4.271  10.461 -0.5032 -0.3160  0.6892
  111OSM    H1S11476   3.797   4.219  10.394 -0.0750  2.1452 -1.8360
  111OSM    H1T11477   3.972   4.243  10.430  0.0855  2.3360  0.0350
  111OSM     NF11478   3.877   4.461  10.305  0.1144 -0.4667  0.1013
  111OSM    HNF11479   3.967   4.488  10.272 -0.3404  0.4067 -0.4951
  111OSM    C2S11480   3.863   4.428  10.445  0.8931 -0.0909 -0.9517
  111OSM    H2S11481   3.764   4.467  10.476  0.7175 -0.1676 -1.4189
  111OSM    C3S11482   3.977   4.492  10.519 -0.4521  0.6282 -0.5425
  111OSM    H3S11483   4.071   4.443  10.486 -0.0728  1.7069 -1.1191
  111OSM     O311484   3.960   4.464  10.657  0.0295 -0.4492 -0.7718
  111OSM    HO311485   3.903   4.386  10.658 -1.9208  0.9163 -0.1540
  111OSM    C4S11486   3.979   4.642  10.501  0.6265 -0.1927  0.2717
  111OSM    H4S11487   3.899   4.692  10.559 -3.0655 -1.0731 -3.5454
  111OSM    C5S11488   4.063   4.705  10.415 -0.5876 -0.2103  0.4933
  111OSM    H5S11489   4.133   4.650  10.350  0.1256 -0.8784  1.7735
  111OSM    C6S11490   4.055   4.852  10.393 -0.5461 -0.0846 -0.2520
  111OSM    H6S11491   4.111   4.896  10.478 -1.3698 -1.9471  1.3315
  111OSM    H6T11492   3.953   4.893  10.405 -0.4895  0.7901 -2.2495
  111OSM    C7S11493   4.116   4.898  10.258 -0.0786  0.3220 -0.2304
  111OSM    H7S11494   4.212   4.842  10.250  0.1155  0.7429 -0.8902
  111OSM    H7T11495   4.134   5.008  10.261  0.9295  0.2142 -1.3729
  111OSM    C8S11496   4.031   4.866  10.134  0.5890  0.5478 -0.2044
  111OSM    H8S11497   3.935   4.917  10.159 -0.6915 -1.0228 -1.6711
  111OSM    H8T11498   4.014   4.757  10.137  4.1131 -0.0917  1.5517
  111OSM    C9S11499   4.091   4.907  10.001  0.3696 -0.3059 -0.3661
  111OSM    H9S11500   4.188   4.853   9.986 -0.1123 -1.9230  1.8756
  111OSM    H9T11501   4.093   5.018   9.998  1.8871 -0.3260 -1.0998
  111OSM   C10S11502   4.013   4.875   9.874 -0.3101 -0.8310  0.3266
  111OSM   H10S11503   3.920   4.936   9.864 -0.4643 -1.1137 -0.0065
  111OSM   H10T11504   3.980   4.769   9.867  0.7195 -1.1636  0.3790
  111OSM   C11S11505   4.089   4.907   9.749 -0.2182 -0.8218  0.3171
  111OSM   H11S11506   4.197   4.884   9.760  0.1994  1.0485  0.3861
  111OSM   H11T11507   4.082   5.015   9.726  1.2607 -0.6274  0.6495
  111OSM   C12S11508   4.037   4.832   9.615  0.2659 -0.4159  0.3239
  111OSM   H12S11509   4.076   4.891   9.530 -0.9395  1.1355  0.8131
  111OSM   H12T11510   3.927   4.843   9.629  0.4783 -0.2451  2.1226
  111OSM   C13S11511   4.086   4.685   9.594  0.1572 -0.1121 -0.4196
  111OSM   H13S11512   4.051   4.616   9.674 -1.1160  0.0885 -0.7835
  111OSM   H13T11513   4.197   4.676   9.594  0.0999 -1.0921 -1.2085
  111OSM   C14S11514   4.038   4.628   9.464 -0.0206  0.1420 -0.5124
  111OSM   H14S11515   4.068   4.704   9.388 -1.2853  2.5961  1.2963
  111OSM   H14T11516   3.927   4.628   9.473 -0.0158 -1.4088 -0.2608
  111OSM   C15S11517   4.108   4.497   9.426  0.0500  0.2864 -1.1396
  111OSM   H15S11518   4.072   4.429   9.506  3.5493  1.3635  1.6003
  111OSM   H15T11519   4.219   4.501   9.428  0.1464 -1.4024  1.3820
  111OSM   C16S11520   4.059   4.448   9.290  0.1885 -0.5304 -0.2638
  111OSM   H16S11521   4.059   4.533   9.218  0.5551 -1.7790 -1.7768
  111OSM   H16T11522   3.950   4.430   9.301  0.3703 -1.0555  0.8485
  111OSM   C17S11523   4.133   4.330   9.226 -0.5735 -0.1291  0.0428
  111OSM   H17S11524   4.150   4.235   9.280  1.7319 -2.1249 -3.7863
  111OSM   H17T11525   4.233   4.363   9.190 -1.0256 -1.0702 -2.2597
  111OSM   C18S11526   4.060   4.287   9.098  0.1491  0.0168 -0.2006
  111OSM   H18S11527   4.113   4.201   9.052 -0.9617 -1.1176  0.5754
  111OSM   H18T11528   4.079   4.372   9.029  1.5903  0.5588  0.8176
  111OSM   H18U11529   3.956   4.260   9.128  0.8828 -1.5343  1.0582
  111OSM    C1F11530   3.790   4.465  10.205  0.8406 -0.8705  0.3243
  111OSM     OF11531   3.674   4.431  10.236  0.0439  0.4014  0.2983
  111OSM    C2F11532   3.825   4.505  10.070 -0.9276  0.0501 -0.2404
  111OSM    H2F11533   3.900   4.430  10.036 -0.9667 -0.1044  0.0135
  111OSM    H2G11534   3.882   4.600  10.062 -0.0410 -0.5152 -0.7797
  111OSM    C3F11535   3.706   4.499   9.972 -0.0021  0.7492  0.3602
  111OSM    H3F11536   3.630   4.576   9.996 -1.6494 -0.8518  0.4914
  111OSM    H3G11537   3.654   4.400   9.973 -0.5493  1.0334  0.2687
  111OSM    C4F11538   3.752   4.502   9.823 -0.4415  0.8279  0.3832
  111OSM    H4F11539   3.851   4.549   9.802 -0.1964 -0.5418 -1.9673
  111OSM    H4G11540   3.676   4.559   9.765  0.2688  1.3768 -0.0227
  111OSM    C5F11541   3.749   4.358   9.758 -0.0824 -0.7933 -0.3821
  111OSM    H5F11542   3.644   4.323   9.753 -0.7288  1.2477 -3.4044
  111OSM    H5G11543   3.816   4.284   9.807  0.1948 -1.9231 -2.3590
  111OSM    C6F11544   3.802   4.361   9.620 -0.0625 -0.6675 -0.0589
  111OSM    H6F11545   3.846   4.262   9.593  0.5480 -0.3585 -0.2057
  111OSM    H6G11546   3.879   4.440   9.608 -0.6883  0.1053  0.8990
  111OSM    C7F11547   3.708   4.408   9.510 -0.1607  0.1587 -0.0587
  111OSM    H7F11548   3.775   4.390   9.423 -1.7881  0.5283 -1.4396
  111OSM    H7G11549   3.694   4.515   9.534  0.5074  0.4318 -0.8502
  111OSM    C8F11550   3.578   4.328   9.492  0.2481 -0.2756  0.0960
  111OSM    H8F11551   3.537   4.314   9.594  0.7011  2.2641  0.6983
  111OSM    H8G11552   3.602   4.225   9.459 -5.2043 -0.9458 -2.9832
  111OSM    C9F11553   3.485   4.389   9.390 -0.0989 -0.2762 -0.3596
  111OSM    H9F11554   3.395   4.421   9.446  0.3926 -0.6144  0.6596
  111OSM   C10F11555   3.487   4.411   9.255 -0.5441  0.4212 -0.0447
  111OSM   H10F11556   3.391   4.433   9.206  0.2100  3.3673 -0.3969
  111OSM   C11F11557   3.598   4.379   9.156  0.2734  0.4522 -0.2441
  111OSM   H11F11558   3.694   4.384   9.211  0.4132  1.3499 -0.5638
  111OSM   H11G11559   3.587   4.449   9.071  1.1160 -2.7808 -3.2384
  111OSM   C12F11560   3.583   4.241   9.088 -0.0143  0.0445  0.0267
  111OSM   H12F11561   3.573   4.168   9.172 -0.6825  1.2142  0.9915
  111OSM   H12G11562   3.675   4.227   9.027  1.3104 -0.0978  1.9626
  111OSM   C13F11563   3.471   4.243   8.989 -0.6452  0.6439 -0.3991
  111OSM   H13F11564   3.493   4.320   8.912 -0.7686 -0.2274 -1.3220
  111OSM   H13G11565   3.371   4.272   9.028 -1.3866  1.4016 -2.7247
  111OSM   C14F11566   3.453   4.105   8.922 -0.5332  0.1664  0.6261
  111OSM   H14F11567   3.393   4.040   8.989 -2.5266 -1.9334 -2.8674
  111OSM   H14G11568   3.547   4.054   8.892 -0.4334  1.0462 -0.6788
  111OSM   C15F11569   3.375   4.112   8.792 -0.0871 -0.5895  0.3219
  111OSM   H15F11570   3.417   4.179   8.714 -1.2076 -1.6316 -1.2406
  111OSM   H15G11571   3.268   4.137   8.809 -0.1574 -1.5715  1.4332
  111OSM   C16F11572   3.372   3.982   8.726  0.7039 -0.2424  0.8191
  111OSM   H16F11573   3.341   3.906   8.800  1.1590 -0.0463  1.2139
  111OSM   H16G11574   3.476   3.956   8.695  0.8973  0.5544  0.7617
  111OSM   C17F11575   3.271   3.992   8.607  0.0231  0.5812 -0.4245
  111OSM   H17F11576   3.279   4.079   8.539 -0.7152  0.2888 -0.8982
  111OSM   H17G11577   3.169   3.992   8.651  0.6334 -0.9128  1.1328
  111OSM   C18F11578   3.283   3.866   8.518  0.3665 -0.0192  0.7859
  111OSM   H18F11579   3.208   3.869   8.436  1.5848  0.9631 -0.3371
  111OSM   H18G11580   3.261   3.772   8.574 -1.0897  0.7526  1.5678
  111OSM   H18H11581   3.386   3.864   8.476  0.3845 -1.8710  0.8148
  112OSM      N11582   3.664   2.932  10.726  0.0648 -0.3078 -0.0262
  112OSM    C1511583   3.714   3.025  10.832 -0.2986 -0.2127  0.3028
  112OSM   H15A11584   3.801   2.978  10.877  0.5231 -0.2498 -1.2437
  112OSM   H15B11585   3.643   3.037  10.913 -0.5448 -0.1734  0.0823
  112OSM   H15C11586   3.729   3.123  10.790  0.5846 -0.4162  0.1161
  112OSM    C1411587   3.528   2.967  10.678 -0.6021 -0.0743 -0.3119
  112OSM   H14A11588   3.536   3.068  10.641 -1.0812 -0.2870 -1.0139
  112OSM   H14B11589   3.453   2.962  10.755  0.8934  2.6059  1.4911
  112OSM   H14C11590   3.490   2.903  10.600  0.4989 -2.3642  0.9013
  112OSM    C1311591   3.758   2.944  10.612 -0.8691  0.5010 -0.0127
  112OSM   H13A11592   3.722   3.014  10.538 -1.3875  0.8965  0.5986
  112OSM   H13B11593   3.783   2.843  10.584  0.0903  0.2837  1.5450
  112OSM   H13C11594   3.852   2.983  10.648 -0.3203  0.5794 -1.4528
  112OSM    C1211595   3.674   2.789  10.776  0.6280  0.0783 -0.3122
  112OSM   H12A11596   3.610   2.723  10.719  0.0343  2.4933 -2.6377
  112OSM   H12B11597   3.625   2.784  10.872  1.3145 -1.7045 -0.0223
  112OSM    C1111598   3.816   2.725  10.792  0.5728 -0.8145 -0.2650
  112OSM   H11A11599   3.854   2.704  10.690 -0.2471 -0.9195 -0.5548
  112OSM   H11B11600   3.809   2.625  10.841  0.1581 -1.0695 -0.8402
  112OSM      P11601   4.046   2.845  10.822  0.2294 -0.4292 -0.0878
  112OSM    O1311602   4.038   2.973  10.754 -0.3718  0.0923 -0.0006
  112OSM    O1411603   4.149   2.826  10.924  0.0024 -0.0918 -0.3461
  112OSM    O1111604   4.078   2.733  10.712  0.6932 -0.8591 -0.0518
  112OSM    O1211605   3.905   2.796  10.873 -0.1206  0.7656 -0.4153
  112OSM    C1S11606   4.135   2.609  10.742 -0.0190 -0.0102  0.3216
  112OSM    H1S11607   4.121   2.575  10.847  2.0026 -2.0710 -0.0090
  112OSM    H1T11608   4.245   2.602  10.728 -0.0759 -2.4890  0.5634
  112OSM     NF11609   4.112   2.366  10.698 -0.1945 -0.3652 -0.0830
  112OSM    HNF11610   4.193   2.326  10.656 -0.5178 -1.4709  0.3302
  112OSM    C2S11611   4.075   2.499  10.646  0.2424 -0.2618 -0.2493
  112OSM    H2S11612   3.964   2.502  10.647  0.1032 -3.1765 -0.0032
  112OSM    C3S11613   4.109   2.521  10.491 -0.0926 -0.5992 -0.0502
  112OSM    H3S11614   4.217   2.539  10.470 -0.4544  1.2503 -0.5290
  112OSM     O311615   4.040   2.643  10.460  0.3051  0.4650  0.1081
  112OSM    HO311616   4.050   2.691  10.542 -0.2913 -3.0351  2.4746
  112OSM    C4S11617   4.060   2.408  10.402  0.6135  0.4307  0.1059
  112OSM    H4S11618   3.959   2.369  10.423  0.6670 -0.1357 -0.6784
  112OSM    C5S11619   4.131   2.338  10.312  0.2041  0.3748  0.1042
  112OSM    H5S11620   4.232   2.373  10.286  0.2983 -0.8695 -1.3667
  112OSM    C6S11621   4.074   2.220  10.238 -0.1672 -0.0460 -0.0615
  112OSM    H6S11622   3.980   2.187  10.288  0.5199 -0.8605  0.7259
  112OSM    H6T11623   4.144   2.135  10.247  0.4643  0.3768 -0.9015
  112OSM    C7S11624   4.023   2.264  10.101 -0.4981  0.7048  0.1330
  112OSM    H7S11625   4.100   2.308  10.035  0.9466 -1.4534  0.2791
  112OSM    H7T11626   3.943   2.341  10.113 -1.8526 -0.5186 -0.6835
  112OSM    C8S11627   3.943   2.161  10.021  0.3923  0.3649  0.1551
  112OSM    H8S11628   3.865   2.119  10.088  1.2823 -2.1369 -0.2887
  112OSM    H8T11629   4.003   2.072   9.996 -1.1008 -0.5889 -0.1864
  112OSM    C9S11630   3.890   2.225   9.891 -0.1465  0.1885 -0.7652
  112OSM    H9S11631   3.832   2.317   9.910 -2.1146 -1.0096 -0.6347
  112OSM    H9T11632   3.825   2.148   9.843 -2.8191  2.2330 -0.6579
  112OSM   C10S11633   3.997   2.266   9.785 -0.0779  0.2770  0.3424
  112OSM   H10S11634   4.080   2.192   9.776  1.6577  1.9283  1.8295
  112OSM   H10T11635   4.049   2.358   9.820 -1.2685  1.9000 -1.8986
  112OSM   C11S11636   3.944   2.287   9.647 -0.7280 -0.1038  0.0124
  112OSM   H11S11637   3.987   2.382   9.611  1.2789 -0.5899  0.9633
  112OSM   H11T11638   3.833   2.287   9.633 -0.3513  0.5834 -4.0406
  112OSM   C12S11639   3.987   2.180   9.539 -0.2118  0.4219  0.9303
  112OSM   H12S11640   3.935   2.186   9.441 -0.7996 -0.3192  1.1842
  112OSM   H12T11641   3.978   2.075   9.575  0.5870  0.3591  0.9662
  112OSM   C13S11642   4.130   2.206   9.501  0.3655 -0.7267 -0.5401
  112OSM   H13S11643   4.189   2.214   9.594 -2.6382 -1.4672  1.5584
  112OSM   H13T11644   4.140   2.302   9.445  2.1697  0.0601  1.0141
  112OSM   C14S11645   4.197   2.102   9.409  0.3173 -0.2714 -0.4562
  112OSM   H14S11646   4.155   2.120   9.307 -0.3887  1.2508  0.0681
  112OSM   H14T11647   4.170   1.999   9.441 -0.4142 -1.0129 -3.1871
  112OSM   C15S11648   4.348   2.113   9.417 -0.6828 -0.2243  0.5762
  112OSM   H15S11649   4.382   2.087   9.519  2.2847  1.9534  0.2760
  112OSM   H15T11650   4.382   2.219   9.406 -1.4665 -0.0648 -0.5407
  112OSM   C16S11651   4.411   2.031   9.305  0.3409 -0.2510  0.3787
  112OSM   H16S11652   4.355   1.936   9.292  0.9147 -0.5582  0.1307
  112OSM   H16T11653   4.520   2.008   9.312  0.1701 -1.4383 -0.7175
  112OSM   C17S11654   4.394   2.103   9.169 -0.0285  0.5716 -0.2259
  112OSM   H17S11655   4.451   2.199   9.168  0.2782  0.3986 -2.1039
  112OSM   H17T11656   4.287   2.131   9.156 -0.0150  0.2469 -1.1081
  112OSM   C18S11657   4.443   2.015   9.057  0.2663 -0.0910 -0.2253
  112OSM   H18S11658   4.423   2.057   8.956 -0.0955  1.7033  0.5647
  112OSM   H18T11659   4.393   1.917   9.073 -0.4289  0.2591 -0.2185
  112OSM   H18U11660   4.554   2.006   9.067  0.0941  0.2290  3.0757
  112OSM    C1F11661   4.085   2.328  10.815  1.1930 -0.3802  0.1181
  112OSM     OF11662   3.998   2.388  10.878 -0.3157  0.5137 -0.6355
  112OSM    C2F11663   4.165   2.222  10.871 -0.5189  0.7218 -0.2269
  112OSM    H2F11664   4.272   2.245  10.851 -0.7805  0.4515 -2.0280
  112OSM    H2G11665   4.148   2.126  10.819 -1.1526  0.3515  0.6313
  112OSM    C3F11666   4.132   2.182  11.017 -0.0116 -0.9298 -0.0638
  112OSM    H3F11667   4.026   2.151  11.025 -0.4005 -0.6468 -3.0496
  112OSM    H3G11668   4.154   2.272  11.078  0.4644 -0.3456 -1.0673
  112OSM    C4F11669   4.215   2.066  11.070 -0.5164  0.0404  0.1845
  112OSM    H4F11670   4.188   1.974  11.015  0.7562 -0.9582  1.1888
  112OSM    H4G11671   4.182   2.051  11.175  0.5616  0.7165  0.6468
  112OSM    C5F11672   4.367   2.094  11.066  0.1783 -0.3700 -0.8043
  112OSM    H5F11673   4.384   2.203  11.070 -0.4896 -0.2836 -0.0757
  112OSM    H5G11674   4.397   2.048  10.969 -1.2125 -0.9382 -0.9981
  112OSM    C6F11675   4.436   2.039  11.188 -0.0268  0.5424 -0.0792
  112OSM    H6F11676   4.399   2.096  11.276  1.1982 -1.1932  1.6407
  112OSM    H6G11677   4.543   2.057  11.167  0.6404 -3.4295 -0.8171
  112OSM    C7F11678   4.414   1.888  11.205  0.7092 -0.2687  0.1828
  112OSM    H7F11679   4.440   1.840  11.108  2.0476  1.3032 -0.2864
  112OSM    H7G11680   4.309   1.858  11.227  0.5540 -0.3819 -0.6996
  112OSM    C8F11681   4.497   1.825  11.312  0.4380  0.7024 -0.2287
  112OSM    H8F11682   4.603   1.828  11.279 -0.2882  0.7252 -2.7149
  112OSM    H8G11683   4.471   1.717  11.315  1.1704  0.5132 -0.5216
  112OSM    C9F11684   4.479   1.908  11.437 -0.1537  0.9042 -0.4908
  112OSM    H9F11685   4.556   1.979  11.470  2.0334 -1.0384 -1.1742
  112OSM   C10F11686   4.361   1.907  11.502 -0.4262  0.0449 -0.6697
  112OSM   H10F11687   4.352   1.974  11.589 -0.8756 -0.5403 -0.2616
  112OSM   C11F11688   4.236   1.826  11.490  0.7317 -0.3828  0.5008
  112OSM   H11F11689   4.233   1.748  11.569 -0.3875 -0.4617  0.3987
  112OSM   H11G11690   4.227   1.766  11.396  0.0279 -3.0855  2.1847
  112OSM   C12F11691   4.109   1.922  11.493 -0.4354 -0.3916 -0.6291
  112OSM   H12F11692   4.105   2.004  11.418  1.5689  0.2308 -0.1158
  112OSM   H12G11693   4.121   1.981  11.586 -2.0212 -1.4293  0.2814
  112OSM   C13F11694   3.973   1.849  11.515 -0.0380 -0.2814  0.1830
  112OSM   H13F11695   3.900   1.916  11.564  0.5444  1.8204 -1.6167
  112OSM   H13G11696   3.994   1.768  11.587  2.0290 -0.1657 -0.2216
  112OSM   C14F11697   3.910   1.787  11.390 -0.6122  1.2940 -0.3911
  112OSM   H14F11698   3.991   1.735  11.334  0.3545  2.8451 -0.4932
  112OSM   H14G11699   3.873   1.866  11.322 -0.0011  1.1768 -0.8640
  112OSM   C15F11700   3.815   1.678  11.439 -0.3460  0.7417 -0.4915
  112OSM   H15F11701   3.746   1.706  11.521 -0.4150  2.1044 -0.9815
  112OSM   H15G11702   3.885   1.609  11.491  0.1141  1.4588 -0.1473
  112OSM   C16F11703   3.742   1.605  11.323  0.8772  0.7745  0.1089
  112OSM   H16F11704   3.822   1.549  11.269  0.2435  1.7754 -1.9502
  112OSM   H16G11705   3.708   1.671  11.241 -1.6167 -0.1025  0.3643
  112OSM   C17F11706   3.637   1.510  11.379 -0.5449 -0.4661  0.4482
  112OSM   H17F11707   3.579   1.561  11.459 -0.2923 -0.8104  0.8502
  112OSM   H17G11708   3.689   1.425  11.428  0.2915 -0.5853 -0.6110
  112OSM   C18F11709   3.527   1.456  11.286  0.7809 -0.4596 -0.4919
  112OSM   H18F11710   3.452   1.532  11.256  1.6957  0.2223 -1.1036
  112OSM   H18G11711   3.473   1.375  11.340  0.5228  0.3397  0.4979
  112OSM   H18H11712   3.575   1.414  11.195  1.4987  0.2429 -0.4424
  113OSM      N11713   1.372   4.799  10.862  0.1421  0.3951  0.3337
  113OSM    C1511714   1.282   4.839  10.980  0.4588  0.3142 -0.1414
  113OSM   H15A11715   1.186   4.867  10.939  0.8868 -1.2161 -2.4056
  113OSM   H15B11716   1.333   4.916  11.035 -1.1479  1.8557 -0.7354
  113OSM   H15C11717   1.259   4.757  11.046  0.5818  1.0269  0.8075
  113OSM    C1411718   1.465   4.695  10.913 -0.7285 -0.4081  0.4097
  113OSM   H14A11719   1.410   4.612  10.954 -0.4385 -1.0769 -0.5272
  113OSM   H14B11720   1.543   4.728  10.980  2.0265 -1.4313 -2.1020
  113OSM   H14C11721   1.508   4.651  10.824 -2.6384 -1.8754  0.1394
  113OSM    C1311722   1.284   4.729  10.760  0.1745  0.2851  0.3732
  113OSM   H13A11723   1.246   4.631  10.785 -2.2796  0.8932 -0.6460
  113OSM   H13B11724   1.333   4.709  10.666  1.7775  0.5993  1.1077
  113OSM   H13C11725   1.199   4.789  10.730 -1.1240 -2.4270 -1.8952
  113OSM    C1211726   1.437   4.924  10.805 -0.5234 -0.4602  0.3966
  113OSM   H12A11727   1.516   4.886  10.742 -1.6180 -0.8981 -0.7543
  113OSM   H12B11728   1.493   4.967  10.887 -0.2169  0.7488 -0.4143
  113OSM    C1111729   1.358   5.029  10.726 -0.2667 -0.2266  0.5897
  113OSM   H11A11730   1.324   4.975  10.635 -0.0341  0.6459 -0.0279
  113OSM   H11B11731   1.424   5.103  10.676  1.3690  0.3378  3.3471
  113OSM      P11732   1.233   5.221  10.857 -0.3012 -0.1826 -0.2173
  113OSM    O1311733   1.143   5.203  10.968 -0.4096 -0.4458 -0.2980
  113OSM    O1411734   1.376   5.267  10.886  0.1418  0.2840 -0.3411
  113OSM    O1111735   1.164   5.319  10.749 -0.2660 -0.4229  0.4884
  113OSM    O1211736   1.242   5.076  10.797 -0.0014  0.0182 -0.5446
  113OSM    C1S11737   1.241   5.358  10.636 -0.0595 -0.2470 -0.1979
  113OSM    H1S11738   1.251   5.276  10.561  0.6390 -0.7718  0.4591
  113OSM    H1T11739   1.338   5.404  10.665 -0.8117 -0.1270  2.2990
  113OSM     NF11740   1.238   5.488  10.433 -0.3433  0.0576  0.2467
  113OSM    HNF11741   1.333   5.517  10.443  0.3369 -2.1637  0.7259
  113OSM    C2S11742   1.168   5.467  10.557 -0.4402  0.2550 -0.5146
  113OSM    H2S11743   1.066   5.427  10.539 -1.5478  2.5661  0.1804
  113OSM    C3S11744   1.146   5.589  10.654  0.5704  0.1192 -0.7521
  113OSM    H3S11745   1.240   5.645  10.673  0.5173 -0.2796  0.8501
  113OSM     O311746   1.091   5.556  10.781  0.5018 -0.5604 -0.1811
  113OSM    HO311747   1.104   5.461  10.792  0.7115 -0.3256  2.2791
  113OSM    C4S11748   1.067   5.692  10.581  0.2219 -0.0817  0.9659
  113OSM    H4S11749   1.116   5.747  10.500 -1.4198  0.9660  0.6335
  113OSM    C5S11750   0.932   5.704  10.599 -0.0531  0.2371 -0.3833
  113OSM    H5S11751   0.887   5.634  10.670 -0.8471 -0.4875 -1.5667
  113OSM    C6S11752   0.840   5.794  10.513 -0.5249 -0.6900  0.2875
  113OSM    H6S11753   0.802   5.871  10.583  0.7120 -0.4854  0.7656
  113OSM    H6T11754   0.753   5.736  10.477 -0.6699  0.4939 -1.3682
  113OSM    C7S11755   0.906   5.873  10.398  0.1819 -0.1786 -0.0937
  113OSM    H7S11756   0.999   5.920  10.436  0.4761  1.9013 -3.0783
  113OSM    H7T11757   0.835   5.955  10.371 -0.5346 -1.5045 -2.4877
  113OSM    C8S11758   0.933   5.789  10.276  0.6309  0.1839 -0.0254
  113OSM    H8S11759   0.838   5.778  10.218 -0.4563  2.5050  1.2012
  113OSM    H8T11760   0.968   5.688  10.306  0.6920  0.6516  1.5766
  113OSM    C9S11761   1.035   5.853  10.179 -0.2602 -0.3508  0.0404
  113OSM    H9S11762   1.135   5.830  10.223  0.3521  0.6978 -0.7762
  113OSM    H9T11763   1.019   5.962  10.164  0.5642 -0.0482  1.1845
  113OSM   C10S11764   1.034   5.799  10.034 -0.4384  0.1240 -0.2198
  113OSM   H10S11765   0.931   5.809   9.994 -1.0953  1.3065  1.6140
  113OSM   H10T11766   1.049   5.690  10.040 -0.4728 -0.0189 -2.1576
  113OSM   C11S11767   1.144   5.855   9.943 -0.5333 -0.2303 -0.3183
  113OSM   H11S11768   1.242   5.843   9.994  0.1154  2.6387 -0.7018
  113OSM   H11T11769   1.133   5.966   9.941  0.2433 -0.1550 -1.1168
  113OSM   C12S11770   1.151   5.807   9.799 -0.7046  0.1749 -0.1917
  113OSM   H12S11771   1.063   5.830   9.735 -0.6815 -1.4202 -0.8413
  113OSM   H12T11772   1.158   5.698   9.815  1.9333  0.4277  0.9350
  113OSM   C13S11773   1.280   5.860   9.738 -0.1279  0.2605 -0.4432
  113OSM   H13S11774   1.374   5.823   9.785  0.4441  0.7935 -1.1393
  113OSM   H13T11775   1.288   5.971   9.751  0.6614  0.2401 -0.6685
  113OSM   C14S11776   1.284   5.846   9.587 -0.1539  0.0028 -0.6985
  113OSM   H14S11777   1.273   5.737   9.570 -2.8623  0.1928 -0.6882
  113OSM   H14T11778   1.377   5.889   9.546  0.7556 -1.4382 -0.2034
  113OSM   C15S11779   1.167   5.917   9.511  0.0787 -0.0312 -0.1641
  113OSM   H15S11780   1.183   6.021   9.550  0.5305 -0.2649  0.2921
  113OSM   H15T11781   1.063   5.898   9.545  0.7454 -0.9751  1.4623
  113OSM   C16S11782   1.177   5.906   9.359  0.2932  0.4324  0.3011
  113OSM   H16S11783   1.203   5.799   9.347 -0.6592 -0.0086  1.9228
  113OSM   H16T11784   1.261   5.971   9.324  0.3269  1.2560  1.8192
  113OSM   C17S11785   1.054   5.940   9.270 -0.7541 -0.4540  0.1926
  113OSM   H17S11786   0.959   5.893   9.304 -1.2489  1.1392  1.1513
  113OSM   H17T11787   1.067   5.885   9.174  0.9858 -0.3788  0.3522
  113OSM   C18S11788   1.037   6.090   9.243  0.3623  0.3936 -0.6241
  113OSM   H18S11789   0.963   6.118   9.165  0.7435  1.2903 -0.6778
  113OSM   H18T11790   1.137   6.129   9.214  1.0078 -0.2288  0.6737
  113OSM   H18U11791   0.993   6.136   9.334  3.3211  2.2508 -0.0021
  113OSM    C1F11792   1.192   5.457  10.310  0.4970 -0.6069 -0.0966
  113OSM     OF11793   1.077   5.433  10.295 -0.1239 -0.2958 -0.1864
  113OSM    C2F11794   1.294   5.474  10.194  0.5160 -0.1704 -0.0164
  113OSM    H2F11795   1.383   5.409  10.205  1.2486  0.5436 -1.5506
  113OSM    H2G11796   1.307   5.584  10.190 -0.2421  0.0193  1.6538
  113OSM    C3F11797   1.223   5.422  10.066  0.3462 -0.1443  0.1453
  113OSM    H3F11798   1.164   5.505  10.022 -1.5439 -0.7627  1.4068
  113OSM    H3G11799   1.154   5.335  10.079  0.4863 -0.0221  1.9404
  113OSM    C4F11800   1.328   5.383   9.962 -0.1484  0.1795 -0.4583
  113OSM    H4F11801   1.403   5.319  10.014 -0.3217  1.7337  1.8794
  113OSM    H4G11802   1.367   5.478   9.922  0.7016  0.3841  0.7792
  113OSM    C5F11803   1.275   5.302   9.844 -0.0435 -0.1802 -0.2861
  113OSM    H5F11804   1.182   5.358   9.819 -0.3161  0.3470  1.7487
  113OSM    H5G11805   1.240   5.204   9.881  2.8108 -1.1972 -0.0801
  113OSM    C6F11806   1.381   5.294   9.732 -0.0268 -0.6025  0.3082
  113OSM    H6F11807   1.482   5.278   9.776  0.0900 -1.4679 -0.2650
  113OSM    H6G11808   1.394   5.387   9.673  3.2865 -1.2919 -0.2516
  113OSM    C7F11809   1.361   5.180   9.635 -0.8538 -0.0107 -0.2517
  113OSM    H7F11810   1.271   5.193   9.571  0.3694  1.5142 -1.7532
  113OSM    H7G11811   1.347   5.087   9.695 -0.3987  0.6464  0.8993
  113OSM    C8F11812   1.492   5.175   9.547 -0.6287  0.0057 -0.4534
  113OSM    H8F11813   1.579   5.140   9.608 -0.6456 -1.9054 -1.4708
  113OSM    H8G11814   1.528   5.276   9.517  1.6203 -0.5715  0.1142
  113OSM    C9F11815   1.468   5.080   9.436 -0.1647  0.4554 -0.2009
  113OSM    H9F11816   1.491   4.974   9.454 -0.9993  0.7254  3.1067
  113OSM   C10F11817   1.426   5.126   9.315 -1.0903  0.7519  0.2886
  113OSM   H10F11818   1.416   5.063   9.225  0.1078  0.7687  0.1357
  113OSM   C11F11819   1.395   5.267   9.278  0.3062 -0.0459  0.0323
  113OSM   H11F11820   1.476   5.340   9.299  0.8206 -0.7849  0.6454
  113OSM   H11G11821   1.304   5.313   9.323  1.2205  2.0437 -0.1167
  113OSM   C12F11822   1.370   5.301   9.124 -0.1515 -0.7830 -0.9346
  113OSM   H12F11823   1.346   5.409   9.116  1.7845 -0.3110 -0.8333
  113OSM   H12G11824   1.278   5.248   9.090 -0.9751  0.2240 -0.3259
  113OSM   C13F11825   1.495   5.257   9.045 -0.1910  0.0639 -0.3988
  113OSM   H13F11826   1.510   5.147   9.058 -0.3915  0.2280  1.3802
  113OSM   H13G11827   1.586   5.304   9.088  0.4736 -0.7920 -0.8311
  113OSM   C14F11828   1.499   5.296   8.899 -0.3059 -0.1755  0.9758
  113OSM   H14F11829   1.486   5.405   8.887  1.8823  0.0716  0.3266
  113OSM   H14G11830   1.414   5.260   8.838 -0.2090  0.9383  0.1491
  113OSM   C15F11831   1.628   5.258   8.824  0.1898 -0.5400  0.8787
  113OSM   H15F11832   1.642   5.148   8.831  1.0699 -0.4483  0.7501
  113OSM   H15G11833   1.716   5.297   8.880 -0.8278  1.6282  1.0528
  113OSM   C16F11834   1.622   5.302   8.676  0.5678  0.4176  0.2612
  113OSM   H16F11835   1.580   5.405   8.667 -0.6414 -0.1032 -0.4059
  113OSM   H16G11836   1.553   5.225   8.634  0.7658  0.9735 -1.1252
  113OSM   C17F11837   1.761   5.297   8.607  0.6987 -0.1888  0.1556
  113OSM   H17F11838   1.807   5.196   8.611  2.9305  0.8105  1.3929
  113OSM   H17G11839   1.831   5.362   8.663 -0.3372 -0.6592  2.0539
  113OSM   C18F11840   1.744   5.347   8.464 -0.2726 -0.1979 -0.2208
  113OSM   H18F11841   1.842   5.330   8.415 -0.2982 -3.6418  0.6368
  113OSM   H18G11842   1.716   5.454   8.455  1.2713  0.3360  0.9356
  113OSM   H18H11843   1.668   5.284   8.413  0.3975 -0.8547 -0.4250
  114OSM      N11844   3.924   0.318  11.045 -0.1022  0.1532  0.0746
  114OSM    C1511845   3.850   0.406  11.135 -0.0557  0.6511  0.1941
  114OSM   H15A11846   3.746   0.416  11.107 -0.4113 -3.3717 -0.5826
  114OSM   H15B11847   3.892   0.505  11.134 -0.8812  1.0348  1.3296
  114OSM   H15C11848   3.864   0.363  11.233  1.6574 -0.9268 -0.6714
  114OSM    C1411849   4.060   0.293  11.115  0.3102  0.0184  0.1806
  114OSM   H14A11850   4.130   0.235  11.056  0.6812  0.6786 -0.0383
  114OSM   H14B11851   4.051   0.243  11.210  1.8138 -1.4255 -0.3855
  114OSM   H14C11852   4.113   0.386  11.126 -0.4265  0.6027 -0.9812
  114OSM    C1311853   3.853   0.193  11.019  0.0212  0.3654 -0.0872
  114OSM   H13A11854   3.912   0.126  10.959 -3.0325 -1.8417 -0.8345
  114OSM   H13B11855   3.766   0.217  10.959 -0.7983 -0.2794  0.8048
  114OSM   H13C11856   3.816   0.135  11.102  0.7195 -0.4930 -0.3659
  114OSM    C1211857   3.958   0.381  10.910  0.4678  0.4576  0.3931
  114OSM   H12A11858   4.038   0.322  10.868  1.5082 -1.0314  4.0628
  114OSM   H12B11859   3.999   0.480  10.927  0.7197  0.1441  1.7675
  114OSM    C1111860   3.834   0.396  10.811 -0.1546 -0.1088 -0.0845
  114OSM   H11A11861   3.798   0.297  10.777 -1.4964  0.6769 -1.0711
  114OSM   H11B11862   3.866   0.448  10.719 -3.0694  0.8170 -0.7012
  114OSM      P11863   3.717   0.623  10.863 -0.0728  0.0004 -0.0221
  114OSM    O1311864   3.584   0.672  10.889 -0.1944  0.0361 -0.1685
  114OSM    O1411865   3.816   0.667  10.960 -0.5126  0.8030 -0.2086
  114OSM    O1111866   3.759   0.651  10.719  0.5354 -0.1126  0.3534
  114OSM    O1211867   3.720   0.467  10.867  0.3260  0.5671  0.7168
  114OSM    C1S11868   3.665   0.632  10.609 -0.4278 -0.0850  0.2028
  114OSM    H1S11869   3.578   0.701  10.617  0.1714  0.6368  0.7266
  114OSM    H1T11870   3.625   0.529  10.607  0.1788 -0.3197  0.1183
  114OSM     NF11871   3.629   0.634  10.374  0.0683 -0.1481  0.1345
  114OSM    HNF11872   3.608   0.543  10.339 -0.8164 -0.0166  0.2942
  114OSM    C2S11873   3.733   0.655  10.471 -0.4163  0.0459  0.1187
  114OSM    H2S11874   3.771   0.759  10.468 -0.2053 -0.0607 -1.9835
  114OSM    C3S11875   3.864   0.567  10.460 -0.6112 -1.0057  0.3300
  114OSM    H3S11876   3.844   0.463  10.493 -1.6372 -0.8429  0.2531
  114OSM     O311877   3.974   0.610  10.543  0.1415 -0.4145  0.2607
  114OSM    HO311878   3.945   0.661  10.618  2.0170  0.6291  0.3347
  114OSM    C4S11879   3.912   0.558  10.317  0.8805 -0.0849 -0.7014
  114OSM    H4S11880   3.861   0.479  10.259 -2.4634 -0.7618  2.7528
  114OSM    C5S11881   4.006   0.639  10.261  0.4014  0.3793 -1.1394
  114OSM    H5S11882   4.060   0.713  10.322 -2.0342  0.1249  1.5350
  114OSM    C6S11883   4.036   0.635  10.117  0.2784 -0.3381  0.7419
  114OSM    H6S11884   3.980   0.561  10.056  1.2761  0.8425 -1.7612
  114OSM    H6T11885   4.145   0.640  10.097  0.1653 -2.2575 -0.7856
  114OSM    C7S11886   4.001   0.771  10.056 -0.3765 -0.3192  0.3113
  114OSM    H7S11887   4.032   0.768   9.949  1.1770 -1.8661  0.7655
  114OSM    H7T11888   4.052   0.849  10.117  0.5771  0.2233 -1.1149
  114OSM    C8S11889   3.851   0.808  10.059 -0.1692  0.4578  0.9977
  114OSM    H8S11890   3.842   0.910  10.017 -3.7458 -0.4129 -0.8019
  114OSM    H8T11891   3.808   0.799  10.161 -0.0160 -0.8054  0.9763
  114OSM    C9S11892   3.762   0.729   9.959  0.0599  0.1407 -1.1741
  114OSM    H9S11893   3.664   0.782   9.964 -0.2065 -0.4398  1.2958
  114OSM    H9T11894   3.750   0.625   9.998  0.5089  0.3261 -0.5252
  114OSM   C10S11895   3.804   0.733   9.815  0.6671 -0.3093 -0.1520
  114OSM   H10S11896   3.894   0.669   9.801  0.1799 -0.8666 -0.7970
  114OSM   H10T11897   3.821   0.830   9.765  1.3479 -0.3730 -0.0584
  114OSM   C11S11898   3.677   0.675   9.745 -0.1161 -0.3176 -0.5751
  114OSM   H11S11899   3.583   0.733   9.751  2.0415  3.4330 -0.1602
  114OSM   H11T11900   3.663   0.571   9.782 -3.1023  0.2307  0.0780
  114OSM   C12S11901   3.705   0.663   9.596 -0.0218 -0.0470 -0.7128
  114OSM   H12S11902   3.799   0.606   9.578  0.5310  0.8879 -0.8483
  114OSM   H12T11903   3.717   0.762   9.547 -0.0814 -0.9019 -2.5273
  114OSM   C13S11904   3.595   0.592   9.524  0.0860 -0.5359  0.2878
  114OSM   H13S11905   3.511   0.664   9.515  0.8098  0.3491  0.5623
  114OSM   H13T11906   3.561   0.504   9.583 -1.4392 -0.2139 -0.0677
  114OSM   C14S11907   3.642   0.546   9.385 -0.2114 -0.4981  0.5917
  114OSM   H14S11908   3.692   0.446   9.384 -0.7243 -0.7760  1.3334
  114OSM   H14T11909   3.714   0.616   9.337 -0.6975 -0.3747  0.0370
  114OSM   C15S11910   3.513   0.542   9.308 -0.0170  0.6006 -0.0721
  114OSM   H15S11911   3.481   0.646   9.289 -0.2721  0.2157 -1.8832
  114OSM   H15T11912   3.441   0.488   9.374  0.7555  1.0245  1.1588
  114OSM   C16S11913   3.537   0.469   9.172 -0.3164  0.2937 -0.1493
  114OSM   H16S11914   3.565   0.364   9.190 -0.5280  0.5663  2.0905
  114OSM   H16T11915   3.616   0.527   9.120 -2.2080  2.9561 -0.2778
  114OSM   C17S11916   3.400   0.462   9.098  0.0913  0.0981  0.5415
  114OSM   H17S11917   3.368   0.568   9.094  0.1720  0.0901 -1.9127
  114OSM   H17T11918   3.338   0.424   9.182  2.3824  1.3047  2.9253
  114OSM   C18S11919   3.394   0.394   8.968  0.0864  0.1584  0.2700
  114OSM   H18S11920   3.439   0.468   8.899  2.2339 -3.1246 -2.1704
  114OSM   H18T11921   3.291   0.363   8.940 -0.2040  0.7803  0.6202
  114OSM   H18U11922   3.460   0.305   8.968  1.2078  0.9608  0.5226
  114OSM    C1F11923   3.540   0.726  10.341  0.0510  0.2210 -0.2905
  114OSM     OF11924   3.552   0.838  10.392  0.1354  0.5647  0.4627
  114OSM    C2F11925   3.435   0.684  10.251 -1.3169  0.6834  0.1626
  114OSM    H2F11926   3.344   0.659  10.309 -0.1092  1.1708  2.3795
  114OSM    H2G11927   3.447   0.584  10.203 -1.2428  0.9273 -0.3264
  114OSM    C3F11928   3.395   0.790  10.152  0.0132 -0.2192 -0.1139
  114OSM    H3F11929   3.484   0.816  10.091 -1.0231 -0.7291 -1.9404
  114OSM    H3G11930   3.377   0.887  10.203  3.0875  0.7012 -0.5836
  114OSM    C4F11931   3.278   0.757  10.061 -0.3251  0.2755 -0.2546
  114OSM    H4F11932   3.183   0.766  10.118 -0.6027  0.6221 -0.7682
  114OSM    H4G11933   3.289   0.655  10.019  0.5327 -0.1844  1.0103
  114OSM    C5F11934   3.277   0.853   9.948  0.0035 -0.1846  0.1447
  114OSM    H5F11935   3.371   0.858   9.890  0.7367  2.2759  1.3782
  114OSM    H5G11936   3.260   0.957   9.985 -0.9463  0.1257 -1.1148
  114OSM    C6F11937   3.164   0.825   9.851 -0.0871 -0.5460 -0.3286
  114OSM    H6F11938   3.160   0.900   9.770 -0.4932 -0.1784  0.0248
  114OSM    H6G11939   3.065   0.828   9.902  0.3433 -0.2263  0.5262
  114OSM    C7F11940   3.172   0.687   9.785 -0.2245  0.5506  0.1344
  114OSM    H7F11941   3.140   0.619   9.867 -2.4658  1.7488  0.3199
  114OSM    H7G11942   3.274   0.661   9.749 -0.2827  0.2273  0.1953
  114OSM    C8F11943   3.071   0.660   9.669 -0.3158  0.2336 -0.1237
  114OSM    H8F11944   3.095   0.741   9.597  0.1565  2.3153  2.2271
  114OSM    H8G11945   2.972   0.672   9.719 -0.1922  1.4329 -0.1310
  114OSM    C9F11946   3.091   0.515   9.626 -0.0851 -0.0785 -0.4772
  114OSM    H9F11947   3.107   0.445   9.709  0.1829  1.6787  1.0148
  114OSM   C10F11948   3.107   0.484   9.496  0.7948  1.3442 -0.1584
  114OSM   H10F11949   3.109   0.376   9.477  1.6539  1.4273 -0.5799
  114OSM   C11F11950   3.086   0.575   9.377  0.0075 -0.1448 -0.5375
  114OSM   H11F11951   3.179   0.577   9.316 -0.5368 -0.5897 -1.4069
  114OSM   H11G11952   3.056   0.681   9.393 -0.2419 -0.3939  0.7630
  114OSM   C12F11953   2.982   0.527   9.286 -0.6131  0.2604 -0.4065
  114OSM   H12F11954   2.887   0.557   9.334 -1.2346 -2.2062  0.0567
  114OSM   H12G11955   2.982   0.415   9.286 -1.4713  0.2410  1.0175
  114OSM   C13F11956   2.997   0.594   9.153  0.0261  0.5628 -0.0878
  114OSM   H13F11957   3.092   0.568   9.102  0.5498 -0.6369  1.4299
  114OSM   H13G11958   2.994   0.703   9.174  2.9097  0.8292 -0.6051
  114OSM   C14F11959   2.887   0.545   9.058  0.9373 -0.2086  0.2947
  114OSM   H14F11960   2.792   0.579   9.106  0.2565  0.7899 -1.6426
  114OSM   H14G11961   2.878   0.435   9.064  2.3111 -0.2957  1.2607
  114OSM   C15F11962   2.900   0.616   8.920  0.0239  0.5161  0.3724
  114OSM   H15F11963   3.011   0.621   8.911  0.6687 -2.7504  3.7726
  114OSM   H15G11964   2.863   0.721   8.926 -2.6700 -0.3439  0.1983
  114OSM   C16F11965   2.827   0.561   8.798 -0.9207 -0.1449  1.0710
  114OSM   H16F11966   2.854   0.623   8.710  2.1344 -0.7109  1.5225
  114OSM   H16G11967   2.717   0.551   8.812 -1.2365 -2.1908 -2.0506
  114OSM   C17F11968   2.893   0.422   8.777 -0.2461  1.0834 -0.5197
  114OSM   H17F11969   2.886   0.357   8.867 -1.7643  1.3470 -0.4299
  114OSM   H17G11970   2.999   0.454   8.764  0.3356  1.7443  4.1434
  114OSM   C18F11971   2.842   0.335   8.670  0.4653  0.2109 -0.6509
  114OSM   H18F11972   2.732   0.329   8.679  0.2332  2.1408 -1.7389
  114OSM   H18G11973   2.898   0.239   8.668 -0.5002 -0.4632  1.5810
  114OSM   H18H11974   2.859   0.394   8.578  2.4167 -1.7830 -1.6498
  115OSM      N11975   0.010   1.402  10.851 -0.4063 -0.2233 -0.1559
  115OSM    C1511976   0.092   1.364  10.973 -0.1557  0.8244  0.6599
  115OSM   H15A11977   0.197   1.373  10.953  0.2528 -2.2926  0.9628
  115OSM   H15B11978   0.072   1.261  10.999 -1.0386  1.0830  1.0552
  115OSM   H15C11979   0.076   1.425  11.061 -1.0007  1.6932 -0.0711
  115OSM    C1411980  -0.127   1.421  10.892 -0.0339  0.2499 -0.6820
  115OSM   H14A11981  -0.139   1.503  10.961 -0.0539  0.2011 -0.6269
  115OSM   H14B11982  -0.173   1.336  10.941  1.8369 -0.2389  0.3180
  115OSM   H14C11983  -0.185   1.446  10.804 -1.2279 -0.3720 -0.1025
  115OSM    C1311984   0.062   1.533  10.797  0.1907  0.3804 -0.6527
  115OSM   H13A11985  -0.004   1.568  10.719 -2.8911 -1.2153  1.0006
  115OSM   H13B11986   0.167   1.524  10.775  0.0188 -0.6721 -1.1131
  115OSM   H13C11987   0.058   1.608  10.874  3.0324  1.0098 -1.0295
  115OSM    C1211988   0.031   1.300  10.735  0.4896 -0.4161 -0.1130
  115OSM   H12A11989  -0.028   1.321  10.647 -0.3090  0.1092  0.5324
  115OSM   H12B11990  -0.006   1.202  10.762  1.4956 -1.1079 -1.1389
  115OSM    C1111991   0.178   1.272  10.690 -0.6642  0.5052  0.3433
  115OSM   H11A11992   0.236   1.366  10.680  1.1417 -0.5062  0.7684
  115OSM   H11B11993   0.162   1.223  10.592 -0.8902  0.1170  0.5721
  115OSM      P11994   0.185   1.037  10.815 -0.1646 -0.0769  0.8563
  115OSM    O1311995   0.287   0.983  10.907 -0.6841 -0.4356 -0.5854
  115OSM    O1411996   0.050   1.054  10.867  0.4241  0.1568  0.5963
  115OSM    O1111997   0.196   0.965  10.677  0.3735 -0.2855  0.0967
  115OSM    O1211998   0.241   1.180  10.775  0.4800  0.5102 -0.8134
  115OSM    C1S11999   0.314   0.960  10.597  0.1758 -0.2429  0.8373
  115OSM    H1S12000   0.405   0.936  10.656 -0.5192 -1.4413  1.4547
  115OSM    H1T12001   0.324   1.057  10.543 -3.3433  0.6248  1.4665
  115OSM     NF12002   0.409   0.842  10.386  0.5063  0.6574  0.5959
  115OSM    HNF12003   0.412   0.894  10.301  2.8781 -1.4504 -0.7656
  115OSM    C2S12004   0.299   0.855  10.484 -0.4330  0.1937 -0.7637
  115OSM    H2S12005   0.289   0.756  10.533  1.1699 -0.1632 -1.1102
  115OSM    C3S12006   0.157   0.873  10.419  0.0514 -0.2877  0.2216
  115OSM    H3S12007   0.151   0.979  10.387 -1.7190 -0.3412  0.2846
  115OSM     O312008   0.048   0.839  10.506  0.2560 -0.1379 -0.4206
  115OSM    HO312009   0.078   0.868  10.592  0.0937  1.8196 -0.9796
  115OSM    C4S12010   0.143   0.787  10.300  0.1813 -0.1611  0.2536
  115OSM    H4S12011   0.145   0.680  10.327 -2.1373 -0.7031 -1.3382
  115OSM    C5S12012   0.112   0.818  10.171  0.4731  0.1149  0.3757
  115OSM    H5S12013   0.098   0.927  10.162  0.7224  0.1627  0.5399
  115OSM    C6S12014   0.092   0.728  10.053  0.0547  0.3305  0.5243
  115OSM    H6S12015   0.019   0.780   9.987  1.5005  0.1239 -1.3492
  115OSM    H6T12016   0.056   0.629  10.087 -0.2106  0.4725  0.6568
  115OSM    C7S12017   0.224   0.714   9.976  0.4151  0.1210  0.6403
  115OSM    H7S12018   0.302   0.675  10.045 -0.9813 -2.1375  1.0687
  115OSM    H7T12019   0.260   0.816   9.951  1.9155 -0.6885 -0.6604
  115OSM    C8S12020   0.221   0.639   9.837 -0.2809  0.0858  0.1927
  115OSM    H8S12021   0.184   0.537   9.861 -1.8968  0.7435  0.6578
  115OSM    H8T12022   0.321   0.631   9.789  0.5581 -0.8488  1.9784
  115OSM    C9S12023   0.132   0.699   9.727 -0.1565 -0.2256  0.4308
  115OSM    H9S12024   0.135   0.810   9.723 -3.7925 -0.0426 -1.2121
  115OSM    H9T12025   0.026   0.683   9.757 -0.7173 -0.2047 -1.4273
  115OSM   C10S12026   0.158   0.640   9.586 -0.2102 -0.2976 -0.5453
  115OSM   H10S12027   0.144   0.531   9.594  1.1590 -0.3748  1.5187
  115OSM   H10T12028   0.264   0.646   9.552 -0.0520 -0.2899 -0.0586
  115OSM   C11S12029   0.069   0.701   9.466 -0.3708 -0.1391  0.0299
  115OSM   H11S12030   0.071   0.812   9.463 -1.0484 -0.1367 -1.5207
  115OSM   H11T12031  -0.034   0.671   9.492  0.1891 -0.0848  2.4892
  115OSM   C12S12032   0.106   0.644   9.332  0.4022 -0.3325 -0.4168
  115OSM   H12S12033   0.114   0.534   9.340  1.8960 -0.1376  1.2569
  115OSM   H12T12034   0.202   0.692   9.303  0.9051 -0.2517  1.2826
  115OSM   C13S12035   0.013   0.686   9.219  0.0870  0.2986 -0.0180
  115OSM   H13S12036  -0.010   0.794   9.209 -3.6650 -0.2851  0.9461
  115OSM   H13T12037  -0.084   0.632   9.224 -0.5049  1.2480 -0.9381
  115OSM   C14S12038   0.090   0.650   9.093  0.3144 -0.1003  0.8140
  115OSM   H14S12039   0.148   0.555   9.103 -0.3094 -0.5223  0.5066
  115OSM   H14T12040   0.167   0.730   9.098  1.6846 -1.1706 -1.3547
  115OSM   C15S12041   0.020   0.648   8.956  0.0128  0.5879 -0.2473
  115OSM   H15S12042  -0.040   0.742   8.947 -0.2090  0.9266  3.2045
  115OSM   H15T12043  -0.042   0.556   8.963 -0.2678  0.7572 -0.4813
  115OSM   C16S12044   0.124   0.638   8.838 -0.8295 -0.3978 -0.2050
  115OSM   H16S12045   0.195   0.557   8.866 -0.5191  0.6851  2.4839
  115OSM   H16T12046   0.181   0.733   8.843  2.0666 -1.9982 -0.4276
  115OSM   C17S12047   0.069   0.624   8.698  0.0091  1.0027  0.5421
  115OSM   H17S12048   0.013   0.717   8.674 -0.9371  0.0451 -1.1514
  115OSM   H17T12049   0.007   0.532   8.694  0.2850  0.8456 -0.9370
  115OSM   C18S12050   0.180   0.609   8.582 -0.9941  0.2522  0.9247
  115OSM   H18S12051   0.119   0.585   8.492  0.3482 -0.2620  0.1204
  115OSM   H18T12052   0.241   0.516   8.591  0.1927  0.6985 -1.6292
  115OSM   H18U12053   0.228   0.707   8.563 -1.6874 -0.0815 -3.3939
  115OSM    C1F12054   0.525   0.783  10.424 -0.4123 -0.0949  0.7944
  115OSM     OF12055   0.523   0.704  10.518 -0.4083 -0.6606  0.6134
  115OSM    C2F12056   0.650   0.800  10.343  0.2374 -0.6002 -0.3608
  115OSM    H2F12057   0.724   0.825  10.423 -1.4808 -3.3198  2.3347
  115OSM    H2G12058   0.628   0.884  10.275 -3.4949 -0.3434  0.9517
  115OSM    C3F12059   0.701   0.688  10.242  0.2706 -0.3494  0.3487
  115OSM    H3F12060   0.705   0.584  10.280 -0.0654 -1.4378 -2.3715
  115OSM    H3G12061   0.801   0.728  10.215 -0.7610  0.9191 -1.8706
  115OSM    C4F12062   0.606   0.671  10.119  0.3095  0.7808  0.4299
  115OSM    H4F12063   0.610   0.774  10.079 -0.6619  1.5670  2.2424
  115OSM    H4G12064   0.501   0.646  10.148  0.6393 -1.9832 -0.4063
  115OSM    C5F12065   0.655   0.580  10.001  0.3336  0.0805 -0.8034
  115OSM    H5F12066   0.662   0.470  10.016 -2.5200  0.0756  1.4013
  115OSM    H5G12067   0.760   0.614   9.991  0.2011  0.3204 -1.3703
  115OSM    C6F12068   0.570   0.608   9.877  0.2895 -0.3247  0.2994
  115OSM    H6F12069   0.539   0.714   9.865  0.3532 -0.6279 -4.2071
  115OSM    H6G12070   0.477   0.546   9.884  1.6451 -2.7006 -1.2418
  115OSM    C7F12071   0.641   0.565   9.755  0.2187  0.1386 -0.0550
  115OSM    H7F12072   0.624   0.456   9.762 -2.2537  0.4984  0.5277
  115OSM    H7G12073   0.750   0.586   9.764 -0.0839  1.5470  0.5459
  115OSM    C8F12074   0.607   0.618   9.615 -0.4250  0.1767  0.1412
  115OSM    H8F12075   0.638   0.724   9.603  0.3058 -0.2847 -2.8457
  115OSM    H8G12076   0.498   0.605   9.596 -0.3603  1.0815 -0.9119
  115OSM    C9F12077   0.675   0.536   9.506  0.1382 -0.7444  0.3170
  115OSM    H9F12078   0.785   0.536   9.514  0.0744  0.8401  1.9931
  115OSM   C10F12079   0.619   0.466   9.407 -0.8670 -0.5677  0.2832
  115OSM   H10F12080   0.693   0.417   9.341 -0.7349 -1.1390  0.8416
  115OSM   C11F12081   0.470   0.445   9.378  0.4977 -0.2788 -0.3789
  115OSM   H11F12082   0.414   0.541   9.392 -0.2889 -0.8575  0.6165
  115OSM   H11G12083   0.416   0.376   9.446 -1.5810  2.4778  1.0075
  115OSM   C12F12084   0.439   0.392   9.238 -0.4205  0.4379 -0.0156
  115OSM   H12F12085   0.329   0.374   9.235 -0.2133 -0.9484 -0.2200
  115OSM   H12G12086   0.494   0.296   9.230 -1.3100 -0.2044  1.2165
  115OSM   C13F12087   0.482   0.490   9.131 -0.6045 -0.2122  0.1517
  115OSM   H13F12088   0.574   0.542   9.167  0.6876 -3.4050  1.8177
  115OSM   H13G12089   0.400   0.564   9.118  0.2344  1.1259  1.9224
  115OSM   C14F12090   0.509   0.424   8.996 -0.3581 -0.9101 -0.5148
  115OSM   H14F12091   0.412   0.425   8.941  0.2455 -0.0317 -1.6164
  115OSM   H14G12092   0.549   0.321   9.009 -3.9791 -2.3543  0.5950
  115OSM   C15F12093   0.607   0.513   8.913 -0.7556 -0.0174 -1.1831
  115OSM   H15F12094   0.591   0.622   8.925  3.2317  0.6678 -0.7669
  115OSM   H15G12095   0.589   0.487   8.806  0.9571  0.8855 -1.7308
  115OSM   C16F12096   0.754   0.481   8.934 -0.1214 -0.2346 -0.9313
  115OSM   H16F12097   0.762   0.373   8.907 -0.9474 -0.6514  0.4012
  115OSM   H16G12098   0.800   0.505   9.032  0.3539  1.0086 -1.4377
  115OSM   C17F12099   0.848   0.557   8.837  0.3279 -0.0943 -0.5403
  115OSM   H17F12100   0.829   0.666   8.846 -0.4347 -0.3314  1.0109
  115OSM   H17G12101   0.828   0.526   8.732  0.8684  1.7453 -1.2237
  115OSM   C18F12102   0.995   0.525   8.862  0.8966 -0.6694 -0.1152
  115OSM   H18F12103   1.001   0.556   8.968 -4.0708 -0.5378  0.3507
  115OSM   H18G12104   1.076   0.576   8.806  0.2005 -2.1790 -2.7039
  115OSM   H18H12105   1.009   0.415   8.847 -0.4880 -1.1460  1.8126
  116OSM      N12106   2.930   4.098  10.838 -0.4462 -0.4854  0.1292
  116OSM    C1512107   3.033   4.027  10.920 -0.1148 -0.2789 -0.1024
  116OSM   H15A12108   3.037   4.088  11.009  0.2751  2.5514 -1.9374
  116OSM   H15B12109   3.128   4.025  10.870  0.5011 -1.1367  1.0600
  116OSM   H15C12110   3.005   3.925  10.943  0.8896 -0.7535 -0.9086
  116OSM    C1412111   2.902   4.022  10.709 -0.0500 -0.0077  0.4258
  116OSM   H14A12112   2.838   4.087  10.651 -0.6221 -1.6977 -0.9142
  116OSM   H14B12113   2.864   3.922  10.720  0.6199 -0.8048 -3.2386
  116OSM   H14C12114   2.990   4.002  10.650 -0.2342  0.0473  0.1305
  116OSM    C1312115   2.797   4.105  10.911  0.3954  0.0399 -0.3991
  116OSM   H13A12116   2.719   4.153  10.853 -1.2103  1.3540  2.6168
  116OSM   H13B12117   2.807   4.171  10.996  3.2649  3.0051 -2.7394
  116OSM   H13C12118   2.754   4.009  10.934 -1.8155  0.7730 -1.1912
  116OSM    C1212119   2.989   4.235  10.802  0.3778 -0.5106  0.2232
  116OSM   H12A12120   3.032   4.274  10.893  0.2557  0.4839 -0.1302
  116OSM   H12B12121   2.909   4.303  10.775 -0.1650 -0.7261  1.2574
  116OSM    C1112122   3.087   4.240  10.680 -0.1212 -0.2402  0.3299
  116OSM   H11A12123   3.105   4.346  10.652 -0.8371  0.2206  1.5426
  116OSM   H11B12124   3.030   4.204  10.591  1.0440  0.5204 -0.7688
  116OSM      P12125   3.313   4.205  10.810  0.0936  0.5809 -0.0142
  116OSM    O1312126   3.264   4.311  10.902  0.1418 -0.5552  0.0598
  116OSM    O1412127   3.382   4.089  10.871 -0.0937  0.2280 -0.5834
  116OSM    O1112128   3.428   4.275  10.728  0.0663 -0.7548 -0.1945
  116OSM    O1212129   3.207   4.164  10.703  0.0482  0.2459  0.3336
  116OSM    C1S12130   3.476   4.230  10.604 -0.0723  0.0358  0.8214
  116OSM    H1S12131   3.459   4.121  10.594 -2.7590  0.4678 -0.1484
  116OSM    H1T12132   3.585   4.250  10.600 -0.0804  0.0984 -3.8712
  116OSM     NF12133   3.477   4.265  10.367  0.1713 -0.5000  0.7195
  116OSM    HNF12134   3.536   4.331  10.321  0.6917 -1.7433 -0.4643
  116OSM    C2S12135   3.411   4.307  10.489 -0.5519  0.2054  0.2094
  116OSM    H2S12136   3.302   4.288  10.485 -0.8938  1.9094  0.3967
  116OSM    C3S12137   3.428   4.463  10.509  0.2011  0.3133 -0.1490
  116OSM    H3S12138   3.536   4.479  10.530 -0.2549  1.0099  1.9219
  116OSM     O312139   3.371   4.516  10.629 -0.2275 -0.5719  0.1014
  116OSM    HO312140   3.362   4.436  10.681 -2.8574 -1.1801 -1.1016
  116OSM    C4S12141   3.384   4.530  10.385 -0.3137 -0.3361  0.3735
  116OSM    H4S12142   3.472   4.546  10.321  0.0750  2.3799  1.4764
  116OSM    C5S12143   3.264   4.595  10.364 -0.5709  0.2566  1.1024
  116OSM    H5S12144   3.182   4.591  10.437 -3.4007 -0.3555 -1.8643
  116OSM    C6S12145   3.215   4.664  10.240  0.4234  0.5287 -0.2267
  116OSM    H6S12146   3.231   4.773  10.243 -4.5233  1.5652 -1.8255
  116OSM    H6T12147   3.106   4.646  10.233  0.3417  1.1481 -0.5920
  116OSM    C7S12148   3.270   4.615  10.105  0.5617 -1.2347 -0.1029
  116OSM    H7S12149   3.260   4.505  10.089 -2.4143 -0.9647 -0.6491
  116OSM    H7T12150   3.376   4.641  10.085  0.1676  1.7475  1.1811
  116OSM    C8S12151   3.197   4.673   9.982 -0.1128  0.2246  0.0916
  116OSM    H8S12152   3.202   4.784   9.972 -3.3070  0.3329 -1.3748
  116OSM    H8T12153   3.090   4.646   9.995  0.3810 -1.7952  0.3161
  116OSM    C9S12154   3.227   4.598   9.861  0.1047  0.2884  0.2056
  116OSM    H9S12155   3.203   4.489   9.869  0.8855  0.1940  1.4529
  116OSM    H9T12156   3.337   4.592   9.852  0.0797 -0.9120  0.4264
  116OSM   C10S12157   3.165   4.655   9.729 -0.5286 -0.0429  0.6210
  116OSM   H10S12158   3.188   4.762   9.713 -0.8343 -0.1399 -0.6069
  116OSM   H10T12159   3.057   4.643   9.754 -0.1017 -0.6063  2.3261
  116OSM   C11S12160   3.202   4.574   9.608  0.0346 -1.1138 -0.0182
  116OSM   H11S12161   3.200   4.466   9.633  0.2693 -1.0906  0.1079
  116OSM   H11T12162   3.309   4.588   9.580 -0.6952 -0.5088 -2.8233
  116OSM   C12S12163   3.112   4.583   9.484 -0.1076  0.4038 -0.0774
  116OSM   H12S12164   3.126   4.675   9.424 -2.3836  1.1600  0.4731
  116OSM   H12T12165   3.005   4.588   9.512  0.1795 -1.8037  1.6759
  116OSM   C13S12166   3.143   4.458   9.397 -0.1852 -0.4797 -0.0479
  116OSM   H13S12167   3.158   4.369   9.462 -0.0775  0.0829  0.7183
  116OSM   H13T12168   3.243   4.475   9.351  0.0165 -4.3406 -1.3938
  116OSM   C14S12169   3.036   4.426   9.290  0.0084  0.3241  0.5237
  116OSM   H14S12170   3.034   4.518   9.227  2.3609  0.9056  1.1722
  116OSM   H14T12171   2.938   4.428   9.341  0.1157 -0.6757  0.7816
  116OSM   C15S12172   3.065   4.296   9.218  0.9596  0.7187  0.1442
  116OSM   H15S12173   3.028   4.207   9.274  0.3616  0.6706 -0.3201
  116OSM   H15T12174   3.174   4.292   9.196  0.8895 -0.4881 -0.0474
  116OSM   C16S12175   2.994   4.283   9.083  0.2243  0.0143 -0.7169
  116OSM   H16S12176   3.035   4.353   9.007 -0.2204  1.8238  0.6451
  116OSM   H16T12177   2.889   4.317   9.098  0.1959 -0.3190 -0.1009
  116OSM   C17S12178   3.024   4.143   9.020  0.0782 -0.4034 -0.1296
  116OSM   H17S12179   2.994   4.065   9.093  4.1652 -0.2558  2.0170
  116OSM   H17T12180   3.135   4.144   9.009  0.0752 -2.6062 -0.8460
  116OSM   C18S12181   2.962   4.129   8.881  0.2516  0.0094 -0.2429
  116OSM   H18S12182   2.854   4.151   8.863  0.6799  2.4884 -0.1636
  116OSM   H18T12183   2.985   4.028   8.841  1.0635  0.1171 -0.0661
  116OSM   H18U12184   3.013   4.194   8.807 -0.9931 -1.8915 -2.9394
  116OSM    C1F12185   3.456   4.150  10.298  0.3644  0.6179 -0.2349
  116OSM     OF12186   3.427   4.045  10.352 -0.5494 -0.2966  0.0461
  116OSM    C2F12187   3.497   4.148  10.156 -0.8297 -0.0392 -0.2377
  116OSM    H2F12188   3.578   4.073  10.146 -0.2319  0.5956 -0.2748
  116OSM    H2G12189   3.549   4.244  10.132 -2.2944  0.7991 -0.1971
  116OSM    C3F12190   3.374   4.141  10.059  0.1053  0.2152  0.3840
  116OSM    H3F12191   3.341   4.246  10.050  1.3079  0.5678 -0.1247
  116OSM    H3G12192   3.287   4.083  10.097 -0.9428  0.9477 -0.8061
  116OSM    C4F12193   3.400   4.083   9.919  0.1355 -0.1727  0.5546
  116OSM    H4F12194   3.367   3.978   9.908 -2.5503  0.6714 -0.1701
  116OSM    H4G12195   3.510   4.096   9.904  0.2294  0.5188  1.7128
  116OSM    C5F12196   3.342   4.161   9.798 -0.1010 -0.0919  0.1848
  116OSM    H5F12197   3.392   4.259   9.787 -0.5518  0.4447  2.3997
  116OSM    H5G12198   3.236   4.176   9.827 -1.2689 -2.0002 -2.6265
  116OSM    C6F12199   3.326   4.076   9.669 -0.0313  0.5163 -0.1731
  116OSM    H6F12200   3.291   4.144   9.589 -2.2925 -0.0006  0.3157
  116OSM    H6G12201   3.242   4.008   9.695 -0.2177  1.8715  3.1413
  116OSM    C7F12202   3.443   3.975   9.633 -0.8227  0.0546 -0.2535
  116OSM    H7F12203   3.458   3.913   9.723  1.4172  0.2188 -0.4695
  116OSM    H7G12204   3.538   4.028   9.612  0.9062 -3.0394 -0.7967
  116OSM    C8F12205   3.410   3.899   9.504 -0.0334 -0.1721 -0.1860
  116OSM    H8F12206   3.315   3.843   9.522 -0.9431  1.6302  0.8483
  116OSM    H8G12207   3.498   3.831   9.494 -0.0190 -0.5895  2.1091
  116OSM    C9F12208   3.380   3.987   9.388 -0.8383 -0.2012  0.1509
  116OSM    H9F12209   3.441   4.078   9.386 -2.5971  1.0297  0.0227
  116OSM   C10F12210   3.296   3.960   9.285 -0.6166 -0.0192 -0.0269
  116OSM   H10F12211   3.288   4.040   9.210 -0.4698  0.3822  0.3837
  116OSM   C11F12212   3.207   3.841   9.265 -0.6584  0.1877 -0.3820
  116OSM   H11F12213   3.104   3.879   9.277 -0.5409  0.3597  0.1115
  116OSM   H11G12214   3.217   3.763   9.344 -0.7506 -0.0018 -0.5586
  116OSM   C12F12215   3.235   3.779   9.126  1.3177  0.3967 -0.1225
  116OSM   H12F12216   3.344   3.758   9.123  1.1491 -0.4411 -0.9241
  116OSM   H12G12217   3.201   3.855   9.052 -0.1816  0.6776  0.8112
  116OSM   C13F12218   3.155   3.647   9.097 -0.4311  0.7192  0.7704
  116OSM   H13F12219   3.049   3.652   9.133 -0.5195 -1.9993  1.1100
  116OSM   H13G12220   3.197   3.558   9.150 -0.3712  0.1258 -0.2590
  116OSM   C14F12221   3.146   3.623   8.945 -0.0715 -0.3369  0.8500
  116OSM   H14F12222   3.244   3.589   8.907 -0.5180 -0.6937 -0.0200
  116OSM   H14G12223   3.112   3.718   8.898  0.1549 -0.8832 -0.4737
  116OSM   C15F12224   3.039   3.523   8.899  0.1957 -0.2993  0.0048
  116OSM   H15F12225   2.940   3.571   8.918  1.3149  1.8861  0.6938
  116OSM   H15G12226   3.051   3.428   8.955  1.5393 -1.2938 -1.8906
  116OSM   C16F12227   3.044   3.485   8.752 -0.0928  0.5770 -0.0854
  116OSM   H16F12228   3.146   3.439   8.745 -0.3963 -0.0286 -0.6724
  116OSM   H16G12229   3.048   3.583   8.701 -2.1050  1.0796  0.6571
  116OSM   C17F12230   2.928   3.399   8.704  0.1396 -0.2537  1.2866
  116OSM   H17F12231   2.834   3.450   8.735  0.8882  2.8600 -1.0656
  116OSM   H17G12232   2.925   3.306   8.765 -0.5674 -1.6726 -0.8218
  116OSM   C18F12233   2.924   3.352   8.556  0.7336  0.3611  0.9861
  116OSM   H18F12234   3.028   3.319   8.533  1.1143  2.0691  0.0928
  116OSM   H18G12235   2.894   3.445   8.503  2.4019  1.0242  1.1347
  116OSM   H18H12236   2.849   3.270   8.551 -0.6611  1.6137  0.6628
  117OSM      N12237   0.583   5.497  11.104  0.1997 -0.7426 -0.1912
  117OSM    C1512238   0.654   5.395  11.188  0.3802  0.4650  0.0148
  117OSM   H15A12239   0.734   5.343  11.138 -0.7565 -1.0322 -0.3324
  117OSM   H15B12240   0.583   5.319  11.217  0.5274  0.4270  0.2668
  117OSM   H15C12241   0.689   5.444  11.278 -0.1574  1.9784 -0.5513
  117OSM    C1412242   0.441   5.511  11.148 -0.1502 -0.4535  0.3145
  117OSM   H14A12243   0.384   5.565  11.073 -0.3694 -1.3091 -0.1539
  117OSM   H14B12244   0.434   5.562  11.242  1.7271  0.7464 -0.1357
  117OSM   H14C12245   0.400   5.411  11.158 -3.9525  0.4806 -3.1849
  117OSM    C1312246   0.651   5.624  11.125 -0.1142 -0.3966  0.2899
  117OSM   H13A12247   0.754   5.609  11.097  0.3110 -0.3488  1.7308
  117OSM   H13B12248   0.643   5.641  11.232  0.6891 -0.1259  0.3154
  117OSM   H13C12249   0.606   5.708  11.074 -1.7750 -2.3323 -1.5792
  117OSM    C1212250   0.581   5.454  10.958 -0.0315 -0.7911 -0.6198
  117OSM   H12A12251   0.513   5.519  10.906 -1.9471 -0.7505  1.7835
  117OSM   H12B12252   0.526   5.361  10.953 -0.1258 -0.7406 -0.5089
  117OSM    C1112253   0.713   5.432  10.889 -0.1404 -0.2150 -0.1837
  117OSM   H11A12254   0.779   5.518  10.915  0.8750 -0.8611 -0.5369
  117OSM   H11B12255   0.699   5.445  10.780 -1.5366 -0.7741 -0.0805
  117OSM      P12256   0.720   5.174  10.852  0.1492  0.2016  0.1650
  117OSM    O1312257   0.811   5.064  10.875  0.1326  1.0773 -0.0557
  117OSM    O1412258   0.589   5.152  10.913  0.1405 -0.7375  0.0163
  117OSM    O1112259   0.714   5.212  10.701  0.2063 -0.0944  0.4741
  117OSM    O1212260   0.775   5.305  10.922 -0.0831 -0.0972 -0.2732
  117OSM    C1S12261   0.839   5.200  10.625  0.2573  0.5460  0.1311
  117OSM    H1S12262   0.861   5.091  10.629 -2.0659 -0.0487 -1.1079
  117OSM    H1T12263   0.927   5.256  10.664  1.3620 -0.7540 -0.3885
  117OSM     NF12264   0.932   5.213  10.402  0.2113 -0.2202  0.4882
  117OSM    HNF12265   0.981   5.294  10.369  0.7867 -0.7255  0.1021
  117OSM    C2S12266   0.807   5.242  10.479 -0.3086  0.2279  0.6241
  117OSM    H2S12267   0.722   5.181  10.442  1.1189 -1.6384  0.2238
  117OSM    C3S12268   0.763   5.391  10.472 -0.1178  0.5236  0.7637
  117OSM    H3S12269   0.840   5.450  10.525 -0.4823  1.9798 -0.2779
  117OSM     O312270   0.647   5.416  10.550  0.4370  0.6101 -0.7034
  117OSM    HO312271   0.658   5.350  10.619 -1.4483  0.3117 -0.6302
  117OSM    C4S12272   0.744   5.437  10.330 -0.5266  0.4903  0.3462
  117OSM    H4S12273   0.834   5.480  10.282 -0.8759  1.3841  0.4610
  117OSM    C5S12274   0.628   5.451  10.266  0.1313 -0.2852 -0.0815
  117OSM    H5S12275   0.530   5.426  10.307  1.0187 -1.4223  1.4670
  117OSM    C6S12276   0.607   5.501  10.124  0.3661  0.1724 -0.2394
  117OSM    H6S12277   0.564   5.604  10.125 -0.9551 -0.3623  0.2862
  117OSM    H6T12278   0.537   5.437  10.067 -2.8368  0.7769  2.6643
  117OSM    C7S12279   0.733   5.523  10.043  0.3921  0.2175 -0.7694
  117OSM    H7S12280   0.795   5.431  10.052  1.4537  0.9351 -0.4614
  117OSM    H7T12281   0.801   5.606  10.070  1.7156 -0.4630 -1.8513
  117OSM    C8S12282   0.707   5.529   9.894 -0.4832  0.4190  0.6528
  117OSM    H8S12283   0.645   5.616   9.863 -0.1465  0.0546 -1.1318
  117OSM    H8T12284   0.672   5.429   9.861 -0.0983  0.7009 -0.6991
  117OSM    C9S12285   0.835   5.545   9.813 -0.3730 -0.2970 -0.9705
  117OSM    H9S12286   0.914   5.470   9.831 -1.9154 -1.5609  0.9796
  117OSM    H9T12287   0.872   5.646   9.838 -2.8081  0.4005  0.1393
  117OSM   C10S12288   0.794   5.553   9.667 -0.0281 -0.7931  0.6761
  117OSM   H10S12289   0.734   5.646   9.652  1.6134  0.6209  2.3825
  117OSM   H10T12290   0.722   5.472   9.646 -0.4300 -0.1691 -0.4570
  117OSM   C11S12291   0.915   5.550   9.567 -0.3171  0.0959  0.3690
  117OSM   H11S12292   0.969   5.455   9.590 -4.7437 -2.5902  0.8902
  117OSM   H11T12293   0.984   5.633   9.591 -1.8382  1.1846  1.1276
  117OSM   C12S12294   0.882   5.557   9.418  0.2947 -0.4016 -0.0387
  117OSM   H12S12295   0.846   5.662   9.416 -1.3443 -0.8576  2.1372
  117OSM   H12T12296   0.795   5.491   9.398 -0.4747 -0.5279  3.1561
  117OSM   C13S12297   0.998   5.534   9.325 -0.0064 -0.3520  0.0643
  117OSM   H13S12298   1.059   5.449   9.362 -0.3800  0.3583  2.5009
  117OSM   H13T12299   1.071   5.618   9.324  0.3451 -0.6554 -0.1620
  117OSM   C14S12300   0.954   5.517   9.177 -0.8055 -0.9644  0.8749
  117OSM   H14S12301   0.882   5.597   9.150 -1.6554 -2.2089 -0.7476
  117OSM   H14T12302   0.905   5.418   9.160  0.3446 -1.5003  0.5841
  117OSM   C15S12303   1.069   5.519   9.075 -0.2315 -1.1608 -0.5227
  117OSM   H15S12304   1.127   5.424   9.070  0.9026 -0.4385 -1.4072
  117OSM   H15T12305   1.139   5.599   9.105 -0.5520 -0.6137 -1.2049
  117OSM   C16S12306   1.002   5.539   8.938 -1.2244 -0.5292  0.5549
  117OSM   H16S12307   0.976   5.647   8.942  1.1852  0.0629  1.8376
  117OSM   H16T12308   0.911   5.476   8.934  1.4638 -4.9518  1.7665
  117OSM   C17S12309   1.112   5.527   8.818  0.5106 -0.1431 -0.2208
  117OSM   H17S12310   1.155   5.426   8.804  0.1621 -0.2261 -0.7279
  117OSM   H17T12311   1.185   5.608   8.841 -0.7068  1.3436 -1.3541
  117OSM   C18S12312   1.052   5.579   8.695 -0.0509 -0.3315  0.1613
  117OSM   H18S12313   1.132   5.585   8.618 -0.5900 -0.2907 -0.4095
  117OSM   H18T12314   1.017   5.683   8.716  0.1079  0.2006 -1.9810
  117OSM   H18U12315   0.961   5.533   8.649 -0.6615  0.3022  0.7004
  117OSM    C1F12316   0.978   5.095  10.373  0.0699  0.3186  0.3202
  117OSM     OF12317   0.918   4.991  10.391  0.0612  0.5186  0.5553
  117OSM    C2F12318   1.124   5.097  10.330  0.0258 -0.5873 -0.4476
  117OSM    H2F12319   1.174   5.088  10.429  1.1967  0.7307 -0.8796
  117OSM    H2G12320   1.155   5.197  10.291 -1.2617  1.5338  3.3558
  117OSM    C3F12321   1.165   4.992  10.227  0.4678 -0.4309 -0.4962
  117OSM    H3F12322   1.143   4.887  10.259 -1.0504 -0.6945 -2.2500
  117OSM    H3G12323   1.275   5.005  10.215 -0.0836  2.7484 -3.7802
  117OSM    C4F12324   1.088   5.015  10.097 -0.4769  0.8532  0.0488
  117OSM    H4F12325   1.122   5.110  10.048 -1.2639  1.1682  0.1082
  117OSM    H4G12326   0.980   5.018  10.119 -0.2921 -0.7267  1.3300
  117OSM    C5F12327   1.097   4.901   9.986 -0.0368  0.1750  0.3801
  117OSM    H5F12328   1.031   4.918   9.898  0.9484  0.4448 -0.3318
  117OSM    H5G12329   1.064   4.800  10.017  0.2290 -0.2866 -0.7926
  117OSM    C6F12330   1.231   4.898   9.913 -0.3021 -0.0433 -0.4894
  117OSM    H6F12331   1.312   4.911   9.987 -1.3007  0.4671  0.5487
  117OSM    H6G12332   1.236   4.988   9.849 -2.0370 -0.2851 -1.0256
  117OSM    C7F12333   1.241   4.773   9.829 -0.9223  0.3398  0.2263
  117OSM    H7F12334   1.152   4.759   9.764 -1.4866  1.2156  0.7782
  117OSM    H7G12335   1.240   4.685   9.897 -0.3018  1.9161  2.3872
  117OSM    C8F12336   1.378   4.766   9.755  0.1075 -0.0521  0.4772
  117OSM    H8F12337   1.457   4.786   9.830  1.6045  0.4087 -1.1630
  117OSM    H8G12338   1.386   4.852   9.685 -0.3110 -0.2400  0.1920
  117OSM    C9F12339   1.385   4.643   9.677 -0.0597  0.5613 -0.5693
  117OSM    H9F12340   1.448   4.562   9.717 -1.4720 -0.1958  0.2145
  117OSM   C10F12341   1.310   4.622   9.564  0.5548  0.0493  0.2407
  117OSM   H10F12342   1.332   4.531   9.506 -0.7297 -1.8772  2.6185
  117OSM   C11F12343   1.219   4.717   9.487 -0.0643  0.1981  0.0826
  117OSM   H11F12344   1.249   4.822   9.511  1.1462 -0.1212  0.0275
  117OSM   H11G12345   1.112   4.702   9.513  0.1231  0.3120  0.9626
  117OSM   C12F12346   1.231   4.707   9.332  0.4678  0.4146 -0.1898
  117OSM   H12F12347   1.160   4.777   9.283  1.7878  1.0093 -1.3380
  117OSM   H12G12348   1.180   4.610   9.309 -2.7827  1.0596  3.3217
  117OSM   C13F12349   1.377   4.716   9.284  0.5711 -0.0938 -0.1229
  117OSM   H13F12350   1.428   4.632   9.333 -2.1000 -1.6557  0.1982
  117OSM   H13G12351   1.414   4.812   9.325 -1.6843  1.3653 -1.2325
  117OSM   C14F12352   1.400   4.704   9.139 -0.3252 -0.5200 -0.0303
  117OSM   H14F12353   1.351   4.612   9.099  0.1637 -1.0359  0.5266
  117OSM   H14G12354   1.507   4.675   9.131  0.2128  1.4070 -0.1456
  117OSM   C15F12355   1.377   4.819   9.058 -0.6820 -0.6605 -0.8373
  117OSM   H15F12356   1.424   4.906   9.109  1.4918 -2.1930 -0.1244
  117OSM   H15G12357   1.267   4.836   9.064 -0.5153  0.5603 -0.9721
  117OSM   C16F12358   1.414   4.798   8.911 -0.5384  0.7410 -0.0696
  117OSM   H16F12359   1.352   4.716   8.870  1.5329  0.1088 -2.1368
  117OSM   H16G12360   1.516   4.752   8.912 -1.4513 -1.4524 -1.0714
  117OSM   C17F12361   1.398   4.929   8.830  0.8314  1.1868 -0.8948
  117OSM   H17F12362   1.426   4.924   8.722  1.0032  0.7045 -0.8302
  117OSM   H17G12363   1.448   5.006   8.891 -0.6446  1.2368  0.3251
  117OSM   C18F12364   1.251   4.971   8.815 -1.0097 -0.9824  0.0067
  117OSM   H18F12365   1.215   4.998   8.916  2.5048  1.1293  0.8605
  117OSM   H18G12366   1.188   4.899   8.758  0.3699 -1.7419 -0.6244
  117OSM   H18H12367   1.254   5.067   8.759 -1.0872  0.1012  1.8031
  118OSM      N12368   1.330   5.643  11.137  0.1171  0.1700 -0.2314
  118OSM    C1512369   1.236   5.717  11.231 -0.1003  0.0554  0.0123
  118OSM   H15A12370   1.208   5.813  11.190 -1.6538 -0.1088  0.6036
  118OSM   H15B12371   1.272   5.723  11.333 -0.8652  1.3831  0.2309
  118OSM   H15C12372   1.146   5.659  11.231  0.8910 -1.5414  0.3156
  118OSM    C1412373   1.467   5.708  11.147 -0.2099  0.0499 -0.3496
  118OSM   H14A12374   1.494   5.743  11.245 -3.7430  3.2087 -0.2560
  118OSM   H14B12375   1.459   5.805  11.098 -1.8212 -0.9348 -2.1524
  118OSM   H14C12376   1.537   5.648  11.091 -2.4049 -1.6125 -1.4721
  118OSM    C1312377   1.325   5.502  11.177  0.0710  0.0504  0.2276
  118OSM   H13A12378   1.347   5.487  11.282 -1.5933 -2.0702  0.3581
  118OSM   H13B12379   1.389   5.439  11.117  1.6266 -0.6192  2.4656
  118OSM   H13C12380   1.228   5.455  11.165  1.1297 -2.2388  0.0296
  118OSM    C1212381   1.287   5.653  10.992  0.5325  0.2947  0.0992
  118OSM   H12A12382   1.186   5.617  10.978  0.5234  0.9793 -1.8869
  118OSM   H12B12383   1.351   5.596  10.927  1.6836  2.5619 -0.8742
  118OSM    C1112384   1.284   5.795  10.934 -0.4659 -0.1471 -0.1176
  118OSM   H11A12385   1.225   5.856  11.007 -0.3110 -0.6806  0.4627
  118OSM   H11B12386   1.228   5.806  10.839  1.5669 -0.4652 -1.4094
  118OSM      P12387   1.431   6.003  10.925 -0.0553 -0.2368 -0.4768
  118OSM    O1312388   1.410   6.055  11.066  0.0339  0.7664 -0.1340
  118OSM    O1412389   1.561   6.034  10.856 -0.1002  0.4685 -0.0230
  118OSM    O1112390   1.311   6.059  10.843  0.2961 -0.4627  0.2401
  118OSM    O1212391   1.418   5.846  10.910 -0.2376  0.1078  0.2538
  118OSM    C1S12392   1.316   6.093  10.702  0.2363 -0.1097  0.0623
  118OSM    H1S12393   1.359   6.013  10.638  3.4688  0.7003  1.0411
  118OSM    H1T12394   1.373   6.188  10.693  0.3401 -0.1076  0.7541
  118OSM     NF12395   1.177   6.165  10.495  0.3030 -0.0553  0.5546
  118OSM    HNF12396   1.150   6.259  10.474 -0.8221  0.0770  2.2972
  118OSM    C2S12397   1.171   6.112  10.631 -0.3832  0.8285 -0.1932
  118OSM    H2S12398   1.120   6.013  10.634 -0.1874  0.7542  1.2787
  118OSM    C3S12399   1.078   6.195  10.720 -0.3369  0.6276  0.0195
  118OSM    H3S12400   1.113   6.299  10.736  0.6348  0.1979  0.7894
  118OSM     O312401   1.053   6.132  10.846  0.0648  0.4633 -0.3500
  118OSM    HO312402   1.132   6.080  10.864 -0.8838 -0.5988  0.9709
  118OSM    C4S12403   0.941   6.209  10.649 -0.3569  0.6592 -0.2750
  118OSM    H4S12404   0.872   6.126  10.666 -0.4266  0.3154 -2.0560
  118OSM    C5S12405   0.893   6.312  10.578  0.4082 -0.5165  0.0500
  118OSM    H5S12406   0.943   6.410  10.574 -0.9120  0.1323 -1.8628
  118OSM    C6S12407   0.753   6.294  10.519 -0.4780 -0.1893  0.2997
  118OSM    H6S12408   0.709   6.395  10.532  2.2911  1.3473 -1.3532
  118OSM    H6T12409   0.684   6.222  10.568 -0.7004  2.1300  3.7324
  118OSM    C7S12410   0.763   6.258  10.373 -0.0965 -0.0720  0.7722
  118OSM    H7S12411   0.662   6.247  10.327  0.0832 -1.7221  0.7049
  118OSM    H7T12412   0.803   6.155  10.359 -0.4106 -0.0773 -0.1765
  118OSM    C8S12413   0.834   6.363  10.274 -0.9497  0.1930  0.0025
  118OSM    H8S12414   0.926   6.404  10.319 -1.5832  2.6855 -0.7799
  118OSM    H8T12415   0.774   6.453  10.248 -1.3540  0.0132  0.3035
  118OSM    C9S12416   0.856   6.297  10.138  0.6883  0.2857  1.1453
  118OSM    H9S12417   0.754   6.277  10.097 -0.2012  1.9239  2.4459
  118OSM    H9T12418   0.911   6.202  10.157 -0.4603  0.1499  4.5286
  118OSM   C10S12419   0.944   6.391  10.053 -0.7461 -0.2519 -0.3822
  118OSM   H10S12420   1.048   6.393  10.094 -1.2579  0.2192  0.9732
  118OSM   H10T12421   0.908   6.496  10.047 -2.0862 -0.7671 -2.0559
  118OSM   C11S12422   0.962   6.331   9.914 -0.5892  0.0114  0.0274
  118OSM   H11S12423   0.864   6.338   9.860  0.3758 -1.0720 -1.9709
  118OSM   H11T12424   0.994   6.225   9.924  0.8450  0.2517 -1.5285
  118OSM   C12S12425   1.063   6.406   9.825  0.3615  0.2305 -0.2315
  118OSM   H12S12426   1.165   6.416   9.868  0.1722 -0.5057  0.4056
  118OSM   H12T12427   1.016   6.506   9.823 -2.5604 -0.9559  2.0236
  118OSM   C13S12428   1.079   6.367   9.679 -0.0787  0.1763  0.2211
  118OSM   H13S12429   0.979   6.355   9.634 -0.4139 -0.1246  1.0306
  118OSM   H13T12430   1.126   6.266   9.685  2.1439  1.1481  0.1778
  118OSM   C14S12431   1.167   6.460   9.593 -0.0353 -0.1056  0.2262
  118OSM   H14S12432   1.261   6.488   9.644  0.7766 -3.4022  0.7412
  118OSM   H14T12433   1.097   6.546   9.580  2.5658  2.3602  1.2692
  118OSM   C15S12434   1.192   6.404   9.458 -0.3275 -0.0820 -0.0235
  118OSM   H15S12435   1.105   6.391   9.391  0.3030 -2.1638 -0.5054
  118OSM   H15T12436   1.241   6.307   9.478  1.3120  0.6453 -0.3171
  118OSM   C16S12437   1.287   6.496   9.369  0.5389 -0.4212 -0.3039
  118OSM   H16S12438   1.378   6.508   9.431 -0.2299 -1.9786  1.2172
  118OSM   H16T12439   1.241   6.597   9.359 -1.5085 -1.2635  0.1099
  118OSM   C17S12440   1.312   6.427   9.238 -0.9915 -0.0209  0.0168
  118OSM   H17S12441   1.357   6.326   9.246 -0.9591 -0.3762 -3.3346
  118OSM   H17T12442   1.387   6.497   9.194 -0.5023  0.2618  1.2494
  118OSM   C18S12443   1.188   6.423   9.149  0.6243 -0.3203  0.4413
  118OSM   H18S12444   1.212   6.393   9.045 -0.6090 -1.3517  0.4310
  118OSM   H18T12445   1.152   6.528   9.149  1.2229 -0.1043  0.7211
  118OSM   H18U12446   1.103   6.361   9.182  0.5775 -1.8513 -2.2789
  118OSM    C1F12447   1.214   6.097  10.393 -0.1685  0.3150  0.3121
  118OSM     OF12448   1.263   5.985  10.410 -0.0168 -0.2587 -0.4931
  118OSM    C2F12449   1.206   6.168  10.262  0.0107  0.2141  0.0314
  118OSM    H2F12450   1.225   6.277  10.269  0.7646  0.0358  1.0049
  118OSM    H2G12451   1.106   6.156  10.214 -0.5408  1.3154  0.8834
  118OSM    C3F12452   1.323   6.122  10.174 -0.4289  0.6065 -0.1883
  118OSM    H3F12453   1.315   6.012  10.159  1.5378  0.5243 -0.9511
  118OSM    H3G12454   1.422   6.146  10.217 -0.3865 -0.6645  0.4591
  118OSM    C4F12455   1.322   6.201  10.041 -0.0045  0.6114 -0.0100
  118OSM    H4F12456   1.310   6.307  10.070 -0.4561  0.6173 -0.2120
  118OSM    H4G12457   1.234   6.176   9.979  0.5906 -0.6500 -0.3770
  118OSM    C5F12458   1.446   6.181   9.955 -0.4591 -0.0198  0.3786
  118OSM    H5F12459   1.468   6.073   9.940 -1.8726 -0.0167 -2.3373
  118OSM    H5G12460   1.531   6.237   9.999 -2.1286  1.5741  1.7065
  118OSM    C6F12461   1.413   6.227   9.811  0.0536  0.4783 -0.0141
  118OSM    H6F12462   1.406   6.337   9.796  2.6253  0.7418  0.1691
  118OSM    H6G12463   1.314   6.197   9.772  0.3637  0.1891 -0.6033
  118OSM    C7F12464   1.531   6.202   9.710  0.0667  0.1337 -0.1508
  118OSM    H7F12465   1.560   6.096   9.729 -0.1737  0.1938  0.6026
  118OSM    H7G12466   1.609   6.274   9.745  0.9865 -2.1917  3.1779
  118OSM    C8F12467   1.509   6.232   9.564  0.1954 -0.0104 -0.0833
  118OSM    H8F12468   1.484   6.341   9.565 -5.4274 -0.9799 -0.5282
  118OSM    H8G12469   1.421   6.179   9.521  0.7088 -0.1533 -0.9749
  118OSM    C9F12470   1.646   6.208   9.501 -0.5753 -0.2267 -0.0556
  118OSM    H9F12471   1.735   6.233   9.561 -1.4396  1.3948  0.6314
  118OSM   C10F12472   1.660   6.147   9.386 -0.2885  0.1097  0.5757
  118OSM   H10F12473   1.760   6.158   9.341  0.6358 -0.0606  2.4806
  118OSM   C11F12474   1.557   6.087   9.299  0.0152 -0.3064 -0.1828
  118OSM   H11F12475   1.458   6.127   9.329  0.9607  0.7794  1.6704
  118OSM   H11G12476   1.552   5.977   9.314  0.9992 -0.1805  1.2980
  118OSM   C12F12477   1.578   6.118   9.153  0.8627 -0.1240  0.1594
  118OSM   H12F12478   1.660   6.053   9.116  0.4846  0.8891 -2.6869
  118OSM   H12G12479   1.611   6.224   9.141 -1.5909  0.7745  0.8468
  118OSM   C13F12480   1.443   6.103   9.073 -0.8665  0.2840 -0.2667
  118OSM   H13F12481   1.354   6.166   9.097  0.0207  1.1908  0.7281
  118OSM   H13G12482   1.418   5.996   9.092  1.1871 -0.0627  0.8333
  118OSM   C14F12483   1.462   6.121   8.927  0.4840 -0.3245  0.1354
  118OSM   H14F12484   1.535   6.050   8.881 -0.6219 -2.8303  2.0056
  118OSM   H14G12485   1.498   6.225   8.914 -0.3288  0.0403  0.7139
  118OSM   C15F12486   1.325   6.107   8.846 -0.1164 -0.5173  0.2533
  118OSM   H15F12487   1.283   6.209   8.852  0.2080 -0.3665 -0.0010
  118OSM   H15G12488   1.261   6.033   8.898 -0.4547 -0.0815  0.4542
  118OSM   C16F12489   1.350   6.070   8.696  0.7719 -0.0652 -0.0195
  118OSM   H16F12490   1.405   5.975   8.679  3.2080  1.4809 -1.3730
  118OSM   H16G12491   1.430   6.144   8.673 -0.3704  1.6100  1.1645
  118OSM   C17F12492   1.235   6.065   8.595 -0.5142 -0.6863 -0.2887
  118OSM   H17F12493   1.275   6.061   8.492 -0.7764  0.2293 -0.4302
  118OSM   H17G12494   1.160   6.147   8.606 -1.3303 -1.6474  1.8986
  118OSM   C18F12495   1.158   5.938   8.626  0.4797 -0.2338 -0.6251
  118OSM   H18F12496   1.078   5.945   8.549  1.3202  4.3428 -1.3707
  118OSM   H18G12497   1.107   5.932   8.725 -0.3085  0.6231 -0.9653
  118OSM   H18H12498   1.226   5.851   8.614 -0.3455 -0.7761 -1.6156
  119OSM      N12499   2.543   4.920  11.083  0.4015 -0.3341 -0.1338
  119OSM    C1512500   2.417   4.956  11.147 -0.2209  0.3354  0.6856
  119OSM   H15A12501   2.343   4.937  11.070  1.3163 -1.3656 -0.4451
  119OSM   H15B12502   2.408   5.056  11.189  0.5399  0.6044  0.2248
  119OSM   H15C12503   2.392   4.889  11.228 -1.6889  2.1297  1.8185
  119OSM    C1412504   2.653   4.943  11.180 -0.2452 -0.3660 -0.0277
  119OSM   H14A12505   2.642   4.870  11.259  0.3342 -0.9186 -0.4527
  119OSM   H14B12506   2.650   5.044  11.219 -1.3121  0.0159 -1.0768
  119OSM   H14C12507   2.751   4.935  11.135 -0.5586 -0.3927 -0.7130
  119OSM    C1312508   2.548   4.770  11.059 -0.8037  0.0076  0.6075
  119OSM   H13A12509   2.538   4.709  11.148 -2.0415 -1.8061 -0.6836
  119OSM   H13B12510   2.646   4.744  11.021 -0.2701  3.4349 -0.7500
  119OSM   H13C12511   2.468   4.735  10.995 -0.5318  0.4678 -0.0014
  119OSM    C1212512   2.543   4.994  10.956 -0.5011 -0.0785  0.7398
  119OSM   H12A12513   2.548   5.100  10.975  2.0382  0.0409 -0.2116
  119OSM   H12B12514   2.449   4.983  10.906  0.3108 -2.1343 -0.4338
  119OSM    C1112515   2.666   4.959  10.851 -0.0559  0.0426  0.6670
  119OSM   H11A12516   2.646   5.031  10.770 -2.6664 -2.5192 -1.1895
  119OSM   H11B12517   2.643   4.862  10.802 -0.9848  0.0310  1.0895
  119OSM      P12518   2.912   4.852  10.873 -0.1372  0.3563  0.1536
  119OSM    O1312519   3.043   4.911  10.907 -0.5639  0.0495 -0.2273
  119OSM    O1412520   2.870   4.723  10.943 -0.9467 -0.6119  0.0053
  119OSM    O1112521   2.896   4.828  10.718  0.1820 -0.4259 -1.3971
  119OSM    O1212522   2.796   4.961  10.900  0.3449  0.1930  0.3217
  119OSM    C1S12523   2.921   4.938  10.635  0.1673  0.2134 -0.4480
  119OSM    H1S12524   3.023   4.980  10.651  0.2700 -0.0455 -0.4087
  119OSM    H1T12525   2.842   5.015  10.641  1.3163  1.3512  0.6278
  119OSM     NF12526   2.988   4.991  10.404 -0.0543  0.1320  0.8070
  119OSM    HNF12527   2.932   5.030  10.332  1.0725 -4.8889 -3.4319
  119OSM    C2S12528   2.926   4.890  10.490  0.3201 -0.3189 -0.0783
  119OSM    H2S12529   2.994   4.804  10.476  0.3242  0.0668 -3.3594
  119OSM    C3S12530   2.777   4.851  10.448 -0.2984 -0.3007  0.0649
  119OSM    H3S12531   2.721   4.947  10.441 -0.5680 -0.5679 -2.1259
  119OSM     O312532   2.705   4.763  10.538 -0.0739 -0.3211  0.2726
  119OSM    HO312533   2.749   4.763  10.623  1.2202 -1.4136 -0.3667
  119OSM    C4S12534   2.780   4.807  10.310 -0.2784 -0.2715 -0.2216
  119OSM    H4S12535   2.859   4.734  10.287  1.2477  1.2878 -0.0708
  119OSM    C5S12536   2.691   4.843  10.214  0.0590  0.1374 -0.2981
  119OSM    H5S12537   2.608   4.913  10.232  0.1880  0.7102 -1.7960
  119OSM    C6S12538   2.707   4.794  10.076 -0.3719  0.3822 -0.6602
  119OSM    H6S12539   2.616   4.830  10.023 -1.0254  0.8701  0.7475
  119OSM    H6T12540   2.707   4.683  10.079  1.0923  0.3603  1.8381
  119OSM    C7S12541   2.843   4.847  10.014 -0.1264 -0.1412  0.1300
  119OSM    H7S12542   2.928   4.795  10.063  0.8121  1.2324  0.0058
  119OSM    H7T12543   2.846   4.954  10.045  1.6129  0.1045 -0.7655
  119OSM    C8S12544   2.851   4.836   9.863 -0.1077  0.0880 -0.2026
  119OSM    H8S12545   2.833   4.729   9.840 -0.2988  0.1375 -0.2849
  119OSM    H8T12546   2.959   4.854   9.845  0.0288 -1.2140 -0.7856
  119OSM    C9S12547   2.762   4.933   9.790  0.1983 -0.1859  0.1858
  119OSM    H9S12548   2.767   5.038   9.825  1.9466  0.1443 -0.9461
  119OSM    H9T12549   2.659   4.901   9.817  0.4118 -0.1305  1.1244
  119OSM   C10S12550   2.773   4.925   9.640 -0.4821 -0.3181 -0.2306
  119OSM   H10S12551   2.875   4.961   9.612 -0.7326  1.1358  0.6490
  119OSM   H10T12552   2.710   5.008   9.603  2.1406  1.4895 -0.9831
  119OSM   C11S12553   2.725   4.791   9.576 -0.2758 -0.6018 -0.5403
  119OSM   H11S12554   2.620   4.782   9.610 -0.1040  0.7792  0.4416
  119OSM   H11T12555   2.781   4.706   9.622  0.6608  0.4709  0.3515
  119OSM   C12S12556   2.721   4.796   9.428  0.0397 -0.4846  0.6860
  119OSM   H12S12557   2.825   4.801   9.389 -0.2935 -0.8733 -0.3032
  119OSM   H12T12558   2.675   4.889   9.390  0.0576 -0.9986 -0.6713
  119OSM   C13S12559   2.650   4.675   9.367  0.0033  0.6839  0.6253
  119OSM   H13S12560   2.541   4.697   9.368 -0.7123 -2.4208  0.3336
  119OSM   H13T12561   2.675   4.593   9.437  0.0589 -0.2752 -0.4973
  119OSM   C14S12562   2.699   4.622   9.229  0.6086 -0.4703 -0.1154
  119OSM   H14S12563   2.656   4.522   9.208  0.6502  0.1361 -4.0069
  119OSM   H14T12564   2.809   4.606   9.235  1.0349  2.3378  1.3500
  119OSM   C15S12565   2.666   4.716   9.115 -0.6299 -0.0849  0.2714
  119OSM   H15S12566   2.701   4.818   9.144 -1.3163 -0.5289  2.9489
  119OSM   H15T12567   2.555   4.719   9.107 -0.6582  0.4514  0.7818
  119OSM   C16S12568   2.725   4.673   8.980 -0.6407 -0.0164  0.3752
  119OSM   H16S12569   2.836   4.673   8.986 -0.5147  1.9886 -0.9644
  119OSM   H16T12570   2.708   4.755   8.907 -0.4238 -1.7004 -1.6544
  119OSM   C17S12571   2.675   4.543   8.925  0.4062  0.6647  0.4331
  119OSM   H17S12572   2.582   4.573   8.873 -0.0485  0.0396  0.8629
  119OSM   H17T12573   2.654   4.473   9.008  0.0250  1.0272  0.6407
  119OSM   C18S12574   2.778   4.482   8.829  0.3678  0.1063 -0.1247
  119OSM   H18S12575   2.868   4.457   8.889  1.3870  1.4281 -1.0481
  119OSM   H18T12576   2.795   4.560   8.752 -1.0997  0.7612  0.1807
  119OSM   H18U12577   2.733   4.397   8.774 -0.5452  0.5091 -0.0136
  119OSM    C1F12578   3.122   5.013  10.394  0.4302  0.1478  0.2123
  119OSM     OF12579   3.214   4.945  10.435  0.1019  0.0905 -0.4747
  119OSM    C2F12580   3.152   5.127  10.299  0.1931  0.0106 -0.0266
  119OSM    H2F12581   3.206   5.207  10.354 -0.8008  2.3129 -2.2242
  119OSM    H2G12582   3.051   5.173  10.292  0.2315  0.2105  0.6647
  119OSM    C3F12583   3.211   5.094  10.163 -0.1626  0.1044  0.5767
  119OSM    H3F12584   3.167   5.001  10.122  1.5726  0.4883 -2.4701
  119OSM    H3G12585   3.320   5.073  10.172 -0.2802 -0.0227  1.8245
  119OSM    C4F12586   3.162   5.180  10.048 -0.0696  0.1746  0.3460
  119OSM    H4F12587   3.168   5.289  10.072  1.1960 -0.2594  2.2447
  119OSM    H4G12588   3.057   5.150  10.032 -0.1029  0.2142  0.4863
  119OSM    C5F12589   3.236   5.147   9.919 -0.2070 -0.1520 -0.2968
  119OSM    H5F12590   3.250   5.038   9.900 -1.0327 -0.1875 -0.7473
  119OSM    H5G12591   3.333   5.199   9.930 -1.3966  1.8798  1.3659
  119OSM    C6F12592   3.157   5.195   9.797  0.2573 -0.0434 -0.9104
  119OSM    H6F12593   3.134   5.304   9.805 -1.0097 -0.3144 -0.7428
  119OSM    H6G12594   3.059   5.145   9.811 -1.0511  2.2490 -1.3474
  119OSM    C7F12595   3.214   5.154   9.666 -0.0727  0.1768  0.5667
  119OSM    H7F12596   3.230   5.045   9.656 -1.1857  0.0674 -0.1875
  119OSM    H7G12597   3.312   5.207   9.664  0.9792 -1.7282 -0.6604
  119OSM    C8F12598   3.137   5.199   9.543  1.1165  0.2083  0.1607
  119OSM    H8F12599   3.119   5.308   9.537  0.6713  0.1729  0.8012
  119OSM    H8G12600   3.037   5.151   9.554  0.5684  1.3100  0.0900
  119OSM    C9F12601   3.209   5.170   9.417  0.4445  1.4368 -0.0726
  119OSM    H9F12602   3.295   5.235   9.394  1.3644  0.4695  0.5597
  119OSM   C10F12603   3.182   5.067   9.329 -0.2947 -0.0077  0.8641
  119OSM   H10F12604   3.248   5.051   9.243 -1.5908 -0.1039 -0.1448
  119OSM   C11F12605   3.082   4.960   9.337  0.3720  0.4537 -0.2040
  119OSM   H11F12606   2.985   5.002   9.370  2.0023  2.9704  1.7364
  119OSM   H11G12607   3.125   4.889   9.411 -0.0689  0.5805  0.1734
  119OSM   C12F12608   3.061   4.909   9.198  0.5980  0.2611 -0.3130
  119OSM   H12F12609   3.037   4.992   9.128  0.3651 -0.5590 -1.2327
  119OSM   H12G12610   2.967   4.851   9.207  1.0014 -0.8938 -2.6407
  119OSM   C13F12611   3.167   4.820   9.135  0.3217  0.2915 -0.2803
  119OSM   H13F12612   3.176   4.732   9.201  1.9901 -0.2973 -1.2219
  119OSM   H13G12613   3.265   4.873   9.137  1.4430 -1.4168 -3.3265
  119OSM   C14F12614   3.155   4.785   8.981  0.4535  0.5840 -0.1914
  119OSM   H14F12615   3.160   4.873   8.915 -0.3991  0.4503 -0.4456
  119OSM   H14G12616   3.058   4.732   8.974  1.0594 -0.5579 -0.3282
  119OSM   C15F12617   3.268   4.689   8.940  0.4067  0.2779  0.8979
  119OSM   H15F12618   3.251   4.588   8.984 -1.2934  0.5849  1.0193
  119OSM   H15G12619   3.364   4.735   8.972  0.8344  1.3748 -1.7451
  119OSM   C16F12620   3.273   4.657   8.791 -0.1100 -0.1603  0.1105
  119OSM   H16F12621   3.278   4.755   8.741 -0.7094 -0.3350 -0.3060
  119OSM   H16G12622   3.177   4.622   8.747  0.0661 -0.2527 -0.2035
  119OSM   C17F12623   3.387   4.558   8.758 -0.4982  0.3261  0.4691
  119OSM   H17F12624   3.369   4.464   8.814 -0.2672 -0.3352 -0.5469
  119OSM   H17G12625   3.484   4.599   8.796 -0.5069 -0.1873  1.0510
  119OSM   C18F12626   3.417   4.511   8.613 -0.4475  0.5597  1.1892
  119OSM   H18F12627   3.430   4.593   8.539  3.7059 -1.2914 -0.4818
  119OSM   H18G12628   3.331   4.444   8.592  0.0763 -0.0240  0.8585
  119OSM   H18H12629   3.505   4.447   8.590 -0.3514  1.4609 -1.2735
  120OSM      N12630   1.059   1.765  10.734  0.0995 -0.4244  0.1857
  120OSM    C1512631   0.941   1.764  10.651  0.6174 -0.1488 -0.5248
  120OSM   H15A12632   0.942   1.674  10.591 -0.4878 -0.9604  0.6242
  120OSM   H15B12633   0.943   1.844  10.579 -0.2431 -0.4299 -0.8787
  120OSM   H15C12634   0.850   1.774  10.708  1.8169  3.1602  1.0044
  120OSM    C1412635   1.047   1.880  10.822  0.8178 -0.0827 -0.6383
  120OSM   H14A12636   0.964   1.875  10.890  0.5425  2.0988 -0.7458
  120OSM   H14B12637   1.048   1.967  10.759  0.5068 -0.7341 -1.5723
  120OSM   H14C12638   1.135   1.891  10.884 -0.4196  1.7308  0.9119
  120OSM    C1312639   1.072   1.643  10.814 -0.0181  0.1721  0.2464
  120OSM   H13A12640   1.159   1.641  10.877  0.6641  0.5308 -0.6543
  120OSM   H13B12641   1.062   1.554  10.753  1.6542 -0.2926  0.5966
  120OSM   H13C12642   0.996   1.642  10.890  0.7167  1.8163  1.0497
  120OSM    C1212643   1.166   1.782  10.629 -0.2423 -0.3873  0.2568
  120OSM   H12A12644   1.163   1.706  10.553 -0.5483 -0.4524  0.3338
  120OSM   H12B12645   1.261   1.778  10.681  0.2174  1.6472 -0.3252
  120OSM    C1112646   1.173   1.919  10.545  0.0182 -0.2244 -0.0828
  120OSM   H11A12647   1.066   1.942  10.526  0.6598  1.3562 -2.2480
  120OSM   H11B12648   1.216   1.890  10.447 -1.8265 -0.8267 -0.7600
  120OSM      P12649   1.386   2.027  10.654 -0.0663  0.1669  0.1353
  120OSM    O1312650   1.410   2.137  10.753 -0.3686 -0.0608  0.5973
  120OSM    O1412651   1.431   1.891  10.698 -0.3184  0.2645  0.3677
  120OSM    O1112652   1.453   2.062  10.513 -0.1619  0.5213 -0.2858
  120OSM    O1212653   1.233   2.015  10.622 -0.1924 -0.6485  0.5989
  120OSM    C1S12654   1.388   2.167  10.441 -0.1972  0.0312  0.1569
  120OSM    H1S12655   1.415   2.262  10.490 -0.2002  0.9705 -1.5765
  120OSM    H1T12656   1.278   2.150  10.431  0.1451 -1.5791 -1.7121
  120OSM     NF12657   1.349   2.291  10.224  0.7908 -0.1677  0.2024
  120OSM    HNF12658   1.250   2.279  10.210  0.8439 -1.0613  0.5280
  120OSM    C2S12659   1.419   2.176  10.284 -0.3106 -0.1459 -0.0362
  120OSM    H2S12660   1.528   2.187  10.264 -0.3994 -0.7617 -0.9049
  120OSM    C3S12661   1.373   2.047  10.214  1.0123  0.3169  0.5909
  120OSM    H3S12662   1.262   2.040  10.212  1.1049 -1.4133 -0.3697
  120OSM     O312663   1.416   1.926  10.279  0.5613  0.0311  0.5201
  120OSM    HO312664   1.457   1.953  10.361  0.0395 -1.8423  1.4637
  120OSM    C4S12665   1.420   2.053  10.074  0.0530  0.3365  1.0943
  120OSM    H4S12666   1.349   2.078   9.993  1.8132 -2.0798 -1.3900
  120OSM    C5S12667   1.537   2.010  10.024 -0.1048 -0.9488 -0.3137
  120OSM    H5S12668   1.608   1.966  10.096  0.5806  0.6634  0.0508
  120OSM    C6S12669   1.594   2.024   9.886 -0.2123  0.6382 -0.4478
  120OSM    H6S12670   1.588   1.922   9.841  0.5602  0.9352 -1.2543
  120OSM    H6T12671   1.700   2.053   9.897  0.5182 -2.0417  0.2956
  120OSM    C7S12672   1.515   2.114   9.788  0.3782  0.1915 -0.2828
  120OSM    H7S12673   1.524   2.221   9.818  1.3976 -0.2699  1.2359
  120OSM    H7T12674   1.406   2.096   9.784  0.3081  0.3793  0.4670
  120OSM    C8S12675   1.572   2.121   9.641  0.9675  0.7574 -0.4131
  120OSM    H8S12676   1.602   2.017   9.612 -1.5330 -0.3255  0.5968
  120OSM    H8T12677   1.664   2.183   9.644  0.3930  1.5788  1.6240
  120OSM    C9S12678   1.464   2.175   9.543 -0.4360 -0.4099 -0.1092
  120OSM    H9S12679   1.438   2.279   9.571 -1.0000 -0.3218 -0.9447
  120OSM    H9T12680   1.372   2.114   9.553 -1.1766  1.0477  3.5375
  120OSM   C10S12681   1.523   2.192   9.404  0.8928 -0.4657  0.4757
  120OSM   H10S12682   1.559   2.096   9.362  2.0600  0.9556 -2.0470
  120OSM   H10T12683   1.614   2.256   9.406  0.8773 -0.4458  0.5416
  120OSM   C11S12684   1.427   2.263   9.305 -0.7457  0.4039  0.1256
  120OSM   H11S12685   1.391   2.364   9.333  0.8639  1.3387 -0.9997
  120OSM   H11T12686   1.336   2.199   9.299 -0.1773 -0.8908  3.2682
  120OSM   C12S12687   1.486   2.262   9.168 -0.1843 -0.5448  0.7212
  120OSM   H12S12688   1.506   2.157   9.139  1.5469 -0.2792  0.8481
  120OSM   H12T12689   1.579   2.323   9.166 -0.5350  0.0492 -2.2904
  120OSM   C13S12690   1.385   2.328   9.066 -0.0669  0.3459  0.0749
  120OSM   H13S12691   1.420   2.433   9.054  0.7753  0.0616  0.0056
  120OSM   H13T12692   1.285   2.328   9.115 -0.2527  0.4755 -0.3012
  120OSM   C14S12693   1.384   2.267   8.931 -0.4665 -0.0302  0.3108
  120OSM   H14S12694   1.337   2.166   8.935  0.0381 -0.2471  1.0020
  120OSM   H14T12695   1.490   2.242   8.908 -0.3809  0.3054  0.3471
  120OSM   C15S12696   1.346   2.367   8.823  0.5245 -0.0142  1.2878
  120OSM   H15S12697   1.424   2.446   8.815  0.4477 -0.0507 -0.0485
  120OSM   H15T12698   1.246   2.414   8.839 -0.7291 -2.1014  0.0165
  120OSM   C16S12699   1.343   2.297   8.687 -0.3844  0.2228 -0.1860
  120OSM   H16S12700   1.317   2.365   8.603  0.8633  0.4430 -0.4085
  120OSM   H16T12701   1.258   2.226   8.696  1.7481 -2.2682  2.5782
  120OSM   C17S12702   1.464   2.219   8.636  0.1371 -0.1095 -0.2953
  120OSM   H17S12703   1.466   2.123   8.692  0.9562 -0.9766 -1.7658
  120OSM   H17T12704   1.554   2.281   8.655 -0.5190  0.2114  2.1245
  120OSM   C18S12705   1.461   2.189   8.488  0.7130 -0.6963 -0.3150
  120OSM   H18S12706   1.454   2.291   8.445  3.5784  0.6231  1.9298
  120OSM   H18T12707   1.376   2.128   8.452 -0.6231  2.2027 -2.4762
  120OSM   H18U12708   1.556   2.147   8.450  1.8305 -0.0027  1.5292
  120OSM    C1F12709   1.388   2.417  10.242  0.2139  0.2627 -0.2031
  120OSM     OF12710   1.501   2.447  10.281  0.1014  0.0394 -0.4231
  120OSM    C2F12711   1.289   2.525  10.220 -0.6889 -0.1774  0.0995
  120OSM    H2F12712   1.298   2.591  10.309  1.6649 -3.3630  2.4685
  120OSM    H2G12713   1.184   2.488  10.224 -0.4462 -0.7827  1.5370
  120OSM    C3F12714   1.317   2.602  10.092 -0.6736  0.5267  1.4692
  120OSM    H3F12715   1.415   2.654  10.104  1.5104 -2.5674 -1.1418
  120OSM    H3G12716   1.237   2.679  10.093  1.5893  3.2073 -1.7234
  120OSM    C4F12717   1.313   2.528   9.956 -0.2363 -0.5786 -0.1057
  120OSM    H4F12718   1.230   2.455   9.947 -1.2993  0.7119 -1.1040
  120OSM    H4G12719   1.408   2.474   9.933  0.3676  1.0820 -1.7064
  120OSM    C5F12720   1.313   2.625   9.826 -0.8242  0.7281 -0.7228
  120OSM    H5F12721   1.371   2.571   9.749  0.0144 -0.6242  0.7894
  120OSM    H5G12722   1.370   2.717   9.849  0.5327  0.3337 -2.2869
  120OSM    C6F12723   1.172   2.658   9.779 -0.7794 -0.3350  0.2179
  120OSM    H6F12724   1.133   2.741   9.841 -0.4737  0.8186 -1.0710
  120OSM    H6G12725   1.112   2.566   9.795  0.2645 -1.0813  0.0268
  120OSM    C7F12726   1.174   2.705   9.630  0.9784 -0.1888  0.2920
  120OSM    H7F12727   1.234   2.631   9.573  3.0693  0.2176  1.8674
  120OSM    H7G12728   1.227   2.800   9.607 -0.4107  0.9272  1.5104
  120OSM    C8F12729   1.031   2.721   9.579 -0.2746  0.2728 -0.0711
  120OSM    H8F12730   0.953   2.652   9.618 -0.2919  0.7711  0.7877
  120OSM    H8G12731   1.028   2.697   9.471  1.2157  2.2748 -0.6061
  120OSM    C9F12732   0.981   2.858   9.600 -1.1796 -0.6575  0.3248
  120OSM    H9F12733   1.050   2.918   9.662 -0.6084 -0.5000 -0.4626
  120OSM   C10F12734   0.880   2.927   9.539  0.1649 -0.3900 -1.1071
  120OSM   H10F12735   0.862   3.029   9.576  0.4305 -1.0339  0.9300
  120OSM   C11F12736   0.781   2.890   9.433  0.2137  0.4354 -0.0348
  120OSM   H11F12737   0.682   2.935   9.453 -0.3235 -0.7776  0.1364
  120OSM   H11G12738   0.746   2.784   9.436 -1.3307  0.9249  0.2013
  120OSM   C12F12739   0.819   2.919   9.285  0.1959 -0.5204  0.2552
  120OSM   H12F12740   0.918   2.875   9.259  0.2386  0.1146 -0.7345
  120OSM   H12G12741   0.833   3.029   9.279 -1.0968 -0.3784 -0.6435
  120OSM   C13F12742   0.711   2.878   9.180 -0.1543 -0.1495  0.1085
  120OSM   H13F12743   0.614   2.930   9.197  0.3077  0.8217 -0.1667
  120OSM   H13G12744   0.698   2.771   9.208  0.3068 -0.2845 -0.1785
  120OSM   C14F12745   0.742   2.885   9.030 -0.2917 -0.5136 -0.5299
  120OSM   H14F12746   0.826   2.819   8.999 -0.4257 -1.4043  0.8743
  120OSM   H14G12747   0.757   2.992   9.007 -2.9480  0.0545  0.0096
  120OSM   C15F12748   0.628   2.838   8.938  0.8786 -0.4222  0.3138
  120OSM   H15F12749   0.534   2.889   8.966  1.3624  1.6212 -1.5272
  120OSM   H15G12750   0.615   2.729   8.956  0.0001 -0.4553 -0.4551
  120OSM   C16F12751   0.648   2.852   8.789 -0.0379 -0.2191 -0.0636
  120OSM   H16F12752   0.573   2.788   8.739 -0.6764  0.0631  0.5194
  120OSM   H16G12753   0.749   2.812   8.766 -0.2414  0.3839 -2.2375
  120OSM   C17F12754   0.629   2.997   8.742 -0.1798  0.2470  0.4922
  120OSM   H17F12755   0.687   3.071   8.802 -0.8222  0.9297  0.2833
  120OSM   H17G12756   0.522   3.023   8.760 -0.4270 -1.2235  1.2794
  120OSM   C18F12757   0.653   3.011   8.590  0.1836  0.3272 -0.6399
  120OSM   H18F12758   0.602   2.929   8.534 -0.8305  0.3783  0.1766
  120OSM   H18G12759   0.760   3.007   8.559 -0.6120  1.3539 -3.9659
  120OSM   H18H12760   0.612   3.104   8.545  0.2017 -0.3968 -2.2102
  121OSM      N12761   6.440   5.412  10.929 -0.7565  0.3911 -0.1541
  121OSM    C1512762   6.334   5.325  10.871 -0.1614 -0.0388  0.5064
  121OSM   H15A12763   6.366   5.230  10.830  0.4476  0.8279 -1.1231
  121OSM   H15B12764   6.283   5.377  10.790 -2.8715  0.2503  2.2635
  121OSM   H15C12765   6.277   5.288  10.954  0.0872  0.8850  1.0954
  121OSM    C1412766   6.387   5.539  10.984  0.0054 -0.4263 -0.2063
  121OSM   H14A12767   6.318   5.596  10.923  0.0327 -0.2371 -0.0612
  121OSM   H14B12768   6.461   5.612  11.011  2.4552 -2.4058 -1.1776
  121OSM   H14C12769   6.324   5.517  11.069  1.2341  1.6897  1.3609
  121OSM    C1312770   6.497   5.335  11.045 -0.1463 -0.0628  0.4942
  121OSM   H13A12771   6.523   5.234  11.017 -0.5926 -0.4119  1.2891
  121OSM   H13B12772   6.414   5.315  11.111 -1.1061  0.8079 -0.4315
  121OSM   H13C12773   6.578   5.381  11.099 -0.8521  1.3722  0.3555
  121OSM    C1212774   6.553   5.431  10.821 -0.3312 -0.6343  0.2605
  121OSM   H12A12775   6.516   5.495  10.742 -2.6403 -3.4515 -1.1572
  121OSM   H12B12776   6.570   5.334  10.776  1.1188  0.0294 -0.7045
  121OSM    C1112777   6.679   5.504  10.882 -0.0048  0.0304  0.2071
  121OSM   H11A12778   6.642   5.582  10.952 -1.4767  0.6571 -1.2094
  121OSM   H11B12779   6.732   5.548  10.795 -0.2422 -1.9088 -0.9835
  121OSM      P12780   6.899   5.463  11.007  0.1199 -0.0248  0.0462
  121OSM    O1312781   6.868   5.583  11.090  0.0846 -0.2745 -0.1752
  121OSM    O1412782   6.968   5.354  11.081 -0.1579  0.3357  0.0691
  121OSM    O1112783   6.988   5.516  10.884  0.6700 -0.5869  0.7441
  121OSM    O1212784   6.769   5.410  10.945 -1.2130 -0.8064  0.2386
  121OSM    C1S12785   7.029   5.423  10.777 -0.5372 -0.4080  0.4222
  121OSM    H1S12786   6.944   5.359  10.749 -1.0456  0.6474 -0.5170
  121OSM    H1T12787   7.106   5.350  10.810  0.0262 -0.9929 -1.9797
  121OSM     NF12788   7.118   5.414  10.536  0.2119 -0.2697  0.1244
  121OSM    HNF12789   7.212   5.429  10.504 -0.4916  0.6482 -1.6300
  121OSM    C2S12790   7.084   5.498  10.655  0.0274 -0.1082  0.4708
  121OSM    H2S12791   7.006   5.567  10.618  1.2847  0.6851 -0.8456
  121OSM    C3S12792   7.216   5.584  10.694  0.0382  0.2210 -0.4113
  121OSM    H3S12793   7.305   5.519  10.709 -0.0678 -0.1657 -1.4041
  121OSM     O312794   7.201   5.652  10.818 -0.6149 -0.3243  0.3367
  121OSM    HO312795   7.113   5.638  10.854 -1.5902  3.0986 -0.3030
  121OSM    C4S12796   7.261   5.682  10.576  0.0995  0.7141 -0.5388
  121OSM    H4S12797   7.350   5.644  10.525  1.2677  0.9002  1.2529
  121OSM    C5S12798   7.195   5.798  10.554  0.1358 -0.3520  0.2133
  121OSM    H5S12799   7.125   5.839  10.628  0.8319  0.5194  0.4084
  121OSM    C6S12800   7.216   5.909  10.448 -0.4179 -0.1122 -0.4265
  121OSM    H6S12801   7.232   6.009  10.494 -1.2889  1.2273 -2.8354
  121OSM    H6T12802   7.118   5.930  10.400 -0.4750  0.4004 -0.0880
  121OSM    C7S12803   7.327   5.888  10.342 -0.0084 -0.3198 -0.4059
  121OSM    H7S12804   7.316   5.785  10.299 -0.8762 -0.9214  1.1818
  121OSM    H7T12805   7.427   5.903  10.388 -0.0251  0.8274 -0.7179
  121OSM    C8S12806   7.321   5.982  10.218  0.3727 -0.1113  0.0775
  121OSM    H8S12807   7.343   6.084  10.256  1.0455 -1.1991  2.8383
  121OSM    H8T12808   7.216   5.975  10.181  0.1280 -2.3792  1.0374
  121OSM    C9S12809   7.427   5.944  10.111 -0.0664 -0.8786 -1.1098
  121OSM    H9S12810   7.409   5.836  10.097 -0.8296 -0.9436  0.1884
  121OSM    H9T12811   7.531   5.965  10.142 -0.0360 -1.4909 -0.7806
  121OSM   C10S12812   7.404   6.025   9.976 -0.5036 -0.4633 -0.4195
  121OSM   H10S12813   7.419   6.133   9.996 -1.4275 -0.1802 -1.2032
  121OSM   H10T12814   7.304   5.993   9.939 -0.6448 -2.4506  1.4574
  121OSM   C11S12815   7.509   5.978   9.874  0.2870 -0.7598 -0.3068
  121OSM   H11S12816   7.493   5.870   9.854 -2.5847 -0.6528  0.9898
  121OSM   H11T12817   7.612   5.997   9.913  1.0096 -2.8734 -1.0561
  121OSM   C12S12818   7.497   6.066   9.742  0.0500 -0.2345 -0.0899
  121OSM   H12S12819   7.531   6.169   9.770  0.1489 -0.7239  1.7157
  121OSM   H12T12820   7.392   6.065   9.706  0.0521  1.2181 -0.2067
  121OSM   C13S12821   7.591   6.014   9.630  0.2540 -0.0574  0.6613
  121OSM   H13S12822   7.692   5.987   9.667 -0.2345 -0.8834  1.4510
  121OSM   H13T12823   7.611   6.086   9.549 -0.9327 -1.4508 -0.9551
  121OSM   C14S12824   7.540   5.887   9.559 -0.2256  0.2358  0.2289
  121OSM   H14S12825   7.451   5.849   9.614  0.8525 -1.0253  1.1868
  121OSM   H14T12826   7.615   5.805   9.564 -0.4328  0.0730  0.9157
  121OSM   C15S12827   7.500   5.909   9.407  0.1304  0.3638 -0.9657
  121OSM   H15S12828   7.458   5.820   9.357  0.9376  0.5094 -1.9233
  121OSM   H15T12829   7.579   5.941   9.336  1.3125  1.0509  0.5809
  121OSM   C16S12830   7.387   6.017   9.394 -0.5122 -0.2177 -0.3396
  121OSM   H16S12831   7.411   6.112   9.447  1.6472  0.3788 -2.2191
  121OSM   H16T12832   7.297   5.981   9.449 -1.4390  2.8600  0.3926
  121OSM   C17S12833   7.362   6.051   9.245 -0.7756 -0.9626 -0.0304
  121OSM   H17S12834   7.449   6.110   9.209 -0.2668 -0.9582  1.1599
  121OSM   H17T12835   7.273   6.119   9.243 -0.6174 -0.7674 -1.4153
  121OSM   C18S12836   7.331   5.934   9.149 -0.3407  0.2847  0.2806
  121OSM   H18S12837   7.304   5.975   9.049 -1.5662  1.3590  1.0185
  121OSM   H18T12838   7.254   5.865   9.191  0.9098 -1.1416  0.3247
  121OSM   H18U12839   7.424   5.873   9.141  0.0133  1.0908 -3.9064
  121OSM    C1F12840   7.033   5.331  10.473 -0.3839  0.0839  0.2503
  121OSM     OF12841   6.917   5.318  10.520 -0.5839 -0.5025 -0.0596
  121OSM    C2F12842   7.078   5.276  10.346  0.2158 -0.2477  0.0752
  121OSM    H2F12843   7.111   5.171  10.361  0.0385 -0.2087  0.7723
  121OSM    H2G12844   7.169   5.331  10.313  2.2586 -2.1943  2.1625
  121OSM    C3F12845   6.968   5.272  10.235 -0.3973 -0.8188 -0.0915
  121OSM    H3F12846   6.925   5.370  10.205 -0.8052 -1.6208 -2.2756
  121OSM    H3G12847   6.886   5.203  10.267 -0.8940 -0.8646 -1.3973
  121OSM    C4F12848   7.015   5.210  10.102  0.4805  0.4094  0.6631
  121OSM    H4F12849   6.928   5.213  10.032  1.3236  0.9956 -0.3908
  121OSM    H4G12850   7.033   5.101  10.117  0.5119  0.2086 -0.7025
  121OSM    C5F12851   7.147   5.268  10.044 -0.4257 -0.2579 -0.0579
  121OSM    H5F12852   7.229   5.249  10.117  1.0414 -0.5170 -1.6990
  121OSM    H5G12853   7.135   5.375  10.018  1.5410 -0.5748 -2.6058
  121OSM    C6F12854   7.191   5.195   9.914 -0.2862  0.0418 -0.2370
  121OSM    H6F12855   7.205   5.086   9.928  0.2363 -0.1923 -2.2462
  121OSM    H6G12856   7.292   5.229   9.884 -0.0748  1.0676  1.4847
  121OSM    C7F12857   7.086   5.210   9.800  0.0776  0.1575 -0.0713
  121OSM    H7F12858   7.035   5.308   9.811  0.4575  0.3412  0.0737
  121OSM    H7G12859   7.010   5.135   9.831 -1.5458  1.6896 -0.2403
  121OSM    C8F12860   7.137   5.191   9.656  0.0187  0.3069  0.0888
  121OSM    H8F12861   7.233   5.134   9.661 -0.9457 -1.5507 -1.5542
  121OSM    H8G12862   7.173   5.286   9.611 -1.8895  1.0573  0.0733
  121OSM    C9F12863   7.028   5.125   9.572 -0.1177 -0.6964  0.8819
  121OSM    H9F12864   6.944   5.080   9.627 -1.7677 -0.9610 -1.6938
  121OSM   C10F12865   7.024   5.117   9.432  0.8530  0.1951 -0.6045
  121OSM   H10F12866   6.940   5.062   9.387  2.4612 -1.1448 -2.1087
  121OSM   C11F12867   7.118   5.161   9.325 -0.4774 -0.1531  0.1354
  121OSM   H11F12868   7.209   5.200   9.376  0.0803 -0.0476 -0.9216
  121OSM   H11G12869   7.070   5.235   9.258 -0.7396 -1.2756 -0.9545
  121OSM   C12F12870   7.141   5.038   9.236 -0.6022 -0.0829  0.0320
  121OSM   H12F12871   7.041   5.004   9.203 -0.2984 -0.2640 -0.7230
  121OSM   H12G12872   7.184   4.959   9.302 -2.3152 -0.9767  0.1206
  121OSM   C13F12873   7.220   5.056   9.105  0.7169  0.6467 -0.7558
  121OSM   H13F12874   7.323   5.087   9.135  0.2354 -0.4451  2.3838
  121OSM   H13G12875   7.171   5.130   9.037  0.7563  1.0571 -0.3421
  121OSM   C14F12876   7.232   4.924   9.028 -0.0915 -0.2176 -0.0736
  121OSM   H14F12877   7.134   4.872   9.025  0.0413 -0.4335 -0.7092
  121OSM   H14G12878   7.297   4.865   9.096 -1.1952  0.8808  2.0399
  121OSM   C15F12879   7.296   4.944   8.892 -0.2837  0.3145 -0.2547
  121OSM   H15F12880   7.394   4.996   8.904 -0.4173  1.1177 -2.2263
  121OSM   H15G12881   7.223   5.008   8.838 -0.6107  0.8980  0.8519
  121OSM   C16F12882   7.329   4.815   8.806  0.2385  0.5204 -0.0011
  121OSM   H16F12883   7.386   4.745   8.871 -0.3871  0.3074  0.3240
  121OSM   H16G12884   7.388   4.852   8.719  2.1068 -1.3722  0.3716
  121OSM   C17F12885   7.206   4.731   8.770 -0.6112  0.1551  0.4023
  121OSM   H17F12886   7.135   4.789   8.707 -0.7286 -0.3567  0.0601
  121OSM   H17G12887   7.155   4.708   8.866 -0.3515  1.9954  1.0283
  121OSM   C18F12888   7.238   4.600   8.693 -0.1151 -0.1399  0.3711
  121OSM   H18F12889   7.326   4.614   8.626  0.4216 -1.0866  0.8581
  121OSM   H18G12890   7.152   4.557   8.637 -0.2258  0.1422  0.3251
  121OSM   H18H12891   7.267   4.527   8.771 -1.5819 -0.6122  0.5099
  122OSM      N12892   1.604   2.281  11.016 -0.0678 -0.0777 -0.1627
  122OSM    C1512893   1.688   2.386  11.079  0.7356 -0.5663  0.5118
  122OSM   H15A12894   1.791   2.353  11.083  0.7909 -0.7208 -1.2307
  122OSM   H15B12895   1.653   2.420  11.175 -1.0008  1.5645 -0.7808
  122OSM   H15C12896   1.680   2.473  11.016  0.5887 -0.1744  1.0662
  122OSM    C1412897   1.618   2.159  11.098 -0.5600 -0.3923 -0.3598
  122OSM   H14A12898   1.721   2.139  11.123 -1.1841 -3.1154  0.3996
  122OSM   H14B12899   1.576   2.074  11.046 -1.5011  0.1539 -0.5153
  122OSM   H14C12900   1.572   2.165  11.195 -2.4310 -0.6898 -1.1771
  122OSM    C1312901   1.463   2.331  11.015 -0.8666 -0.4571  0.1571
  122OSM   H13A12902   1.397   2.255  10.975  0.5159 -0.1501 -2.9293
  122OSM   H13B12903   1.466   2.411  10.943  0.7447 -0.9897 -0.4111
  122OSM   H13C12904   1.442   2.376  11.111  1.2603 -2.2113  1.5455
  122OSM    C1212905   1.645   2.242  10.869 -0.3273 -0.2174 -0.5882
  122OSM   H12A12906   1.576   2.166  10.837 -1.3923  0.7467 -0.6519
  122OSM   H12B12907   1.743   2.196  10.863 -0.3965 -0.2278 -1.9228
  122OSM    C1112908   1.649   2.354  10.759 -0.1760 -0.0096  0.1135
  122OSM   H11A12909   1.546   2.390  10.735 -0.6891 -0.8555  0.9521
  122OSM   H11B12910   1.692   2.307  10.668  1.6208  0.6105  0.6057
  122OSM      P12911   1.875   2.507  10.772  0.3892 -0.1905 -0.2461
  122OSM    O1312912   1.878   2.652  10.804 -0.0609  0.3445  0.7211
  122OSM    O1412913   1.969   2.422  10.844 -0.0594  0.6054 -0.1385
  122OSM    O1112914   1.902   2.503  10.624  0.4128 -0.4405  0.1138
  122OSM    O1212915   1.727   2.466  10.792 -0.3745  0.4859 -0.3212
  122OSM    C1S12916   1.810   2.567  10.531  0.6061  0.1718 -0.4614
  122OSM    H1S12917   1.821   2.678  10.532 -0.5954  0.3249  1.4782
  122OSM    H1T12918   1.703   2.546  10.553  0.2571  1.6191 -0.6498
  122OSM     NF12919   1.742   2.615  10.301 -0.2582 -0.2647  0.0812
  122OSM    HNF12920   1.644   2.597  10.310 -0.9105  0.8520 -3.4099
  122OSM    C2S12921   1.832   2.529  10.378  0.0209 -0.3263  0.3592
  122OSM    H2S12922   1.937   2.549  10.349 -0.1075  0.2108  0.2542
  122OSM    C3S12923   1.807   2.372  10.365  0.0115 -0.0744  1.0138
  122OSM    H3S12924   1.708   2.337  10.400 -2.0275 -0.2952 -4.0465
  122OSM     O312925   1.898   2.288  10.436  0.2514 -0.5250  0.0509
  122OSM    HO312926   1.951   2.348  10.490  0.9379 -1.6088  0.6185
  122OSM    C4S12927   1.809   2.343  10.213 -0.6327 -0.5584 -0.2770
  122OSM    H4S12928   1.710   2.336  10.164 -1.2926 -0.7080  1.0326
  122OSM    C5S12929   1.927   2.335  10.144 -0.3472  0.2535  0.4641
  122OSM    H5S12930   2.026   2.355  10.187  1.5233 -0.7002 -2.9938
  122OSM    C6S12931   1.931   2.314   9.991  0.0292  0.6839  0.2278
  122OSM    H6S12932   1.973   2.406   9.945 -1.0839  2.2041  2.1139
  122OSM    H6T12933   1.833   2.294   9.942 -0.6133 -0.1173  1.7632
  122OSM    C7S12934   2.015   2.190   9.946 -0.3018  0.1308 -0.3575
  122OSM    H7S12935   1.954   2.098   9.946 -1.3290  0.7566 -2.1255
  122OSM    H7T12936   2.093   2.184  10.024 -0.2247  1.0782 -0.3424
  122OSM    C8S12937   2.079   2.213   9.811 -0.3568 -0.2443  0.6405
  122OSM    H8S12938   2.167   2.146   9.805 -1.8625 -2.2263 -1.0094
  122OSM    H8T12939   2.106   2.319   9.792 -0.4913 -0.4192 -0.6857
  122OSM    C9S12940   1.986   2.181   9.691 -0.0411  0.6139 -0.4692
  122OSM    H9S12941   1.887   2.228   9.709  0.4309  1.1996  0.6614
  122OSM    H9T12942   1.969   2.071   9.690  2.0523  0.2583 -1.4171
  122OSM   C10S12943   2.038   2.223   9.547  0.2931 -0.1708 -0.3298
  122OSM   H10S12944   2.141   2.187   9.527  0.8663  0.5845  1.1358
  122OSM   H10T12945   2.039   2.334   9.538  0.7375 -0.0799  0.6657
  122OSM   C11S12946   1.944   2.171   9.436 -0.2831  0.4309 -0.2363
  122OSM   H11S12947   1.844   2.211   9.462 -1.3192 -1.1914 -1.5132
  122OSM   H11T12948   1.924   2.062   9.451 -0.5465  0.5400  0.2118
  122OSM   C12S12949   1.989   2.207   9.299  0.9702  0.2271  0.0290
  122OSM   H12S12950   2.091   2.165   9.290  0.8782  0.3304 -1.8728
  122OSM   H12T12951   1.996   2.318   9.300  0.9965  0.2882  3.1143
  122OSM   C13S12952   1.916   2.156   9.178 -0.1063  0.7342  0.1593
  122OSM   H13S12953   1.806   2.167   9.191 -0.1825 -0.6561  0.8818
  122OSM   H13T12954   1.942   2.049   9.170  0.9112  0.9334  0.6118
  122OSM   C14S12955   1.960   2.227   9.052  0.0077 -0.2559 -0.0948
  122OSM   H14S12956   2.071   2.225   9.044  0.1043 -1.8179  1.0317
  122OSM   H14T12957   1.902   2.321   9.045  0.1342 -0.0036  1.7980
  122OSM   C15S12958   1.905   2.154   8.925 -0.6034 -0.6622 -0.2361
  122OSM   H15S12959   1.794   2.150   8.938 -0.5921  0.9531  0.6022
  122OSM   H15T12960   1.940   2.049   8.936 -0.7549 -0.5527  1.8270
  122OSM   C16S12961   1.931   2.227   8.790  0.8199 -0.2805 -0.1496
  122OSM   H16S12962   1.984   2.153   8.726  0.0106 -1.1021  0.0941
  122OSM   H16T12963   2.004   2.309   8.806  1.7834 -1.5164  2.1648
  122OSM   C17S12964   1.806   2.272   8.716 -0.4161 -0.2478  0.7269
  122OSM   H17S12965   1.740   2.337   8.777 -1.2945  0.5104 -0.9534
  122OSM   H17T12966   1.747   2.178   8.705 -0.1733 -0.5182  1.6195
  122OSM   C18S12967   1.830   2.340   8.582  0.2126  0.3003  0.8016
  122OSM   H18S12968   1.738   2.327   8.520 -1.3413  2.6062  2.4944
  122OSM   H18T12969   1.920   2.303   8.527  0.3662  1.3475  0.3254
  122OSM   H18U12970   1.853   2.448   8.590 -1.3986  0.7467 -0.1539
  122OSM    C1F12971   1.775   2.734  10.272  0.0135 -0.3918  0.5221
  122OSM     OF12972   1.886   2.778  10.298  0.1999 -0.1339  0.4463
  122OSM    C2F12973   1.671   2.814  10.209  0.2353 -0.3230 -0.4442
  122OSM    H2F12974   1.657   2.905  10.271  1.9839  0.0945 -0.6149
  122OSM    H2G12975   1.571   2.766  10.209  0.1784 -0.2345 -1.4082
  122OSM    C3F12976   1.730   2.848  10.072  0.1175  0.0818 -1.0405
  122OSM    H3F12977   1.835   2.884  10.079 -0.3448  1.2104  1.4947
  122OSM    H3G12978   1.668   2.936  10.042  0.5636  0.6408 -0.3453
  122OSM    C4F12979   1.732   2.741   9.964 -0.6854  0.0116 -0.4216
  122OSM    H4F12980   1.631   2.695   9.970  0.1853 -1.9415  0.1713
  122OSM    H4G12981   1.809   2.661   9.975  0.4157  1.0410 -0.4621
  122OSM    C5F12982   1.737   2.790   9.818 -0.1768  0.6377 -0.0760
  122OSM    H5F12983   1.837   2.835   9.797  0.6408 -2.1039 -2.6849
  122OSM    H5G12984   1.685   2.887   9.803  2.2790  2.0174 -0.3365
  122OSM    C6F12985   1.691   2.683   9.713  0.2641 -0.1963  0.2390
  122OSM    H6F12986   1.582   2.685   9.735 -0.0118 -0.6281 -0.9966
  122OSM    H6G12987   1.722   2.578   9.729 -0.4946  0.0307  4.0768
  122OSM    C7F12988   1.710   2.734   9.569 -0.1589 -0.1287  0.2741
  122OSM    H7F12989   1.817   2.761   9.555  0.3305 -1.1837  1.6510
  122OSM    H7G12990   1.657   2.832   9.571 -2.0483 -1.1073  1.5256
  122OSM    C8F12991   1.653   2.640   9.465 -0.3788  0.1042  0.0680
  122OSM    H8F12992   1.549   2.609   9.485 -0.5592 -0.9577 -2.2329
  122OSM    H8G12993   1.717   2.549   9.474 -2.3283 -1.4701 -1.2281
  122OSM    C9F12994   1.662   2.693   9.322 -0.0662 -0.7704 -1.0723
  122OSM    H9F12995   1.761   2.709   9.277  0.3181 -1.7117 -0.5678
  122OSM   C10F12996   1.557   2.724   9.240  0.1108 -1.3856  0.1946
  122OSM   H10F12997   1.568   2.778   9.145 -0.0713  0.2918  1.0892
  122OSM   C11F12998   1.411   2.703   9.277 -0.1826 -0.0764 -0.5123
  122OSM   H11F12999   1.377   2.760   9.367 -0.4842 -1.3584  0.2080
  122OSM   H11G13000   1.391   2.596   9.299 -3.1866  0.4264 -0.3599
  122OSM   C12F13001   1.310   2.716   9.167  0.3578 -0.0170  0.0832
  122OSM   H12F13002   1.332   2.635   9.095 -0.3231  1.3299 -1.7089
  122OSM   H12G13003   1.314   2.819   9.125 -0.3155  0.0280  0.1205
  122OSM   C13F13004   1.160   2.692   9.198 -0.0107 -0.1974 -0.2503
  122OSM   H13F13005   1.132   2.759   9.283 -2.3773  0.0766 -1.1723
  122OSM   H13G13006   1.143   2.593   9.246 -1.4091  1.0014  1.9504
  122OSM   C14F13007   1.070   2.707   9.077 -0.0490 -0.3814 -0.1295
  122OSM   H14F13008   1.100   2.804   9.032 -0.2551 -0.6745 -0.8993
  122OSM   H14G13009   0.963   2.725   9.103  0.4488  2.6919  0.2113
  122OSM   C15F13010   1.070   2.587   8.979  0.2857 -0.2201  0.3084
  122OSM   H15F13011   1.058   2.500   9.048 -2.4426 -0.8635 -0.8471
  122OSM   H15G13012   1.169   2.590   8.929 -0.8786  0.1556 -2.1242
  122OSM   C16F13013   0.955   2.596   8.877 -1.2493  0.1573 -0.5145
  122OSM   H16F13014   0.949   2.691   8.820 -0.4667  0.1654 -0.5949
  122OSM   H16G13015   0.861   2.595   8.936 -0.1499  1.4097  1.3868
  122OSM   C17F13016   0.969   2.477   8.777 -0.1633  0.5060  0.1421
  122OSM   H17F13017   0.981   2.375   8.820 -1.8891 -0.2384 -0.9882
  122OSM   H17G13018   1.062   2.499   8.721  0.3164  1.6187  1.3246
  122OSM   C18F13019   0.852   2.469   8.679  0.1681  0.1666  0.4376
  122OSM   H18F13020   0.802   2.568   8.668 -1.6896 -0.9416 -1.9213
  122OSM   H18G13021   0.784   2.398   8.729  0.0015  0.3976  0.5415
  122OSM   H18H13022   0.884   2.431   8.579  1.0295 -0.4033  0.9128
  123OSM      N13023   5.982   0.921   5.884  0.2163 -0.2046 -0.0915
  123OSM    C1513024   6.117   0.893   5.941  0.3525 -0.2820  0.1418
  123OSM   H15A13025   6.136   0.787   5.949 -0.8553 -0.5930 -0.8100
  123OSM   H15B13026   6.129   0.937   6.038 -1.7729  0.3789  0.1501
  123OSM   H15C13027   6.203   0.928   5.885  0.7431  0.4604  1.1705
  123OSM    C1413028   5.970   0.864   5.744 -0.2310  0.8748 -0.3609
  123OSM   H14A13029   6.048   0.899   5.679  1.3473 -2.0420 -0.2001
  123OSM   H14B13030   5.871   0.889   5.709 -0.1216  3.4172  0.9092
  123OSM   H14C13031   5.968   0.756   5.745  4.0211  0.6103 -1.5121
  123OSM    C1313032   5.865   0.860   5.960 -0.1264 -0.2396 -0.0886
  123OSM   H13A13033   5.869   0.753   5.949  2.1165 -0.0846 -1.3315
  123OSM   H13B13034   5.782   0.902   5.905  0.9216 -0.7452 -2.1547
  123OSM   H13C13035   5.864   0.881   6.066  1.7875 -0.9274  0.1002
  123OSM    C1213036   5.953   1.070   5.868  0.0272  0.0991  1.0944
  123OSM   H12A13037   5.968   1.116   5.965  0.9859 -0.2592  1.1286
  123OSM   H12B13038   5.847   1.069   5.847 -0.0897 -0.5896  1.6896
  123OSM    C1113039   6.034   1.148   5.761  0.1520 -0.0523 -0.2014
  123OSM   H11A13040   5.996   1.252   5.768 -1.6543 -0.7874  2.2991
  123OSM   H11B13041   6.027   1.102   5.660  1.3283 -0.1052 -0.2691
  123OSM      P13042   6.233   1.241   5.910 -0.0030  0.0545 -0.0813
  123OSM    O1313043   6.359   1.186   5.959 -0.3521 -0.2740  0.4464
  123OSM    O1413044   6.228   1.379   5.858 -0.5754  0.1551  0.6055
  123OSM    O1113045   6.116   1.243   6.025  0.4687 -0.2721  0.1045
  123OSM    O1213046   6.168   1.146   5.799 -0.7556  0.0421 -1.0996
  123OSM    C1S13047   6.154   1.186   6.153  0.9505  0.1999  0.2394
  123OSM    H1S13048   6.217   1.096   6.133 -1.4205 -1.0434 -2.3916
  123OSM    H1T13049   6.066   1.136   6.199  0.5150  1.2549  0.5628
  123OSM     NF13050   6.235   1.212   6.384 -0.0179  0.0819  0.2884
  123OSM    HNF13051   6.159   1.203   6.449 -0.4258 -2.1895 -0.4130
  123OSM    C2S13052   6.213   1.282   6.262  1.0710 -0.0104  0.8397
  123OSM    H2S13053   6.310   1.318   6.220  0.5143 -0.2692 -0.7143
  123OSM    C3S13054   6.120   1.403   6.284 -1.0288  0.2905  0.5317
  123OSM    H3S13055   6.021   1.369   6.321 -1.2008  0.6913  0.4446
  123OSM     O313056   6.071   1.470   6.168 -0.3594  0.4426 -0.0519
  123OSM    HO313057   6.113   1.421   6.096  0.4419 -0.5293  1.0354
  123OSM    C4S13058   6.190   1.488   6.388 -0.5930 -0.1498 -0.5155
  123OSM    H4S13059   6.279   1.536   6.346  0.1556  0.3696  1.5555
  123OSM    C5S13060   6.173   1.509   6.516  0.0362 -0.4967  0.0065
  123OSM    H5S13061   6.082   1.467   6.562 -0.0752  0.1379  0.3771
  123OSM    C6S13062   6.246   1.603   6.608  0.6191 -0.3627  0.4797
  123OSM    H6S13063   6.279   1.548   6.698  0.8755 -2.0034 -0.5770
  123OSM    H6T13064   6.175   1.683   6.638  0.9602  0.1425 -0.0504
  123OSM    C7S13065   6.355   1.685   6.541 -0.6528  0.0006  0.4925
  123OSM    H7S13066   6.319   1.720   6.443  2.8529 -2.3430 -1.8943
  123OSM    H7T13067   6.438   1.617   6.510 -1.4569  0.1043 -2.0597
  123OSM    C8S13068   6.403   1.809   6.618  0.3127  0.2895 -0.7512
  123OSM    H8S13069   6.327   1.890   6.612  1.2225  1.3534  1.0892
  123OSM    H8T13070   6.501   1.844   6.580  0.9948  0.0194  0.7084
  123OSM    C9S13071   6.427   1.787   6.769  0.1536  1.1337  0.7011
  123OSM    H9S13072   6.455   1.680   6.779 -0.2783  0.8003 -1.2225
  123OSM    H9T13073   6.336   1.800   6.831 -1.0071  3.6340 -1.3336
  123OSM   C10S13074   6.543   1.860   6.837 -0.8831  0.9583  0.1485
  123OSM   H10S13075   6.521   1.969   6.838 -0.3779  1.0670  0.0874
  123OSM   H10T13076   6.635   1.839   6.779 -1.9904  3.3138 -2.7299
  123OSM   C11S13077   6.568   1.829   6.987 -0.2283 -0.4969  0.7180
  123OSM   H11S13078   6.602   1.724   6.981  0.0841 -0.3742  0.2436
  123OSM   H11T13079   6.472   1.835   7.041  0.5896  0.2402  2.1508
  123OSM   C12S13080   6.677   1.922   7.051  0.0232 -0.0070 -0.0913
  123OSM   H12S13081   6.656   2.030   7.039  0.0187  0.3028  2.2512
  123OSM   H12T13082   6.765   1.928   6.983 -0.5551  3.8039 -0.7158
  123OSM   C13S13083   6.709   1.892   7.193 -0.3395 -0.3636  0.2232
  123OSM   H13S13084   6.800   1.831   7.210  0.1485 -0.0082 -0.9738
  123OSM   H13T13085   6.625   1.840   7.245 -0.6771  0.0881  0.1368
  123OSM   C14S13086   6.731   2.026   7.272 -0.4362  0.6831  1.0068
  123OSM   H14S13087   6.632   2.076   7.282 -0.1671  1.1592  1.3272
  123OSM   H14T13088   6.792   2.092   7.207  1.8699 -3.9965 -2.1247
  123OSM   C15S13089   6.798   2.008   7.407  0.4886 -0.0951 -0.6480
  123OSM   H15S13090   6.890   1.947   7.388  0.0196 -1.8824  2.2130
  123OSM   H15T13091   6.735   1.948   7.476 -0.7909  2.6416  0.6802
  123OSM   C16S13092   6.822   2.135   7.479  0.2486 -0.0599 -0.7328
  123OSM   H16S13093   6.731   2.191   7.510 -0.5499 -0.2952 -2.5542
  123OSM   H16T13094   6.882   2.198   7.410  3.4814  0.4720  2.2652
  123OSM   C17S13095   6.918   2.117   7.602 -1.0751  0.0187 -0.6333
  123OSM   H17S13096   7.008   2.057   7.573  0.2998  2.1210 -0.9397
  123OSM   H17T13097   6.863   2.061   7.681  0.7957 -0.8794  0.1261
  123OSM   C18S13098   6.964   2.248   7.663  0.9957  0.0864  0.1909
  123OSM   H18S13099   6.879   2.315   7.687  1.8784  0.2348  3.3236
  123OSM   H18T13100   7.021   2.305   7.586  0.2647  1.1582  0.4133
  123OSM   H18U13101   7.034   2.240   7.749  0.8560  1.5774  0.4785
  123OSM    C1F13102   6.332   1.120   6.395 -0.2697 -1.1026 -0.0611
  123OSM     OF13103   6.425   1.113   6.315 -0.4632  0.4143 -0.9346
  123OSM    C2F13104   6.318   1.027   6.514  0.6967 -0.1205  0.1102
  123OSM    H2F13105   6.275   0.931   6.477 -0.4211  0.3881  0.0470
  123OSM    H2G13106   6.230   1.064   6.571  1.1111  0.9460  0.0837
  123OSM    C3F13107   6.438   1.021   6.607 -0.5780  0.5600  0.1271
  123OSM    H3F13108   6.516   0.958   6.557 -0.0701  0.2439  1.2962
  123OSM    H3G13109   6.414   0.962   6.698  0.9321  0.4087  0.4520
  123OSM    C4F13110   6.510   1.154   6.638  0.7548 -0.4849 -0.1934
  123OSM    H4F13111   6.549   1.197   6.543 -0.7855 -1.5392 -1.3542
  123OSM    H4G13112   6.594   1.138   6.709  1.2137 -1.1499 -0.8728
  123OSM    C5F13113   6.404   1.245   6.699 -0.3697 -0.2990  0.2908
  123OSM    H5F13114   6.301   1.235   6.658  0.1041 -0.6528 -0.8628
  123OSM    H5G13115   6.423   1.351   6.672 -0.7561 -0.3624 -0.2397
  123OSM    C6F13116   6.393   1.225   6.852 -0.1534  0.1618  0.6867
  123OSM    H6F13117   6.491   1.188   6.889  0.1428  1.4130  1.2033
  123OSM    H6G13118   6.332   1.133   6.868  0.2687 -0.5112 -1.2230
  123OSM    C7F13119   6.346   1.337   6.942 -0.6085  0.2474 -0.1956
  123OSM    H7F13120   6.306   1.290   7.034  0.5801  0.8170  0.6474
  123OSM    H7G13121   6.264   1.383   6.883 -1.9242  1.8877  2.7222
  123OSM    C8F13122   6.451   1.444   6.984  0.6110  0.3223  0.7627
  123OSM    H8F13123   6.393   1.527   7.031 -0.6204 -0.9127  1.5218
  123OSM    H8G13124   6.503   1.483   6.894 -0.0775 -2.4128 -0.9610
  123OSM    C9F13125   6.545   1.385   7.088 -0.3653 -0.4595 -0.2749
  123OSM    H9F13126   6.630   1.331   7.044 -0.7399 -0.4609 -1.0061
  123OSM   C10F13127   6.525   1.377   7.221  0.0664 -0.2110  0.4537
  123OSM   H10F13128   6.609   1.327   7.270 -0.3379 -2.4016 -0.9547
  123OSM   C11F13129   6.409   1.425   7.302 -0.0470 -0.4190 -0.1792
  123OSM   H11F13130   6.373   1.331   7.348 -0.8105  0.7371  1.6914
  123OSM   H11G13131   6.323   1.472   7.249  0.6244 -1.2334 -2.1113
  123OSM   C12F13132   6.432   1.535   7.413 -0.0311  0.9355  0.5293
  123OSM   H12F13133   6.339   1.545   7.473 -1.2109 -3.3151 -0.2719
  123OSM   H12G13134   6.443   1.630   7.355 -0.4881  0.3262 -0.5796
  123OSM   C13F13135   6.566   1.530   7.490  0.1713  0.9806 -0.1937
  123OSM   H13F13136   6.646   1.546   7.415  2.0793 -1.3166  1.1974
  123OSM   H13G13137   6.585   1.424   7.519 -1.0176  0.6938 -0.3929
  123OSM   C14F13138   6.584   1.629   7.601 -0.4502 -0.1204 -0.2728
  123OSM   H14F13139   6.502   1.600   7.671  0.5836 -1.6472  0.3688
  123OSM   H14G13140   6.574   1.737   7.580  1.3373 -0.1965 -1.7409
  123OSM   C15F13141   6.725   1.605   7.669  0.4360 -0.3004  0.4934
  123OSM   H15F13142   6.756   1.499   7.656  1.8671 -0.0975  1.8916
  123OSM   H15G13143   6.724   1.631   7.777  1.2740  1.0491  0.2047
  123OSM   C16F13144   6.836   1.700   7.624 -0.4478  0.2992 -0.0645
  123OSM   H16F13145   6.804   1.804   7.646 -1.6342 -0.4480  2.0112
  123OSM   H16G13146   6.867   1.687   7.518  1.3404  0.4575  0.4031
  123OSM   C17F13147   6.963   1.672   7.713 -0.0609 -0.5418 -0.6415
  123OSM   H17F13148   6.922   1.691   7.814  0.5792 -1.3971 -0.2109
  123OSM   H17G13149   7.047   1.740   7.686 -1.7568  1.3245 -1.5345
  123OSM   C18F13150   7.020   1.532   7.720  0.1951  0.0276  0.0803
  123OSM   H18F13151   7.104   1.516   7.790  2.2132  2.0106 -1.7241
  123OSM   H18G13152   7.054   1.497   7.620 -1.4720 -0.3646 -0.3850
  123OSM   H18H13153   6.944   1.461   7.760 -0.9455  1.4601  0.5500
  124OSM      N13154   2.966   4.307   5.760  0.7000  0.7087 -0.7201
  124OSM    C1513155   2.886   4.399   5.840  0.1532  0.0362  0.3883
  124OSM   H15A13156   2.897   4.372   5.944  1.7938 -1.5164 -0.1408
  124OSM   H15B13157   2.778   4.389   5.830  0.2078  0.0432 -0.2509
  124OSM   H15C13158   2.918   4.500   5.819  0.6760 -0.2906 -0.4216
  124OSM    C1413159   2.951   4.330   5.613  0.5616  0.0848 -0.1024
  124OSM   H14A13160   3.015   4.263   5.558  0.7700 -1.7431  2.2484
  124OSM   H14B13161   2.987   4.429   5.588  0.0082  0.2200 -0.3863
  124OSM   H14C13162   2.845   4.323   5.594  0.3466 -1.1083  1.4194
  124OSM    C1313163   3.108   4.345   5.797  0.0081 -0.6942 -0.2459
  124OSM   H13A13164   3.099   4.365   5.903 -1.8192  2.0481 -0.8183
  124OSM   H13B13165   3.146   4.439   5.761  1.6218 -2.0570 -2.3236
  124OSM   H13C13166   3.183   4.271   5.771  0.0305 -0.5422 -0.6165
  124OSM    C1213167   2.949   4.164   5.792 -0.2463  0.8765  0.3300
  124OSM   H12A13168   3.020   4.105   5.738 -0.0027  1.3505  0.1241
  124OSM   H12B13169   2.849   4.132   5.768  0.0510 -0.5426  0.9011
  124OSM    C1113170   2.965   4.109   5.941  0.2607  0.2477  0.1144
  124OSM   H11A13171   2.916   4.010   5.932 -1.4853  1.0242  0.6006
  124OSM   H11B13172   2.901   4.181   5.997  0.4151 -0.1588  0.8142
  124OSM      P13173   3.143   4.159   6.130 -0.0941  0.5235 -0.2089
  124OSM    O1313174   3.264   4.088   6.171  0.4975  0.2413  0.0034
  124OSM    O1413175   3.135   4.305   6.141  0.2458  0.4674  0.1096
  124OSM    O1113176   3.020   4.100   6.216  0.0643 -0.2731 -0.4464
  124OSM    O1213177   3.094   4.104   5.992 -0.1756 -0.2407  0.2862
  124OSM    C1S13178   3.043   4.056   6.347  0.3078  0.0435 -0.5890
  124OSM    H1S13179   3.142   4.008   6.355  1.4180  1.9854 -1.8871
  124OSM    H1T13180   2.972   3.987   6.398  1.2634  1.8562  3.5817
  124OSM     NF13181   3.084   4.134   6.583  0.1275  0.3263 -0.5970
  124OSM    HNF13182   3.017   4.113   6.655  0.5568  1.5041  0.1786
  124OSM    C2S13183   3.046   4.175   6.445  0.6311 -0.0837 -0.5416
  124OSM    H2S13184   3.116   4.252   6.408 -0.7019  0.7153 -1.4668
  124OSM    C3S13185   2.907   4.252   6.445 -0.2101  0.0207 -0.0225
  124OSM    H3S13186   2.835   4.175   6.481  1.4687 -0.9527  1.3974
  124OSM     O313187   2.866   4.293   6.315  0.2747 -0.1901  0.2582
  124OSM    HO313188   2.937   4.252   6.265 -1.2680 -1.1791 -1.2222
  124OSM    C4S13189   2.895   4.366   6.551  0.5436 -0.3941 -0.6704
  124OSM    H4S13190   2.835   4.335   6.639 -0.0754 -1.4886 -1.4566
  124OSM    C5S13191   2.939   4.494   6.536 -0.3119 -0.1852 -0.0788
  124OSM    H5S13192   2.998   4.522   6.448  0.6187  2.9466  1.3680
  124OSM    C6S13193   2.941   4.614   6.627  0.3609  0.2981  0.0197
  124OSM    H6S13194   2.889   4.694   6.569 -1.6531 -0.2873  0.9168
  124OSM    H6T13195   3.042   4.659   6.639  0.3845  0.4839 -0.8617
  124OSM    C7S13196   2.870   4.598   6.759 -0.0287 -0.1358 -0.0485
  124OSM    H7S13197   2.904   4.511   6.819 -1.1953 -1.0690 -0.7005
  124OSM    H7T13198   2.762   4.583   6.740 -0.2450  0.5985  0.5462
  124OSM    C8S13199   2.885   4.723   6.847  0.2240  0.2878  0.2871
  124OSM    H8S13200   2.855   4.819   6.801  1.1244  1.5572  2.2055
  124OSM    H8T13201   2.993   4.734   6.870  0.3038  0.2486 -0.0671
  124OSM    C9S13202   2.785   4.707   6.966 -0.5236 -0.2761 -0.2058
  124OSM    H9S13203   2.809   4.626   7.038  0.7903  1.9123  2.0084
  124OSM    H9T13204   2.678   4.697   6.940 -0.7940  1.4136  0.0822
  124OSM   C10S13205   2.783   4.830   7.050  0.4058 -0.5046 -0.6454
  124OSM   H10S13206   2.734   4.916   6.999  2.1787  0.9827  0.0513
  124OSM   H10T13207   2.885   4.870   7.072 -1.4250  2.5618  3.8566
  124OSM   C11S13208   2.712   4.793   7.185  0.7275  0.0524  0.5751
  124OSM   H11S13209   2.754   4.696   7.220  1.2484  0.4578  1.0936
  124OSM   H11T13210   2.602   4.779   7.175  0.4127  2.6701 -0.3417
  124OSM   C12S13211   2.741   4.893   7.294  0.0926  0.3989  0.4036
  124OSM   H12S13212   2.711   4.995   7.262 -0.7366  0.1272  0.3085
  124OSM   H12T13213   2.851   4.893   7.315 -0.1348 -2.5141  1.9970
  124OSM   C13S13214   2.666   4.860   7.422 -0.5006 -0.0856 -0.4433
  124OSM   H13S13215   2.696   4.756   7.446  0.3317 -0.0166 -1.1708
  124OSM   H13T13216   2.555   4.859   7.421 -0.5185 -2.0368 -0.7466
  124OSM   C14S13217   2.729   4.935   7.538  0.2253 -0.0920 -0.5207
  124OSM   H14S13218   2.734   5.043   7.513 -0.2529  0.3164  1.0484
  124OSM   H14T13219   2.834   4.900   7.544 -0.0834 -0.8194  1.5730
  124OSM   C15S13220   2.657   4.910   7.667  0.0430  0.4566  0.2190
  124OSM   H15S13221   2.622   4.805   7.667  0.6717  0.2316  1.1654
  124OSM   H15T13222   2.572   4.976   7.694  0.5683  0.2364  2.6378
  124OSM   C16S13223   2.746   4.905   7.789 -0.0828  0.6030  0.3644
  124OSM   H16S13224   2.817   4.990   7.783  0.5856  0.1714  1.7201
  124OSM   H16T13225   2.810   4.815   7.797  1.3006  1.6493  1.8482
  124OSM   C17S13226   2.662   4.912   7.921  0.2497 -0.0175 -0.1829
  124OSM   H17S13227   2.575   4.844   7.914 -0.3188  0.6609  0.1459
  124OSM   H17T13228   2.622   5.015   7.924  0.8992  0.3607 -2.5081
  124OSM   C18S13229   2.746   4.891   8.044 -0.1213  0.0677  0.2208
  124OSM   H18S13230   2.687   4.883   8.138 -0.6577  0.5192 -0.0749
  124OSM   H18T13231   2.817   4.977   8.054 -2.5604  2.3960 -1.1001
  124OSM   H18U13232   2.795   4.792   8.045 -0.4365 -0.0880  0.2770
  124OSM    C1F13233   3.201   4.091   6.621 -0.4870  0.2412 -0.8082
  124OSM     OF13234   3.290   4.081   6.538 -0.2731 -0.4087 -1.1174
  124OSM    C2F13235   3.222   4.070   6.766 -0.0997  0.0019 -0.0324
  124OSM    H2F13236   3.158   3.987   6.801 -0.4092 -0.0622 -0.7243
  124OSM    H2G13237   3.189   4.165   6.814 -1.3421  0.8675 -2.4262
  124OSM    C3F13238   3.370   4.058   6.794 -0.0777  0.6758 -0.4043
  124OSM    H3F13239   3.426   4.148   6.764  1.2635  0.1324  0.3942
  124OSM    H3G13240   3.397   3.966   6.738 -1.6396 -0.7288  0.9977
  124OSM    C4F13241   3.409   4.028   6.937  0.2408  0.1356  0.8765
  124OSM    H4F13242   3.504   3.971   6.929 -1.1183 -2.3906  1.6291
  124OSM    H4G13243   3.328   3.961   6.974 -1.0097  0.6298 -0.8110
  124OSM    C5F13244   3.428   4.139   7.037 -0.4649 -0.1358  0.2329
  124OSM    H5F13245   3.356   4.222   7.022 -1.4586 -0.8189  1.1227
  124OSM    H5G13246   3.528   4.187   7.025 -0.3206 -0.4671  0.0980
  124OSM    C6F13247   3.427   4.105   7.188 -0.5731 -0.2123  0.7819
  124OSM    H6F13248   3.502   4.028   7.214  0.1207  0.8759  2.0627
  124OSM    H6G13249   3.333   4.051   7.211 -1.2947  0.2694 -0.8531
  124OSM    C7F13250   3.440   4.236   7.280 -0.0747  0.6386  0.0564
  124OSM    H7F13251   3.342   4.286   7.267 -0.2912  1.1588  2.9582
  124OSM    H7G13252   3.522   4.299   7.240 -1.3421  0.1901 -3.6362
  124OSM    C8F13253   3.447   4.209   7.434  0.9880  0.2852 -0.2294
  124OSM    H8F13254   3.435   4.304   7.490 -0.6744  1.9609 -3.1759
  124OSM    H8G13255   3.548   4.167   7.455  1.1861  1.1152  0.5526
  124OSM    C9F13256   3.335   4.107   7.472  0.5750  0.0087 -0.1421
  124OSM    H9F13257   3.337   4.009   7.424  0.7578 -0.3748  0.6308
  124OSM   C10F13258   3.245   4.115   7.577 -0.8394  0.5116  0.2696
  124OSM   H10F13259   3.159   4.046   7.582  0.0995 -0.7043  0.1134
  124OSM   C11F13260   3.234   4.226   7.676 -0.4423 -0.3269 -0.0262
  124OSM   H11F13261   3.137   4.279   7.659 -0.0709  0.0537 -1.1154
  124OSM   H11G13262   3.317   4.297   7.655 -0.4096 -0.4935 -0.4805
  124OSM   C12F13263   3.226   4.179   7.821 -0.1753 -0.1767  0.0396
  124OSM   H12F13264   3.133   4.122   7.845 -0.5866  0.9060  1.1117
  124OSM   H12G13265   3.220   4.274   7.879  3.5025  0.8525 -0.9968
  124OSM   C13F13266   3.347   4.094   7.871 -0.2459 -1.1504  0.3571
  124OSM   H13F13267   3.429   4.168   7.884 -1.6291  0.6682 -0.7971
  124OSM   H13G13268   3.363   4.026   7.784 -0.8560  1.6965 -2.1638
  124OSM   C14F13269   3.321   4.016   7.995 -0.0296 -0.3850  0.3304
  124OSM   H14F13270   3.403   3.943   8.007 -0.2707 -1.0537 -1.7107
  124OSM   H14G13271   3.228   3.959   7.973 -0.0180  0.0429 -0.9047
  124OSM   C15F13272   3.307   4.099   8.125  0.2901  0.4835  0.5539
  124OSM   H15F13273   3.286   4.030   8.209  1.7195 -2.2066 -1.1524
  124OSM   H15G13274   3.230   4.179   8.116  0.4007  0.9312  2.8958
  124OSM   C16F13275   3.436   4.170   8.165  0.4804  0.4493 -0.2128
  124OSM   H16F13276   3.417   4.279   8.180 -2.9571  0.2591 -2.2308
  124OSM   H16G13277   3.519   4.161   8.092 -0.1795  0.6447 -0.9900
  124OSM   C17F13278   3.492   4.122   8.304  0.4383 -0.0800  1.0718
  124OSM   H17F13279   3.514   4.013   8.298  0.7020  0.0175  0.1892
  124OSM   H17G13280   3.412   4.125   8.381 -1.1591 -0.5643 -0.5065
  124OSM   C18F13281   3.623   4.193   8.336 -0.5326  0.2164 -0.5268
  124OSM   H18F13282   3.703   4.183   8.260 -0.9680  1.6109 -1.2038
  124OSM   H18G13283   3.668   4.164   8.433  1.6115  1.9852 -0.9087
  124OSM   H18H13284   3.608   4.303   8.338  1.6083  0.5522  1.9277
  125OSM      N13285   3.069   5.490   6.232 -0.1909  1.0372 -0.1246
  125OSM    C1513286   3.136   5.434   6.113  0.2973 -0.0465 -0.3262
  125OSM   H15A13287   3.140   5.327   6.122  1.2370  0.0956  1.6385
  125OSM   H15B13288   3.234   5.480   6.112 -0.0586  0.7358 -0.1954
  125OSM   H15C13289   3.087   5.470   6.024  1.3962  0.6107 -0.6871
  125OSM    C1413290   3.150   5.432   6.347  0.3298  0.1688 -0.1287
  125OSM   H14A13291   3.122   5.328   6.357 -1.5047  0.4886 -1.4900
  125OSM   H14B13292   3.124   5.487   6.437  2.7341  1.0899  0.0879
  125OSM   H14C13293   3.256   5.426   6.332  0.3709 -3.0129  0.6846
  125OSM    C1313294   3.077   5.637   6.240  0.7209 -0.1069  0.0937
  125OSM   H13A13295   3.003   5.672   6.311 -0.3228  1.5926 -1.7281
  125OSM   H13B13296   3.046   5.691   6.152 -2.8788 -1.1866  0.5419
  125OSM   H13C13297   3.174   5.673   6.272  0.7262  2.4635 -2.4125
  125OSM    C1213298   2.934   5.434   6.238  0.2456 -1.0291  0.9615
  125OSM   H12A13299   2.921   5.333   6.201 -0.8969 -0.0784 -1.4950
  125OSM   H12B13300   2.886   5.473   6.149 -1.1552 -2.8910  0.8492
  125OSM    C1113301   2.851   5.446   6.364 -0.2244 -0.2103  0.9552
  125OSM   H11A13302   2.909   5.405   6.450  2.9143  2.4883  0.3234
  125OSM   H11B13303   2.759   5.388   6.342  1.4541 -2.1213 -1.5866
  125OSM      P13304   2.716   5.661   6.298  0.0617  0.0604 -0.0883
  125OSM    O1313305   2.744   5.810   6.311  0.2926 -0.4771  0.0518
  125OSM    O1413306   2.719   5.611   6.160  0.0027  0.1228  0.2327
  125OSM    O1113307   2.568   5.635   6.360  0.0045  0.8828 -0.0952
  125OSM    O1213308   2.818   5.583   6.388  0.0393 -0.4292  0.0202
  125OSM    C1S13309   2.547   5.565   6.482  0.5032  0.2079 -0.7757
  125OSM    H1S13310   2.636   5.504   6.510 -2.2530 -3.4315  0.9286
  125OSM    H1T13311   2.467   5.490   6.463  0.4606 -0.1661  0.7823
  125OSM     NF13312   2.509   5.586   6.732 -0.0637 -0.6973  0.3587
  125OSM    HNF13313   2.423   5.549   6.766 -0.6387  1.2455  1.1277
  125OSM    C2S13314   2.502   5.655   6.604 -0.0691 -0.3169 -0.1443
  125OSM    H2S13315   2.576   5.737   6.610  0.2931 -0.7240  1.2704
  125OSM    C3S13316   2.374   5.721   6.568 -0.0395 -0.5242 -0.1217
  125OSM    H3S13317   2.291   5.648   6.552 -1.5606  0.9543  0.7080
  125OSM     O313318   2.382   5.794   6.445 -0.0104  0.3126 -0.3200
  125OSM    HO313319   2.461   5.758   6.404  0.6813  0.5609  0.7466
  125OSM    C4S13320   2.336   5.826   6.663  0.3822  0.3111 -0.7522
  125OSM    H4S13321   2.403   5.913   6.660 -1.1069  1.6373  1.3257
  125OSM    C5S13322   2.249   5.809   6.768  0.0519 -0.2644  0.1788
  125OSM    H5S13323   2.221   5.703   6.784  2.9447 -0.5881  4.8752
  125OSM    C6S13324   2.211   5.901   6.885 -0.3279 -0.5655  0.7013
  125OSM    H6S13325   2.105   5.885   6.915 -0.3774 -2.5673 -0.3888
  125OSM    H6T13326   2.221   6.004   6.845  0.4147 -1.4708 -1.6107
  125OSM    C7S13327   2.306   5.873   7.003 -0.4407 -0.1113 -0.0395
  125OSM    H7S13328   2.270   5.948   7.077  0.9101  0.7557 -0.2261
  125OSM    H7T13329   2.405   5.914   6.973  0.0094 -0.3986  0.9889
  125OSM    C8S13330   2.301   5.728   7.049  1.0358  0.2144  0.2026
  125OSM    H8S13331   2.332   5.667   6.962 -2.1643  0.1932 -1.0229
  125OSM    H8T13332   2.198   5.702   7.080  0.1887 -0.6646 -3.0321
  125OSM    C9S13333   2.388   5.687   7.164  0.7266 -0.7815  0.3277
  125OSM    H9S13334   2.495   5.713   7.146  0.0749  1.9653  0.0546
  125OSM    H9T13335   2.379   5.578   7.183 -0.1344 -0.5542  1.3341
  125OSM   C10S13336   2.347   5.765   7.291 -0.1383 -0.5765 -0.1839
  125OSM   H10S13337   2.239   5.790   7.280 -0.0805  1.9249  3.2565
  125OSM   H10T13338   2.396   5.864   7.289 -1.0488 -0.1160 -0.5168
  125OSM   C11S13339   2.383   5.701   7.430  1.0631 -0.1194 -0.0090
  125OSM   H11S13340   2.494   5.695   7.432  1.0659 -1.4234 -1.8588
  125OSM   H11T13341   2.340   5.599   7.442  1.6036 -0.2749  0.6621
  125OSM   C12S13342   2.319   5.783   7.542 -0.2804  1.0315 -0.2245
  125OSM   H12S13343   2.215   5.820   7.531 -0.7485  0.9364  2.8109
  125OSM   H12T13344   2.387   5.868   7.562 -2.6629  2.9773  0.0069
  125OSM   C13S13345   2.317   5.700   7.676  0.3701  0.3604 -0.2991
  125OSM   H13S13346   2.414   5.649   7.692  0.5569  1.1101  1.1015
  125OSM   H13T13347   2.241   5.620   7.676  0.7774 -0.0912  2.0933
  125OSM   C14S13348   2.298   5.791   7.800  0.4597  0.1588  0.2906
  125OSM   H14S13349   2.214   5.862   7.785 -0.4098 -0.9855 -0.4316
  125OSM   H14T13350   2.392   5.850   7.811  0.2450  1.6165 -4.0655
  125OSM   C15S13351   2.283   5.724   7.938 -0.3954  0.1190 -0.1871
  125OSM   H15S13352   2.371   5.662   7.966 -0.4491  0.5053  0.8604
  125OSM   H15T13353   2.198   5.652   7.938  0.2958 -0.7147 -0.2343
  125OSM   C16S13354   2.262   5.834   8.046 -0.0807  0.1676 -0.8659
  125OSM   H16S13355   2.158   5.872   8.032  0.4174  0.8384 -3.2223
  125OSM   H16T13356   2.320   5.927   8.029 -3.0545  2.7812  1.9246
  125OSM   C17S13357   2.295   5.793   8.190  0.2872 -0.5071 -0.3191
  125OSM   H17S13358   2.400   5.758   8.191 -0.5493 -3.3470  1.7372
  125OSM   H17T13359   2.228   5.707   8.212 -1.2919  0.4495 -1.1977
  125OSM   C18S13360   2.284   5.904   8.297  0.3628  0.8230  0.3827
  125OSM   H18S13361   2.363   5.982   8.290  2.5004 -1.1968  0.7696
  125OSM   H18T13362   2.288   5.855   8.397  0.5134 -0.5355 -0.2662
  125OSM   H18U13363   2.185   5.954   8.289 -0.5770 -0.9669  0.3189
  125OSM    C1F13364   2.620   5.547   6.787 -0.4579 -0.6348  0.4470
  125OSM     OF13365   2.733   5.572   6.738  0.0818  0.7504  0.0998
  125OSM    C2F13366   2.612   5.485   6.927 -0.4312  0.5125  0.2756
  125OSM    H2F13367   2.537   5.403   6.925 -2.2692  2.1023  1.1224
  125OSM    H2G13368   2.573   5.562   6.997 -1.5344 -0.0707  0.3427
  125OSM    C3F13369   2.749   5.440   6.971 -0.3997  0.2313  0.8217
  125OSM    H3F13370   2.810   5.532   6.978 -0.7491  0.4833  0.5749
  125OSM    H3G13371   2.789   5.350   6.918 -4.1598 -1.2838  0.2758
  125OSM    C4F13372   2.735   5.386   7.113  0.0832  0.3648  0.5612
  125OSM    H4F13373   2.836   5.351   7.143  1.3181  4.1561  1.2678
  125OSM    H4G13374   2.666   5.299   7.114 -1.9090  1.7982 -1.8353
  125OSM    C5F13375   2.706   5.484   7.228 -0.2389  0.5857  0.5833
  125OSM    H5F13376   2.604   5.527   7.224  0.0289  1.4180 -4.6449
  125OSM    H5G13377   2.782   5.562   7.206  0.4034 -0.5891 -1.7316
  125OSM    C6F13378   2.726   5.420   7.371 -0.8804  0.4442  0.1837
  125OSM    H6F13379   2.819   5.360   7.376 -0.1639  1.4309 -0.6501
  125OSM    H6G13380   2.637   5.356   7.389 -0.1354 -1.2958 -1.9678
  125OSM    C7F13381   2.736   5.525   7.485  0.6261  0.1477  0.2438
  125OSM    H7F13382   2.667   5.610   7.466  0.9162  0.5710  0.9924
  125OSM    H7G13383   2.841   5.562   7.474  0.9079 -1.1390 -1.6898
  125OSM    C8F13384   2.700   5.473   7.622 -0.0717  0.0959  0.3652
  125OSM    H8F13385   2.590   5.459   7.630  0.0298 -0.9420  0.1135
  125OSM    H8G13386   2.712   5.554   7.697 -3.8605  0.5459  0.6762
  125OSM    C9F13387   2.779   5.354   7.646 -0.7171 -0.5592  0.7564
  125OSM    H9F13388   2.761   5.263   7.585  1.3619  0.7920 -2.0939
  125OSM   C10F13389   2.881   5.341   7.742 -0.2791 -0.4548  0.5996
  125OSM   H10F13390   2.934   5.245   7.737  1.0363  0.1673 -5.1423
  125OSM   C11F13391   2.929   5.445   7.834  0.3061  0.0253 -0.6074
  125OSM   H11F13392   2.903   5.547   7.800 -1.2602  0.2097  1.0085
  125OSM   H11G13393   3.040   5.439   7.842  0.4231  1.0250 -1.2798
  125OSM   C12F13394   2.861   5.428   7.975 -0.0506 -0.1657  0.3815
  125OSM   H12F13395   2.751   5.412   7.969 -0.2699  0.8347  1.3833
  125OSM   H12G13396   2.887   5.524   8.024 -0.1690  0.0627 -0.0017
  125OSM   C13F13397   2.923   5.300   8.046 -0.4024  0.0951 -0.0912
  125OSM   H13F13398   3.032   5.319   8.045 -0.2352 -0.8236 -1.0765
  125OSM   H13G13399   2.904   5.214   7.977  1.0543  1.2419 -2.0174
  125OSM   C14F13400   2.862   5.276   8.182 -0.1318 -0.6947 -0.8419
  125OSM   H14F13401   2.929   5.201   8.230  0.6121 -0.1981 -1.1034
  125OSM   H14G13402   2.760   5.231   8.188 -0.2643 -0.2045  1.4083
  125OSM   C15F13403   2.878   5.398   8.271  0.1826 -0.1579  0.0540
  125OSM   H15F13404   2.792   5.467   8.259 -0.9550 -1.4708  0.4542
  125OSM   H15G13405   2.966   5.453   8.231  1.1756 -1.2867  0.6268
  125OSM   C16F13406   2.882   5.370   8.424 -0.2344  0.1745 -0.0772
  125OSM   H16F13407   2.975   5.315   8.450 -1.4415 -1.6634  0.5935
  125OSM   H16G13408   2.796   5.304   8.449  1.2855 -2.2594 -0.8908
  125OSM   C17F13409   2.889   5.494   8.509  0.4778 -0.3356 -0.0119
  125OSM   H17F13410   2.792   5.545   8.491 -0.5850 -1.9797  0.8123
  125OSM   H17G13411   2.969   5.561   8.471  1.1566 -2.1537 -1.9889
  125OSM   C18F13412   2.917   5.481   8.665 -0.3022 -0.3052 -0.1918
  125OSM   H18F13413   2.838   5.420   8.715 -1.5165 -0.2262 -1.9447
  125OSM   H18G13414   2.909   5.583   8.708  2.0608  0.2441 -0.8943
  125OSM   H18H13415   3.019   5.441   8.685 -0.0547  0.0941 -0.6514
  126OSM      N13416   5.917   6.668   6.157 -0.4095 -0.0809 -0.5706
  126OSM    C1513417   6.014   6.612   6.060 -0.5115  1.1973 -0.4914
  126OSM   H15A13418   6.056   6.525   6.110 -2.6785  1.3986  1.9150
  126OSM   H15B13419   6.094   6.681   6.040  2.9284 -2.8281 -2.1660
  126OSM   H15C13420   5.952   6.587   5.975 -0.6480 -0.1157 -0.0389
  126OSM    C1413421   5.874   6.804   6.117  0.0115 -0.6791  0.0149
  126OSM   H14A13422   5.958   6.866   6.091  1.0716 -2.2445 -0.4397
  126OSM   H14B13423   5.833   6.851   6.205  0.6680 -1.5217  0.7869
  126OSM   H14C13424   5.812   6.802   6.028  2.0491  1.0188 -1.5383
  126OSM    C1313425   5.793   6.586   6.163  0.8460 -0.0688 -0.3445
  126OSM   H13A13426   5.755   6.575   6.062 -1.2565 -3.1445  0.6084
  126OSM   H13B13427   5.708   6.631   6.212  0.4639  0.1142 -1.1594
  126OSM   H13C13428   5.810   6.489   6.208  3.4878 -0.3423 -1.7429
  126OSM    C1213429   5.990   6.677   6.295 -0.2006 -0.1488  0.2002
  126OSM   H12A13430   6.087   6.724   6.286 -0.3149  0.0915  0.1910
  126OSM   H12B13431   6.024   6.578   6.320  1.8731 -0.1215 -2.1834
  126OSM    C1113432   5.905   6.742   6.413 -0.5107  0.3726 -0.0321
  126OSM   H11A13433   5.966   6.738   6.506  1.2438  2.2843 -1.0242
  126OSM   H11B13434   5.819   6.673   6.429 -1.5038  1.6124  0.0835
  126OSM      P13435   5.988   6.984   6.426  0.4124  0.5130 -0.0842
  126OSM    O1313436   6.116   6.969   6.352 -0.2613 -0.1089  0.0459
  126OSM    O1413437   5.924   7.118   6.411 -0.4468 -0.4292  0.7192
  126OSM    O1113438   6.013   6.970   6.582 -0.6891  0.3882 -0.6893
  126OSM    O1213439   5.879   6.879   6.389  0.0856 -0.0514 -0.0477
  126OSM    C1S13440   6.119   7.045   6.642  0.1323  0.6491 -0.1968
  126OSM    H1S13441   6.130   7.146   6.596 -4.4071  1.6573  0.4666
  126OSM    H1T13442   6.213   6.986   6.635  0.0012  0.4094  0.0350
  126OSM     NF13443   6.191   7.170   6.842  0.6013  0.2388 -0.2214
  126OSM    HNF13444   6.260   7.145   6.909 -0.3134 -0.4222  0.4895
  126OSM    C2S13445   6.095   7.080   6.793 -0.4261  0.8859 -0.5745
  126OSM    H2S13446   5.990   7.115   6.807 -0.2456  0.2122  3.5745
  126OSM    C3S13447   6.103   6.942   6.877  0.2185  0.2601  0.0452
  126OSM    H3S13448   6.212   6.931   6.895  0.2065  0.6844  0.3954
  126OSM     O313449   6.058   6.829   6.806 -0.6523  0.2967 -0.2282
  126OSM    HO313450   6.037   6.868   6.721  2.3157  0.8776 -0.8079
  126OSM    C4S13451   6.033   6.971   7.002 -0.0651  0.0855 -0.1200
  126OSM    H4S13452   6.096   7.032   7.067  0.0469 -2.1024  1.9710
  126OSM    C5S13453   5.911   6.934   7.041 -0.4698 -0.0178  0.5507
  126OSM    H5S13454   5.857   6.880   6.962 -0.0276  1.0219 -0.4979
  126OSM    C6S13455   5.835   6.960   7.169 -0.2842 -0.6916  0.2576
  126OSM    H6S13456   5.763   7.044   7.170  0.3989 -0.0883 -0.1612
  126OSM    H6T13457   5.908   6.992   7.246 -0.6670 -0.0193  0.3422
  126OSM    C7S13458   5.785   6.831   7.231 -0.1055  0.2944 -0.6410
  126OSM    H7S13459   5.872   6.777   7.273 -1.2586 -0.8419  0.3700
  126OSM    H7T13460   5.729   6.773   7.154  0.6580 -0.5575 -0.5705
  126OSM    C8S13461   5.687   6.845   7.345 -0.3477  0.5157  0.1465
  126OSM    H8S13462   5.654   6.744   7.380  1.1419 -0.9164 -2.2774
  126OSM    H8T13463   5.600   6.904   7.310 -0.7093  0.5549  1.0873
  126OSM    C9S13464   5.752   6.915   7.463  0.7454 -0.7474 -0.3772
  126OSM    H9S13465   5.825   6.992   7.429 -0.4999 -0.9066 -3.9167
  126OSM    H9T13466   5.814   6.843   7.520  1.3082 -1.5254 -1.9230
  126OSM   C10S13467   5.652   6.956   7.561 -0.1562 -0.4362 -0.1323
  126OSM   H10S13468   5.599   6.862   7.587  0.6891 -0.7034  0.6615
  126OSM   H10T13469   5.580   7.028   7.515  0.5026 -0.0895 -0.6345
  126OSM   C11S13470   5.717   7.014   7.689 -0.3041  0.1722  0.1074
  126OSM   H11S13471   5.804   6.945   7.699 -1.0966 -0.8097  0.4296
  126OSM   H11T13472   5.650   7.001   7.777  0.9316 -1.6242  0.8525
  126OSM   C12S13473   5.758   7.161   7.684 -0.0443  0.3310 -0.1311
  126OSM   H12S13474   5.664   7.214   7.659  1.2524  1.4344 -3.2410
  126OSM   H12T13475   5.836   7.182   7.607  1.5478 -1.6787  0.8333
  126OSM   C13S13476   5.819   7.221   7.814  0.1353  0.3488  0.5002
  126OSM   H13S13477   5.731   7.225   7.882 -1.1834 -0.6084 -1.0553
  126OSM   H13T13478   5.848   7.324   7.783 -2.3208  0.3755 -2.2031
  126OSM   C14S13479   5.934   7.155   7.883 -0.5884 -0.2857 -0.1937
  126OSM   H14S13480   6.021   7.144   7.815  0.2988 -0.3838  0.9271
  126OSM   H14T13481   5.922   7.046   7.903 -0.8237 -0.0371  1.1224
  126OSM   C15S13482   5.980   7.231   8.004  0.4741 -0.3319  0.5205
  126OSM   H15S13483   6.019   7.331   7.975 -0.3793 -0.5835 -1.7253
  126OSM   H15T13484   6.065   7.178   8.053  0.9438  1.2006  1.4311
  126OSM   C16S13485   5.881   7.249   8.117  0.8147  0.4733 -0.1363
  126OSM   H16S13486   5.830   7.154   8.143 -1.7184  2.3281  2.2762
  126OSM   H16T13487   5.803   7.321   8.083 -1.0435 -1.0325  0.7118
  126OSM   C17S13488   5.937   7.314   8.247 -0.3455  0.3374 -0.1014
  126OSM   H17S13489   6.015   7.250   8.294 -2.9692 -2.7056  0.5394
  126OSM   H17T13490   5.854   7.312   8.321 -0.8174 -0.7673 -0.6239
  126OSM   C18S13491   5.980   7.466   8.236  0.0181 -0.0622 -0.0136
  126OSM   H18S13492   5.938   7.517   8.147  2.2059  1.2371 -0.3520
  126OSM   H18T13493   6.090   7.466   8.223 -0.2230 -2.8328 -3.8388
  126OSM   H18U13494   5.944   7.521   8.326 -1.8618  0.5438 -1.0706
  126OSM    C1F13495   6.181   7.294   6.794 -0.2587  0.4251 -0.8974
  126OSM     OF13496   6.075   7.341   6.755 -0.1313  0.3777 -0.1270
  126OSM    C2F13497   6.312   7.359   6.760 -0.0960 -0.3361  0.2283
  126OSM    H2F13498   6.353   7.317   6.665  1.8276  0.7559  0.5134
  126OSM    H2G13499   6.395   7.334   6.830 -0.6894 -0.7861  0.7747
  126OSM    C3F13500   6.290   7.509   6.747 -0.5161 -0.1127 -0.6033
  126OSM    H3F13501   6.192   7.526   6.697 -1.9163 -1.0387  1.6959
  126OSM    H3G13502   6.376   7.547   6.687 -1.8117  0.9448 -1.8447
  126OSM    C4F13503   6.291   7.591   6.877 -0.1032  0.3457 -0.2257
  126OSM    H4F13504   6.234   7.534   6.954  0.4201 -0.1676 -0.2143
  126OSM    H4G13505   6.246   7.691   6.853 -2.0033 -0.6099 -0.8863
  126OSM    C5F13506   6.431   7.610   6.940 -0.2754 -0.3863 -0.0739
  126OSM    H5F13507   6.500   7.641   6.858  0.7275  3.3665  1.9349
  126OSM    H5G13508   6.477   7.512   6.963 -0.5343 -1.0421 -2.0982
  126OSM    C6F13509   6.440   7.735   7.039 -0.2889 -0.7182  0.0062
  126OSM    H6F13510   6.378   7.814   6.992  1.3137  0.3175 -0.4457
  126OSM    H6G13511   6.544   7.768   7.057 -0.1923 -1.3404  0.6571
  126OSM    C7F13512   6.370   7.722   7.173 -0.0545 -0.2014  0.5868
  126OSM    H7F13513   6.396   7.628   7.225  1.3027  0.2260  0.7281
  126OSM    H7G13514   6.262   7.721   7.150 -0.5493 -1.3589  2.7156
  126OSM    C8F13515   6.403   7.832   7.272  0.3866  0.0193  0.0156
  126OSM    H8F13516   6.373   7.920   7.210 -1.3699 -1.7086 -1.7317
  126OSM    H8G13517   6.514   7.837   7.282  0.9086 -0.0663 -3.9177
  126OSM    C9F13518   6.328   7.814   7.400 -0.2262 -0.1676  0.1754
  126OSM    H9F13519   6.239   7.748   7.398 -0.5041  0.2131 -0.0017
  126OSM   C10F13520   6.348   7.879   7.523  0.0091 -0.3720 -0.6842
  126OSM   H10F13521   6.278   7.842   7.599 -1.5658  2.4871 -0.6057
  126OSM   C11F13522   6.466   7.966   7.558  0.4544  0.5483 -0.1427
  126OSM   H11F13523   6.435   8.061   7.606  2.5975  0.7853  0.8768
  126OSM   H11G13524   6.532   7.993   7.473 -0.4757  1.9634 -0.4584
  126OSM   C12F13525   6.550   7.898   7.662  0.3655  0.1234 -0.3561
  126OSM   H12F13526   6.640   7.852   7.617 -0.3927 -0.8229 -0.9368
  126OSM   H12G13527   6.488   7.835   7.730 -1.0345 -0.0249 -1.7189
  126OSM   C13F13528   6.604   8.011   7.757  0.6647  0.0756  0.5376
  126OSM   H13F13529   6.522   8.068   7.805  0.3411 -0.9241  1.1784
  126OSM   H13G13530   6.666   8.083   7.698 -0.4347  0.3660 -0.3000
  126OSM   C14F13531   6.693   7.967   7.875  0.7592 -0.4354  0.8103
  126OSM   H14F13532   6.777   7.899   7.849  2.3847  1.2503  1.4269
  126OSM   H14G13533   6.630   7.905   7.943  1.0125 -0.7383  0.7717
  126OSM   C15F13534   6.766   8.080   7.946  0.4376 -0.1471  0.1300
  126OSM   H15F13535   6.864   8.110   7.903 -0.0702  1.0282 -0.2455
  126OSM   H15G13536   6.797   8.042   8.046 -2.5324  1.3079  1.7313
  126OSM   C16F13537   6.678   8.199   7.968  0.2762 -0.2376  0.2181
  126OSM   H16F13538   6.578   8.159   7.998 -0.0491  0.6628  0.3788
  126OSM   H16G13539   6.655   8.268   7.884  0.6153 -0.3092  0.0636
  126OSM   C17F13540   6.735   8.282   8.091  0.4696  0.3866  0.8416
  126OSM   H17F13541   6.744   8.235   8.192  2.1248  2.2340  1.6176
  126OSM   H17G13542   6.643   8.342   8.105  0.0792  0.5785 -2.0777
  126OSM   C18F13543   6.851   8.379   8.058  0.3752 -0.2396  0.4277
  126OSM   H18F13544   6.880   8.441   8.145 -0.0141  1.7984 -0.8046
  126OSM   H18G13545   6.811   8.446   7.979  2.1710 -0.2823 -0.5569
  126OSM   H18H13546   6.938   8.326   8.013  0.2199  0.0028 -0.1721
  127OSM      N13547   0.639   4.601   5.935 -0.0963  0.3650  0.2870
  127OSM    C1513548   0.542   4.716   5.949  0.4199  0.3775  0.3472
  127OSM   H15A13549   0.591   4.810   5.969 -0.7558  0.4359  3.4650
  127OSM   H15B13550   0.476   4.687   6.029 -0.1600 -0.0070 -0.2576
  127OSM   H15C13551   0.491   4.717   5.854  1.6579 -1.8206 -0.3921
  127OSM    C1413552   0.580   4.485   6.007  1.0613 -0.1496 -0.0397
  127OSM   H14A13553   0.498   4.445   5.949  1.0549  1.8285 -1.5083
  127OSM   H14B13554   0.542   4.522   6.101 -1.2099  0.7497 -1.2291
  127OSM   H14C13555   0.643   4.398   6.022 -1.9839 -2.8710 -1.6613
  127OSM    C1313556   0.658   4.560   5.793  0.4601  0.1758 -0.3366
  127OSM   H13A13557   0.680   4.646   5.731 -0.3778  1.1848  0.7201
  127OSM   H13B13558   0.561   4.530   5.757  0.3122 -0.4828  0.5804
  127OSM   H13C13559   0.733   4.483   5.781 -0.6686 -0.7590 -1.6946
  127OSM    C1213560   0.775   4.630   5.995 -0.2407  0.5749 -0.1624
  127OSM   H12A13561   0.835   4.544   5.972 -1.7549 -0.2191 -1.2556
  127OSM   H12B13562   0.752   4.638   6.101 -2.5647 -0.3950 -0.5495
  127OSM    C1113563   0.847   4.762   5.956 -0.4503 -0.3367 -0.6896
  127OSM   H11A13564   0.870   4.765   5.848  2.3120  0.8025 -0.1710
  127OSM   H11B13565   0.947   4.768   6.006 -1.0724  1.5646  0.4555
  127OSM      P13566   0.795   4.952   6.125 -0.3055  0.0889 -0.0114
  127OSM    O1313567   0.878   5.068   6.074 -0.2601 -0.1763 -0.0582
  127OSM    O1413568   0.677   4.992   6.196  0.1036 -0.3365  0.2363
  127OSM    O1113569   0.877   4.865   6.231 -0.0309 -0.1080  0.7010
  127OSM    O1213570   0.767   4.868   6.002 -0.1066  0.2400 -1.2469
  127OSM    C1S13571   0.856   4.884   6.374 -0.1638 -0.6799  1.0177
  127OSM    H1S13572   0.749   4.905   6.394 -0.2940  0.7114 -0.9276
  127OSM    H1T13573   0.921   4.971   6.399 -2.0130  1.0056  0.2189
  127OSM     NF13574   0.902   4.815   6.605  0.1391  0.4623 -0.6454
  127OSM    HNF13575   0.983   4.865   6.635  1.1536 -1.5864  0.1837
  127OSM    C2S13576   0.919   4.771   6.467 -0.2146  0.2571 -0.2434
  127OSM    H2S13577   0.867   4.675   6.445  2.4424 -2.4016  3.6938
  127OSM    C3S13578   1.065   4.742   6.422  0.2787  0.5290  0.2762
  127OSM    H3S13579   1.124   4.834   6.441 -0.4493  0.6166  2.3678
  127OSM     O313580   1.077   4.723   6.287  0.2729  0.4966  0.3256
  127OSM    HO313581   0.999   4.772   6.260 -1.9078 -2.0371  1.6099
  127OSM    C4S13582   1.119   4.628   6.504 -0.2709 -0.6733 -0.0362
  127OSM    H4S13583   1.079   4.533   6.465 -0.0399 -1.9101  2.5724
  127OSM    C5S13584   1.204   4.634   6.606  0.0108 -0.2177  0.1163
  127OSM    H5S13585   1.236   4.734   6.639  3.0310 -0.9104 -0.4024
  127OSM    C6S13586   1.268   4.516   6.678 -0.4530 -0.2725  0.0052
  127OSM    H6S13587   1.363   4.490   6.627  0.3282  1.3451  0.5571
  127OSM    H6T13588   1.201   4.429   6.693 -0.3264 -0.3928 -0.1311
  127OSM    C7S13589   1.299   4.550   6.825 -0.2692  0.8338 -0.2171
  127OSM    H7S13590   1.335   4.654   6.836 -0.3005  0.6211  2.3946
  127OSM    H7T13591   1.381   4.481   6.855 -0.5134  1.1823  1.2967
  127OSM    C8S13592   1.169   4.528   6.906  0.5254  0.6954  0.0806
  127OSM    H8S13593   1.148   4.418   6.906 -1.2645  1.0051  0.6300
  127OSM    H8T13594   1.083   4.578   6.858  0.1203 -0.2297 -0.1942
  127OSM    C9S13595   1.169   4.569   7.049 -0.8793 -0.7662 -0.1919
  127OSM    H9S13596   1.063   4.590   7.075  0.1413  3.1994  1.4826
  127OSM    H9T13597   1.222   4.665   7.066 -0.0678 -1.3995  1.0684
  127OSM   C10S13598   1.230   4.462   7.147 -0.1951 -0.8230  0.4695
  127OSM   H10S13599   1.339   4.467   7.167 -0.5038 -0.1655  2.1150
  127OSM   H10T13600   1.203   4.364   7.102  0.1623  0.0341 -1.7484
  127OSM   C11S13601   1.162   4.467   7.285 -0.5884 -0.1312  0.0721
  127OSM   H11S13602   1.054   4.461   7.259 -1.0248  1.3946  1.3988
  127OSM   H11T13603   1.175   4.565   7.335 -3.8212 -0.5412  1.9526
  127OSM   C12S13604   1.203   4.354   7.379  0.0683 -0.2684 -0.6003
  127OSM   H12S13605   1.309   4.373   7.405 -0.4392 -1.0781  2.4112
  127OSM   H12T13606   1.189   4.255   7.330  2.2739 -0.0462 -1.7944
  127OSM   C13S13607   1.117   4.350   7.509 -0.5667 -0.7008  0.4083
  127OSM   H13S13608   1.011   4.336   7.479 -0.2304  0.3633 -1.4620
  127OSM   H13T13609   1.134   4.451   7.552  0.1903 -0.0938 -1.2493
  127OSM   C14S13610   1.164   4.251   7.616 -0.4696  0.6140  0.6574
  127OSM   H14S13611   1.195   4.155   7.569  3.1101  1.0920  1.7012
  127OSM   H14T13612   1.077   4.230   7.681 -1.2283 -1.0466 -0.8081
  127OSM   C15S13613   1.289   4.288   7.689  0.5075  0.2446  0.0963
  127OSM   H15S13614   1.282   4.394   7.721 -0.8239  0.1847  0.0464
  127OSM   H15T13615   1.374   4.283   7.617  1.7802 -0.8233  1.6163
  127OSM   C16S13616   1.328   4.195   7.806  0.4317  0.2806  0.3035
  127OSM   H16S13617   1.434   4.196   7.839  0.8316 -2.3955 -0.6938
  127OSM   H16T13618   1.306   4.092   7.771  3.8757 -0.6843  0.6684
  127OSM   C17S13619   1.247   4.235   7.926  0.0168  0.3390  0.1444
  127OSM   H17S13620   1.143   4.244   7.888  0.2419 -0.1579 -0.6060
  127OSM   H17T13621   1.277   4.339   7.951 -1.3557  0.2935  2.2722
  127OSM   C18S13622   1.239   4.124   8.030 -0.3020  0.1833  0.7100
  127OSM   H18S13623   1.341   4.094   8.064 -0.3638 -1.0201 -0.1334
  127OSM   H18T13624   1.185   4.038   7.987 -0.1256  0.2961  0.2580
  127OSM   H18U13625   1.175   4.149   8.117 -1.5965  1.2815 -0.5184
  127OSM    C1F13626   0.788   4.826   6.670 -0.1761 -0.7280 -0.4081
  127OSM     OF13627   0.684   4.777   6.626  0.1258 -0.2427  0.7113
  127OSM    C2F13628   0.794   4.904   6.800  0.5114 -0.1719  0.2578
  127OSM    H2F13629   0.717   4.984   6.798  0.8585  0.1916  1.0581
  127OSM    H2G13630   0.883   4.969   6.795 -0.5808  1.4654  1.1285
  127OSM    C3F13631   0.800   4.816   6.927  0.3282 -0.6801  0.9263
  127OSM    H3F13632   0.902   4.771   6.933  0.5834 -0.1919  0.3721
  127OSM    H3G13633   0.729   4.730   6.930  0.6811 -0.9898  0.5467
  127OSM    C4F13634   0.785   4.899   7.056 -0.5114  0.4164  0.4080
  127OSM    H4F13635   0.679   4.911   7.087 -0.0605 -1.4156  2.9618
  127OSM    H4G13636   0.821   5.003   7.039 -0.0552  0.0165 -1.3862
  127OSM    C5F13637   0.861   4.833   7.171  0.6809  0.2587 -0.8325
  127OSM    H5F13638   0.839   4.893   7.263 -0.8327 -1.3176 -0.1165
  127OSM    H5G13639   0.971   4.839   7.155  0.5899  1.4933 -1.1072
  127OSM    C6F13640   0.823   4.691   7.193 -0.0682  0.9847 -0.4364
  127OSM    H6F13641   0.872   4.623   7.120  0.8521 -1.5165  2.2916
  127OSM    H6G13642   0.715   4.684   7.169 -0.5038  1.5150  1.2522
  127OSM    C7F13643   0.847   4.624   7.327  0.3088 -0.4569 -0.3388
  127OSM    H7F13644   0.951   4.624   7.367 -0.5149 -2.9581  2.1561
  127OSM    H7G13645   0.832   4.515   7.308 -0.8201 -0.3447 -0.1559
  127OSM    C8F13646   0.736   4.659   7.424  0.0872 -0.2581 -0.7480
  127OSM    H8F13647   0.642   4.606   7.397 -1.7124  1.2910  2.0868
  127OSM    H8G13648   0.703   4.765   7.428  1.0995  0.3438 -4.5067
  127OSM    C9F13649   0.757   4.594   7.562 -0.5177 -0.0174  0.2824
  127OSM    H9F13650   0.788   4.489   7.564 -0.0059  0.0378 -1.9151
  127OSM   C10F13651   0.749   4.653   7.681 -0.3218 -0.0652 -0.2980
  127OSM   H10F13652   0.767   4.599   7.775 -0.0174  0.5162 -0.0163
  127OSM   C11F13653   0.708   4.794   7.712  0.1544 -0.0287 -0.0670
  127OSM   H11F13654   0.668   4.846   7.622  2.1985  2.1512  0.1718
  127OSM   H11G13655   0.804   4.847   7.729  1.0988 -1.0739 -1.8212
  127OSM   C12F13656   0.622   4.805   7.832 -0.1596 -0.7377 -0.2868
  127OSM   H12F13657   0.528   4.746   7.837  0.3117 -1.5997 -1.3675
  127OSM   H12G13658   0.593   4.912   7.843  0.9011 -0.4897  0.2084
  127OSM   C13F13659   0.688   4.768   7.967  0.7310 -0.7725  0.0105
  127OSM   H13F13660   0.788   4.816   7.961  1.3956 -2.2427 -1.7103
  127OSM   H13G13661   0.705   4.661   7.990  2.2907 -0.8002 -1.0752
  127OSM   C14F13662   0.614   4.839   8.084 -0.0152 -0.6568 -0.3954
  127OSM   H14F13663   0.513   4.799   8.064 -0.0640 -0.6308 -0.2091
  127OSM   H14G13664   0.611   4.950   8.083  1.4293 -0.5497  1.2944
  127OSM   C15F13665   0.674   4.799   8.219  0.3025  0.1604  0.3942
  127OSM   H15F13666   0.674   4.689   8.233 -0.7537 -0.2032 -1.9559
  127OSM   H15G13667   0.611   4.844   8.299  0.9549 -2.2800  2.3994
  127OSM   C16F13668   0.812   4.859   8.260  1.1512 -0.4477 -0.8233
  127OSM   H16F13669   0.805   4.968   8.245 -0.1893  0.0438  2.3870
  127OSM   H16G13670   0.889   4.817   8.192  0.5302 -0.0799 -1.7730
  127OSM   C17F13671   0.864   4.838   8.402 -0.0380 -0.4924  0.5314
  127OSM   H17F13672   0.845   4.731   8.427 -0.6504 -0.2226  1.2802
  127OSM   H17G13673   0.805   4.904   8.470  0.1733  0.0614  0.1802
  127OSM   C18F13674   1.010   4.876   8.415 -0.4703 -0.7443 -0.1210
  127OSM   H18F13675   1.046   4.880   8.521  0.3859 -2.8228 -0.2809
  127OSM   H18G13676   1.019   4.981   8.381  0.7698 -0.9489 -0.4735
  127OSM   H18H13677   1.069   4.801   8.358  0.8379  0.2381 -0.1249
  128OSM      N13678   2.879   6.640   5.762  0.2483  0.6309 -0.0915
  128OSM    C1513679   2.741   6.588   5.791 -0.2436  0.1076 -0.7064
  128OSM   H15A13680   2.679   6.580   5.703 -0.7303 -1.8084 -0.2307
  128OSM   H15B13681   2.688   6.653   5.859  0.3893  2.4070 -2.3106
  128OSM   H15C13682   2.746   6.491   5.838 -1.1443  0.4138  0.0578
  128OSM    C1413683   2.968   6.533   5.714 -0.4394 -0.9270  0.0287
  128OSM   H14A13684   2.915   6.475   5.639 -0.3679 -0.4847 -0.3688
  128OSM   H14B13685   3.009   6.472   5.793  1.5322  1.8733  1.3313
  128OSM   H14C13686   3.050   6.591   5.673 -0.2371 -0.2926  1.3005
  128OSM    C1313687   2.864   6.747   5.655  0.0201  0.9553  0.9449
  128OSM   H13A13688   2.818   6.702   5.569 -0.5572 -0.2614  1.8515
  128OSM   H13B13689   2.959   6.790   5.629  0.7116 -1.5173 -0.9603
  128OSM   H13C13690   2.800   6.824   5.698  0.5876  0.9655  1.8058
  128OSM    C1213691   2.947   6.706   5.888  0.3331 -0.4073 -0.1883
  128OSM   H12A13692   2.892   6.797   5.908  2.0119  0.2981  1.5197
  128OSM   H12B13693   3.042   6.751   5.863  0.8015 -0.2705  1.6895
  128OSM    C1113694   2.975   6.624   6.019  0.7252  0.2415 -0.1871
  128OSM   H11A13695   2.883   6.570   6.050  0.7317  0.7676  0.7701
  128OSM   H11B13696   2.992   6.698   6.100  1.0449  1.9091 -1.7075
  128OSM      P13697   3.225   6.590   6.004 -0.0467  0.4135  0.0417
  128OSM    O1313698   3.325   6.478   5.992  0.4860 -0.1101 -0.0806
  128OSM    O1413699   3.248   6.706   5.919  0.8065  0.3604  0.1308
  128OSM    O1113700   3.221   6.632   6.157  0.4009  0.0967  0.5726
  128OSM    O1213701   3.081   6.527   5.991  0.2991  0.1238 -0.3035
  128OSM    C1S13702   3.187   6.527   6.250 -0.4108 -0.4941  0.2374
  128OSM    H1S13703   3.228   6.426   6.226  2.4065  0.4878  0.5254
  128OSM    H1T13704   3.079   6.517   6.272 -0.1387 -0.2137  1.7698
  128OSM     NF13705   3.254   6.440   6.476 -0.1435 -0.0543 -0.5185
  128OSM    HNF13706   3.176   6.425   6.535  1.8406 -0.1118  2.2515
  128OSM    C2S13707   3.250   6.560   6.390  0.2528 -0.0196  0.7655
  128OSM    H2S13708   3.358   6.583   6.378  0.4271 -1.9596 -2.1622
  128OSM    C3S13709   3.168   6.674   6.458  0.2982  0.2696  0.5299
  128OSM    H3S13710   3.067   6.629   6.466 -0.6846  2.2844  0.0670
  128OSM     O313711   3.159   6.792   6.388 -0.3911  0.1843 -0.0095
  128OSM    HO313712   3.166   6.781   6.293  2.1333  1.5117 -0.0866
  128OSM    C4S13713   3.215   6.704   6.598 -0.3033  0.7080  0.5990
  128OSM    H4S13714   3.147   6.656   6.671  0.6267  0.5413  1.3694
  128OSM    C5S13715   3.311   6.784   6.642  0.0125 -0.1415  0.1392
  128OSM    H5S13716   3.385   6.831   6.576 -1.1553  1.2578 -0.2318
  128OSM    C6S13717   3.352   6.792   6.793 -0.3809  0.0386  0.1831
  128OSM    H6S13718   3.342   6.898   6.825 -0.3816 -0.1508  0.8134
  128OSM    H6T13719   3.461   6.771   6.796 -0.3124  0.3127 -0.2331
  128OSM    C7S13720   3.279   6.702   6.893 -0.0382 -0.0007  1.0709
  128OSM    H7S13721   3.299   6.594   6.877  1.1057  0.2987  0.3285
  128OSM    H7T13722   3.173   6.735   6.890  0.0836  0.3558  0.4613
  128OSM    C8S13723   3.323   6.731   7.035  0.6002 -0.2293  0.4135
  128OSM    H8S13724   3.277   6.825   7.073  0.1951  0.1452 -0.9542
  128OSM    H8T13725   3.433   6.746   7.023  0.1632  1.9329 -1.4809
  128OSM    C9S13726   3.307   6.612   7.128 -0.2860 -0.2092 -0.2035
  128OSM    H9S13727   3.393   6.545   7.107  1.1211  0.9923  1.3904
  128OSM    H9T13728   3.217   6.552   7.106 -0.6920  0.8533 -1.5421
  128OSM   C10S13729   3.288   6.661   7.272 -0.5108 -0.5857  0.1981
  128OSM   H10S13730   3.211   6.741   7.271  1.1477  1.1162 -0.6943
  128OSM   H10T13731   3.375   6.718   7.313 -0.7992 -0.0695  0.1044
  128OSM   C11S13732   3.260   6.557   7.369  0.5666  0.5267 -0.2919
  128OSM   H11S13733   3.356   6.503   7.384  1.2147  1.8242  0.4056
  128OSM   H11T13734   3.174   6.493   7.339 -0.6526  0.7763  2.3966
  128OSM   C12S13735   3.228   6.604   7.509  0.3520 -0.3899 -0.1423
  128OSM   H12S13736   3.152   6.684   7.512  2.1639  1.4324 -0.7066
  128OSM   H12T13737   3.320   6.660   7.538 -0.5825  1.3401 -0.3980
  128OSM   C13S13738   3.188   6.506   7.623  0.1202  0.6242  0.3225
  128OSM   H13S13739   3.244   6.409   7.618 -0.0516  0.5311  0.1993
  128OSM   H13T13740   3.083   6.481   7.600 -0.0255  0.8973  0.6816
  128OSM   C14S13741   3.193   6.575   7.760 -0.4570  0.2783 -0.5576
  128OSM   H14S13742   3.149   6.507   7.836 -0.2109  0.1871 -0.4941
  128OSM   H14T13743   3.133   6.668   7.762 -2.0426 -0.7091  0.1609
  128OSM   C15S13744   3.338   6.607   7.817  0.4610 -0.2392  0.5609
  128OSM   H15S13745   3.387   6.678   7.748  3.1007 -2.0735  0.3981
  128OSM   H15T13746   3.398   6.513   7.819  1.0020  0.0230 -1.2119
  128OSM   C16S13747   3.337   6.658   7.956  0.0826 -0.2038 -0.3091
  128OSM   H16S13748   3.261   6.611   8.022 -0.1846 -0.9476 -1.1254
  128OSM   H16T13749   3.312   6.766   7.953 -0.9743 -0.4286  0.1717
  128OSM   C17S13750   3.468   6.652   8.028 -0.2674  0.0014  0.6673
  128OSM   H17S13751   3.539   6.708   7.964 -0.4142  0.1175  0.6070
  128OSM   H17T13752   3.509   6.549   8.039 -0.5246 -0.3014 -0.9385
  128OSM   C18S13753   3.471   6.716   8.167 -0.6971  0.2241 -0.0222
  128OSM   H18S13754   3.402   6.652   8.226 -2.6195 -0.2717 -2.6127
  128OSM   H18T13755   3.432   6.820   8.157 -0.9599  0.2039  0.7266
  128OSM   H18U13756   3.575   6.719   8.204 -0.5856 -1.4951 -0.0962
  128OSM    C1F13757   3.323   6.328   6.441  0.0473  0.1453 -0.4292
  128OSM     OF13758   3.420   6.331   6.364 -0.7080 -0.5419 -0.3001
  128OSM    C2F13759   3.277   6.203   6.490  0.2641 -0.6769 -0.0973
  128OSM    H2F13760   3.261   6.141   6.399 -0.7209  0.0158 -0.4064
  128OSM    H2G13761   3.183   6.202   6.550  1.3069 -0.5116  1.6182
  128OSM    C3F13762   3.381   6.128   6.572  0.1006  0.0882  0.6401
  128OSM    H3F13763   3.458   6.106   6.494 -0.0744  0.2325  0.4256
  128OSM    H3G13764   3.343   6.025   6.592  0.5307  0.2191  2.2717
  128OSM    C4F13765   3.437   6.198   6.698  0.4838  0.3794 -0.2897
  128OSM    H4F13766   3.476   6.298   6.669 -0.9490  1.9003  2.6334
  128OSM    H4G13767   3.508   6.122   6.737 -0.1168 -0.7971 -1.4196
  128OSM    C5F13768   3.332   6.227   6.803  0.0184  0.3875 -1.0513
  128OSM    H5F13769   3.253   6.150   6.795  1.3622 -1.3274  1.2678
  128OSM    H5G13770   3.288   6.329   6.794  2.6918  1.9088  1.2739
  128OSM    C6F13771   3.381   6.219   6.959  0.6520 -0.2618 -0.2411
  128OSM    H6F13772   3.431   6.313   6.991 -2.1061  0.7070  1.5176
  128OSM    H6G13773   3.455   6.135   6.952 -0.5806 -1.2941 -1.6282
  128OSM    C7F13774   3.269   6.179   7.046 -0.2408  0.4208 -0.4547
  128OSM    H7F13775   3.209   6.115   6.977 -0.9898  0.5700  0.0530
  128OSM    H7G13776   3.219   6.274   7.071 -1.3936 -0.2110 -0.2887
  128OSM    C8F13777   3.317   6.092   7.166 -0.0859 -1.2093  0.0386
  128OSM    H8F13778   3.370   6.005   7.121 -1.4437 -0.6184 -2.9393
  128OSM    H8G13779   3.217   6.067   7.209 -1.6729  2.9094 -0.7606
  128OSM    C9F13780   3.404   6.167   7.271  0.0987  0.2466 -0.1158
  128OSM    H9F13781   3.504   6.190   7.231  1.1533 -1.2730  1.5322
  128OSM   C10F13782   3.368   6.181   7.402  0.2574 -0.2660  0.0532
  128OSM   H10F13783   3.431   6.236   7.473 -1.6050  0.9830  0.8420
  128OSM   C11F13784   3.232   6.125   7.456  0.1285  0.3274 -0.4133
  128OSM   H11F13785   3.184   6.042   7.399 -0.8208  1.4898 -1.3531
  128OSM   H11G13786   3.151   6.201   7.459 -0.2927 -0.1212  3.1194
  128OSM   C12F13787   3.262   6.053   7.592 -0.5157 -0.1361 -0.2544
  128OSM   H12F13788   3.352   5.988   7.583  0.1096  0.7693 -0.5774
  128OSM   H12G13789   3.178   5.981   7.607 -1.3136 -0.0301 -3.4214
  128OSM   C13F13790   3.287   6.140   7.718 -0.0025  0.0088  0.0213
  128OSM   H13F13791   3.200   6.207   7.730  0.0060 -0.0003  0.1322
  128OSM   H13G13792   3.378   6.199   7.692  0.6215  0.7394  3.4045
  128OSM   C14F13793   3.307   6.048   7.838  0.1537  0.2467  0.1057
  128OSM   H14F13794   3.383   5.971   7.810  1.6071  1.3508  0.8657
  128OSM   H14G13795   3.212   5.997   7.862  0.5020 -0.0555  0.8928
  128OSM   C15F13796   3.360   6.134   7.955 -0.7199 -0.0868  0.4309
  128OSM   H15F13797   3.450   6.192   7.924  0.6241 -1.5464  1.4684
  128OSM   H15G13798   3.387   6.064   8.036 -1.9505 -0.8420  0.2041
  128OSM   C16F13799   3.251   6.231   8.013  0.5603 -0.0812 -0.5197
  128OSM   H16F13800   3.178   6.166   8.066  1.5034  0.2318  1.2760
  128OSM   H16G13801   3.208   6.282   7.925 -1.3340  2.2181  1.5801
  128OSM   C17F13802   3.299   6.342   8.111 -0.7623  0.3550 -0.5912
  128OSM   H17F13803   3.219   6.415   8.135  1.3684  2.1219  1.6336
  128OSM   H17G13804   3.374   6.396   8.049 -1.1603 -0.8877 -2.2193
  128OSM   C18F13805   3.359   6.286   8.243  0.3743  0.0004  0.0649
  128OSM   H18F13806   3.413   6.373   8.286  0.1025  0.5066 -0.5941
  128OSM   H18G13807   3.435   6.206   8.229  0.6868  0.1811  0.6898
  128OSM   H18H13808   3.272   6.260   8.306 -1.2258  0.5263 -1.8248
  129OSM      N13809   6.604   4.715   6.184 -0.5182 -0.3400 -0.6445
  129OSM    C1513810   6.454   4.701   6.196  0.8055  0.1331  0.6395
  129OSM   H15A13811   6.427   4.597   6.207  1.8517 -0.3698 -1.2063
  129OSM   H15B13812   6.406   4.744   6.110 -2.0688 -0.2980  1.8929
  129OSM   H15C13813   6.412   4.760   6.276 -0.3864 -2.3029  1.9163
  129OSM    C1413814   6.650   4.651   6.055  0.2555 -0.7092 -0.3305
  129OSM   H14A13815   6.610   4.551   6.052  0.2836 -0.7598  0.7567
  129OSM   H14B13816   6.758   4.648   6.059  0.2103 -2.7474  0.7311
  129OSM   H14C13817   6.625   4.705   5.965 -0.6803 -0.1984  0.2304
  129OSM    C1313818   6.629   4.867   6.186 -0.3506  0.4203  0.4459
  129OSM   H13A13819   6.590   4.911   6.095  1.2781 -1.2218 -1.1297
  129OSM   H13B13820   6.732   4.899   6.183 -0.1736 -0.1650  0.1705
  129OSM   H13C13821   6.602   4.905   6.283  0.5404  0.1323  0.8148
  129OSM    C1213822   6.671   4.656   6.313 -0.4472 -0.1374 -0.1639
  129OSM   H12A13823   6.657   4.551   6.293  0.8856 -0.2065 -0.8204
  129OSM   H12B13824   6.618   4.678   6.405  0.0747  0.1224  0.0781
  129OSM    C1113825   6.822   4.699   6.337 -0.4435  0.4469  0.3458
  129OSM   H11A13826   6.858   4.682   6.441  2.6289 -0.6335 -0.7858
  129OSM   H11B13827   6.827   4.809   6.329  1.2854  0.5900  2.3469
  129OSM      P13828   6.983   4.748   6.130 -0.2368  0.2138 -0.0233
  129OSM    O1313829   6.967   4.690   5.992 -0.1051  0.0326 -1.0254
  129OSM    O1413830   6.952   4.888   6.154 -0.1837  0.2516  0.4936
  129OSM    O1113831   7.130   4.724   6.171  0.2458 -0.8774  0.1849
  129OSM    O1213832   6.907   4.657   6.234  0.2633  0.4750 -0.1693
  129OSM    C1S13833   7.213   4.804   6.264  0.1206  0.3788  0.4397
  129OSM    H1S13834   7.199   4.914   6.259 -0.9314  0.1962 -1.1011
  129OSM    H1T13835   7.315   4.793   6.223  0.2359 -0.9309  1.0007
  129OSM     NF13836   7.257   4.857   6.492 -0.0623  0.0231 -0.1695
  129OSM    HNF13837   7.346   4.838   6.531 -0.2332  1.5847  1.0622
  129OSM    C2S13838   7.193   4.758   6.415 -0.4907 -0.0300 -0.0156
  129OSM    H2S13839   7.087   4.766   6.445 -0.9560 -3.1982 -0.4754
  129OSM    C3S13840   7.237   4.614   6.432  0.2145  0.4791 -0.1333
  129OSM    H3S13841   7.340   4.601   6.392  0.5733  2.5430  0.0215
  129OSM     O313842   7.160   4.532   6.348  0.1400 -0.6546  0.6531
  129OSM    HO313843   7.131   4.589   6.277 -2.4195  0.1573  2.2251
  129OSM    C4S13844   7.220   4.575   6.575 -0.5346  0.2699  0.5851
  129OSM    H4S13845   7.306   4.616   6.630  0.2987 -0.0141 -0.4982
  129OSM    C5S13846   7.127   4.501   6.641  0.4348 -0.2163  0.1679
  129OSM    H5S13847   7.053   4.446   6.581  1.7017  0.0240 -1.7252
  129OSM    C6S13848   7.123   4.491   6.792  0.1252 -0.1208 -0.2602
  129OSM    H6S13849   7.189   4.408   6.822  0.7323  0.1382 -0.8571
  129OSM    H6T13850   7.018   4.460   6.812 -0.2326  0.6100 -0.9134
  129OSM    C7S13851   7.157   4.611   6.884 -0.6025  0.0603 -0.0450
  129OSM    H7S13852   7.072   4.681   6.867 -0.6954 -0.4900 -2.0615
  129OSM    H7T13853   7.255   4.654   6.853 -0.2728 -0.1292  0.7134
  129OSM    C8S13854   7.153   4.581   7.038 -0.5493 -0.3392 -0.3013
  129OSM    H8S13855   7.228   4.500   7.054 -1.3988 -0.8468  1.3786
  129OSM    H8T13856   7.052   4.547   7.071 -0.7073 -0.9754 -1.3636
  129OSM    C9S13857   7.186   4.703   7.126  0.4608 -0.0281  0.0668
  129OSM    H9S13858   7.114   4.784   7.101  1.3142  1.0182  0.8948
  129OSM    H9T13859   7.287   4.730   7.090  0.6308 -1.6768 -0.7892
  129OSM   C10S13860   7.182   4.661   7.277  0.4534 -0.5501  0.1877
  129OSM   H10S13861   7.253   4.576   7.287  0.1569 -1.5782 -4.4430
  129OSM   H10T13862   7.083   4.616   7.297  0.8668 -1.5232  0.0623
  129OSM   C11S13863   7.201   4.776   7.372 -0.2488 -0.2860 -0.7932
  129OSM   H11S13864   7.116   4.847   7.363 -1.2258 -1.4986 -1.4208
  129OSM   H11T13865   7.291   4.835   7.344 -0.8591  1.3338  0.4627
  129OSM   C12S13866   7.202   4.724   7.515 -0.4332 -0.5010 -0.1431
  129OSM   H12S13867   7.281   4.783   7.567 -1.4314  0.4668  0.3135
  129OSM   H12T13868   7.238   4.619   7.512  0.6547 -0.1599  0.3168
  129OSM   C13S13869   7.060   4.744   7.574  0.1485 -0.5242 -0.6462
  129OSM   H13S13870   6.988   4.705   7.500 -0.9142  3.8043 -2.2173
  129OSM   H13T13871   7.040   4.853   7.577  3.1436  0.1529 -1.3412
  129OSM   C14S13872   7.057   4.683   7.715  0.1871  0.3753 -0.1106
  129OSM   H14S13873   6.971   4.728   7.769 -1.2568  0.2519 -2.1505
  129OSM   H14T13874   7.142   4.714   7.779 -0.7359 -0.2239  1.4569
  129OSM   C15S13875   7.042   4.529   7.712  0.1458 -0.5265  0.3006
  129OSM   H15S13876   7.135   4.480   7.678  0.1030  0.0695 -0.6968
  129OSM   H15T13877   6.960   4.507   7.640  0.6045  0.8924 -0.6765
  129OSM   C16S13878   7.017   4.479   7.853 -0.1098 -0.7294  0.1897
  129OSM   H16S13879   7.024   4.369   7.862 -0.1885 -0.7189  0.3860
  129OSM   H16T13880   6.912   4.493   7.887 -0.4029 -1.5027 -0.3741
  129OSM   C17S13881   7.125   4.523   7.946 -0.2446  1.0641 -0.5719
  129OSM   H17S13882   7.090   4.485   8.045 -1.4065  1.2958 -0.8766
  129OSM   H17T13883   7.119   4.632   7.971  2.9236  0.9676  1.2049
  129OSM   C18S13884   7.270   4.479   7.912  0.9627 -1.2055 -0.3092
  129OSM   H18S13885   7.331   4.525   7.993 -0.1565 -0.2569  0.0248
  129OSM   H18T13886   7.302   4.525   7.816 -0.3701 -2.0447 -1.1951
  129OSM   H18U13887   7.282   4.368   7.915  0.1392 -1.3300 -1.1551
  129OSM    C1F13888   7.193   4.976   6.526 -0.1843  0.5481 -0.3118
  129OSM     OF13889   7.092   5.018   6.471 -0.2643  0.0059 -0.0547
  129OSM    C2F13890   7.246   5.045   6.644 -0.6109  0.7616  0.1351
  129OSM    H2F13891   7.356   5.048   6.632 -0.4891  1.3189  1.3273
  129OSM    H2G13892   7.221   4.969   6.721  1.1938 -0.1301 -0.1068
  129OSM    C3F13893   7.174   5.178   6.684  0.3544  0.7256 -0.3490
  129OSM    H3F13894   7.064   5.174   6.689  0.4178  0.0699  0.8960
  129OSM    H3G13895   7.204   5.255   6.610  3.1975  1.1283  1.0829
  129OSM    C4F13896   7.229   5.224   6.819 -0.6703 -0.7221 -0.0898
  129OSM    H4F13897   7.193   5.326   6.845 -0.6145 -0.7796  0.2232
  129OSM    H4G13898   7.340   5.220   6.815 -0.6248 -0.0232  0.2767
  129OSM    C5F13899   7.182   5.149   6.937 -0.4963  1.0155  0.1297
  129OSM    H5F13900   7.170   5.041   6.914 -0.2624  1.1646 -0.7420
  129OSM    H5G13901   7.076   5.177   6.955 -0.3703  1.0393  0.8579
  129OSM    C6F13902   7.259   5.196   7.067 -0.1296 -0.4141 -0.5388
  129OSM    H6F13903   7.210   5.293   7.091  0.2478 -0.3828  0.1348
  129OSM    H6G13904   7.364   5.203   7.032  0.1774  0.3794  0.5056
  129OSM    C7F13905   7.258   5.081   7.169 -0.6365 -1.0307 -0.1627
  129OSM    H7F13906   7.351   5.021   7.176  0.8354  1.1554  0.2359
  129OSM    H7G13907   7.161   5.029   7.153 -1.8872  1.0169  0.2670
  129OSM    C8F13908   7.242   5.129   7.320  0.3350  0.6290  0.2935
  129OSM    H8F13909   7.254   5.037   7.380  2.4030  1.1782  0.8087
  129OSM    H8G13910   7.141   5.172   7.336  0.7607  3.5883 -3.3725
  129OSM    C9F13911   7.344   5.239   7.346  0.3349  0.4325 -0.2333
  129OSM    H9F13912   7.363   5.315   7.269  1.1365  0.2232 -0.2506
  129OSM   C10F13913   7.418   5.253   7.461 -0.2727 -0.0731  0.5805
  129OSM   H10F13914   7.481   5.342   7.474 -1.5670  0.7302  1.5597
  129OSM   C11F13915   7.415   5.170   7.584  0.3566  0.5597  0.5402
  129OSM   H11F13916   7.505   5.108   7.602 -1.6572 -1.7627  3.4944
  129OSM   H11G13917   7.337   5.092   7.574  0.9862 -0.0314  0.1664
  129OSM   C12F13918   7.385   5.251   7.705  0.7017 -0.4196  0.4199
  129OSM   H12F13919   7.280   5.286   7.702  1.1558  1.0454  1.0431
  129OSM   H12G13920   7.454   5.337   7.712  0.7710 -0.5778  2.1989
  129OSM   C13F13921   7.398   5.175   7.834  0.3803  0.1714  0.2503
  129OSM   H13F13922   7.498   5.128   7.835  0.9445  1.1852  3.5752
  129OSM   H13G13923   7.324   5.094   7.854 -0.8545  1.4411  1.0499
  129OSM   C14F13924   7.386   5.268   7.953 -0.5809  0.3178 -0.5081
  129OSM   H14F13925   7.287   5.316   7.937 -0.9765 -0.7111 -1.2255
  129OSM   H14G13926   7.464   5.347   7.956  2.0779 -2.1994  1.3904
  129OSM   C15F13927   7.383   5.204   8.088 -0.3868  0.1992 -0.1842
  129OSM   H15F13928   7.481   5.154   8.104 -0.5830  0.3159  1.6413
  129OSM   H15G13929   7.295   5.137   8.095 -0.6794  0.5988 -0.0555
  129OSM   C16F13930   7.375   5.313   8.203 -0.5705 -0.4109 -0.1769
  129OSM   H16F13931   7.298   5.387   8.175 -1.7322 -1.0674  1.1508
  129OSM   H16G13932   7.473   5.355   8.233 -1.7474  0.6176  2.5372
  129OSM   C17F13933   7.311   5.253   8.326 -0.1772  0.4059  0.9195
  129OSM   H17F13934   7.204   5.245   8.300  0.4112  0.7438 -1.9688
  129OSM   H17G13935   7.327   5.318   8.415  1.6495 -0.5438  1.3412
  129OSM   C18F13936   7.359   5.110   8.353  0.1296 -0.0999 -0.5043
  129OSM   H18F13937   7.340   5.032   8.276 -0.0547  0.0694 -0.6327
  129OSM   H18G13938   7.313   5.077   8.448  2.3913  0.0014  0.6778
  129OSM   H18H13939   7.469   5.114   8.369 -0.1998  0.1545  2.1007
  130OSM      N13940   3.579   6.030   5.865 -0.1856  0.4151 -0.0715
  130OSM    C1513941   3.650   5.977   5.741 -0.1431 -0.0607  0.1873
  130OSM   H15A13942   3.656   6.054   5.666 -0.4549 -1.4763 -1.3428
  130OSM   H15B13943   3.605   5.891   5.694  1.0399 -0.7068  0.1917
  130OSM   H15C13944   3.753   5.953   5.763 -0.2364 -2.7062 -1.7331
  130OSM    C1413945   3.445   6.055   5.819 -0.0918 -0.1145  0.2389
  130OSM   H14A13946   3.388   6.109   5.894 -0.2163  2.6141 -1.6598
  130OSM   H14B13947   3.399   5.959   5.801  2.1656 -1.2503  0.2174
  130OSM   H14C13948   3.439   6.107   5.724  2.6289 -0.4307 -0.1854
  130OSM    C1313949   3.571   5.921   5.968  0.1332  0.2108  0.0319
  130OSM   H13A13950   3.482   5.938   6.027 -1.7805 -0.6952 -2.4500
  130OSM   H13B13951   3.662   5.920   6.026  0.3531  1.7439 -0.2434
  130OSM   H13C13952   3.566   5.831   5.909  5.0415 -0.5282  0.2837
  130OSM    C1213953   3.640   6.152   5.927  0.3255  0.1691 -0.2945
  130OSM   H12A13954   3.598   6.183   6.021  0.7439 -0.9007  0.2581
  130OSM   H12B13955   3.626   6.236   5.859  0.4246  0.4733  0.0575
  130OSM    C1113956   3.798   6.152   5.939  0.2980 -0.0521  0.2679
  130OSM   H11A13957   3.807   6.233   6.015 -1.7730  0.2033  0.2830
  130OSM   H11B13958   3.840   6.174   5.839 -1.0047  0.8922 -0.0906
  130OSM      P13959   3.995   6.005   6.038  0.1645  0.2484  0.4152
  130OSM    O1313960   4.021   5.865   6.082 -0.2357 -0.0457 -0.0335
  130OSM    O1413961   4.076   6.049   5.922  0.4906 -0.2623 -0.1671
  130OSM    O1113962   4.013   6.107   6.158  0.0668  0.0092  0.6334
  130OSM    O1213963   3.841   6.023   5.994 -0.0154 -0.6606 -0.4438
  130OSM    C1S13964   3.947   6.086   6.279  0.3110 -0.4843  0.4102
  130OSM    H1S13965   3.896   5.988   6.277  0.6288 -0.6334 -0.9430
  130OSM    H1T13966   3.881   6.176   6.277 -1.2384 -1.5891  0.5995
  130OSM     NF13967   3.961   6.075   6.523  0.0626 -0.0920 -0.2271
  130OSM    HNF13968   3.956   6.166   6.564 -0.9170 -0.8991  1.5057
  130OSM    C2S13969   4.042   6.091   6.406  0.0037  0.6906 -0.6463
  130OSM    H2S13970   4.101   5.997   6.410 -1.6508 -0.3713 -0.3109
  130OSM    C3S13971   4.130   6.221   6.398 -0.1701 -0.3279  0.5149
  130OSM    H3S13972   4.052   6.301   6.405 -1.5418 -1.4646 -1.1334
  130OSM     O313973   4.205   6.236   6.274  0.1627 -0.1195 -0.1873
  130OSM    HO313974   4.145   6.205   6.206  1.6425 -1.1232 -1.1031
  130OSM    C4S13975   4.213   6.219   6.523  0.4917  0.0883 -0.3699
  130OSM    H4S13976   4.172   6.281   6.605  1.6609 -0.8391  0.9606
  130OSM    C5S13977   4.320   6.146   6.556  0.1983 -0.0593  0.8286
  130OSM    H5S13978   4.375   6.094   6.476  2.6184  0.5275  1.9855
  130OSM    C6S13979   4.396   6.155   6.681  0.1202 -0.3524  0.0493
  130OSM    H6S13980   4.490   6.210   6.660 -1.0159  2.6977  2.2628
  130OSM    H6T13981   4.419   6.058   6.730  0.9628  0.4782  1.3652
  130OSM    C7S13982   4.334   6.235   6.794  0.0288 -0.2606 -0.3340
  130OSM    H7S13983   4.237   6.189   6.822 -0.0221  0.2154  0.2999
  130OSM    H7T13984   4.335   6.344   6.778  3.4520 -0.1516 -0.2827
  130OSM    C8S13985   4.433   6.235   6.920  0.4111  0.3676 -0.6530
  130OSM    H8S13986   4.527   6.287   6.888  1.3428 -2.6698 -3.5065
  130OSM    H8T13987   4.462   6.131   6.946  0.8465  0.8862  1.0553
  130OSM    C9S13988   4.360   6.295   7.042 -0.1725 -0.0221  0.4508
  130OSM    H9S13989   4.264   6.240   7.050  0.6545 -1.4131  1.1714
  130OSM    H9T13990   4.325   6.394   7.004 -0.6569 -0.3323  0.0755
  130OSM   C10S13991   4.427   6.297   7.172 -0.1588  1.0302  0.4007
  130OSM   H10S13992   4.525   6.345   7.150  0.0856  0.6940  0.7290
  130OSM   H10T13993   4.455   6.191   7.192  0.4154  1.2032  0.5417
  130OSM   C11S13994   4.347   6.368   7.279 -0.1895 -0.1615  0.0669
  130OSM   H11S13995   4.252   6.312   7.288 -1.5244  2.0522  0.4050
  130OSM   H11T13996   4.320   6.473   7.255  3.0069  1.0908  1.3088
  130OSM   C12S13997   4.401   6.370   7.418 -0.3276  0.1626  0.8647
  130OSM   H12S13998   4.499   6.421   7.430 -1.3899  2.5038  0.0099
  130OSM   H12T13999   4.407   6.261   7.438  0.3123 -0.5720 -2.7086
  130OSM   C13S14000   4.304   6.442   7.514 -0.1419 -0.3886 -0.5709
  130OSM   H13S14001   4.213   6.377   7.516  1.0297 -2.1798 -1.9148
  130OSM   H13T14002   4.276   6.543   7.477  2.3882  1.1564  1.3816
  130OSM   C14S14003   4.360   6.451   7.658  0.1087  0.3383  0.5190
  130OSM   H14S14004   4.434   6.535   7.662  2.0309 -1.2967  1.0963
  130OSM   H14T14005   4.426   6.368   7.692 -1.1057 -0.7413  0.2690
  130OSM   C15S14006   4.258   6.479   7.767 -0.2669 -0.0741  0.1368
  130OSM   H15S14007   4.181   6.400   7.778  0.9062 -1.2693  0.0165
  130OSM   H15T14008   4.219   6.575   7.726  3.8551  1.0238 -1.7700
  130OSM   C16S14009   4.331   6.483   7.902 -1.0359  0.2933 -0.6582
  130OSM   H16S14010   4.399   6.571   7.900 -3.2466  2.1541  1.1148
  130OSM   H16T14011   4.383   6.387   7.922 -1.4142 -0.0397 -1.2473
  130OSM   C17S14012   4.239   6.502   8.018  0.2309 -0.0088 -0.2547
  130OSM   H17S14013   4.310   6.512   8.103  1.3885  3.3196 -1.4207
  130OSM   H17T14014   4.193   6.402   8.033 -0.1198  0.1999  0.1135
  130OSM   C18S14015   4.141   6.611   8.005 -0.0435 -0.4843  0.2520
  130OSM   H18S14016   4.091   6.630   8.103  1.4719 -0.9872  1.1667
  130OSM   H18T14017   4.073   6.594   7.919  1.3665 -1.9467 -0.6208
  130OSM   H18U14018   4.185   6.711   7.981 -0.5305 -0.3366 -0.0401
  130OSM    C1F14019   3.896   5.969   6.555  0.1075  0.0784  0.1677
  130OSM     OF14020   3.918   5.869   6.490  0.0878 -0.4634 -0.0666
  130OSM    C2F14021   3.796   5.978   6.663 -0.1925  0.3822  1.0120
  130OSM    H2F14022   3.713   6.042   6.625  0.4093 -0.3182 -1.6445
  130OSM    H2G14023   3.833   6.046   6.743  2.1757 -1.5136  1.6178
  130OSM    C3F14024   3.757   5.840   6.714  0.5712 -0.3528  0.1242
  130OSM    H3F14025   3.844   5.771   6.709 -0.1028 -1.2015 -0.1723
  130OSM    H3G14026   3.679   5.800   6.645 -2.5423  1.3215  2.3768
  130OSM    C4F14027   3.688   5.828   6.849 -0.2134 -0.4858  0.0485
  130OSM    H4F14028   3.647   5.726   6.864 -1.3837  0.0499  0.6764
  130OSM    H4G14029   3.599   5.895   6.857  1.2997  1.4808  1.6028
  130OSM    C5F14030   3.788   5.863   6.966 -0.2137  0.4409 -0.1110
  130OSM    H5F14031   3.837   5.962   6.956 -0.9066  0.9119  1.0037
  130OSM    H5G14032   3.871   5.789   6.968 -0.4659  0.0946 -1.3688
  130OSM    C6F14033   3.731   5.852   7.105  0.1283  0.0347 -0.1048
  130OSM    H6F14034   3.675   5.756   7.104  1.7119 -1.0009 -3.3121
  130OSM    H6G14035   3.655   5.931   7.123 -1.9030 -2.0796  1.4539
  130OSM    C7F14036   3.829   5.839   7.216  0.1394  1.2956 -1.0820
  130OSM    H7F14037   3.873   5.938   7.241  0.9990  0.9950 -1.3658
  130OSM    H7G14038   3.917   5.777   7.191 -0.2573 -0.5473  1.6076
  130OSM    C8F14039   3.763   5.788   7.347 -0.3152 -0.1057 -0.4599
  130OSM    H8F14040   3.841   5.774   7.426  1.3717  1.3369 -1.7656
  130OSM    H8G14041   3.714   5.693   7.316 -0.8039 -0.0348  0.0725
  130OSM    C9F14042   3.671   5.900   7.394  0.5296  0.2113 -0.0921
  130OSM    H9F14043   3.602   5.941   7.318  0.1929 -1.5855 -0.7915
  130OSM   C10F14044   3.667   5.962   7.515 -0.0422 -0.0272 -0.1472
  130OSM   H10F14045   3.592   6.038   7.541 -0.0148 -0.0238 -0.0786
  130OSM   C11F14046   3.764   5.931   7.630  0.0058  0.5190  0.3284
  130OSM   H11F14047   3.865   5.977   7.628  0.3603  0.1206  3.5030
  130OSM   H11G14048   3.782   5.822   7.626 -2.4487  0.0364  1.1752
  130OSM   C12F14049   3.700   5.955   7.763  0.2221 -0.4597  0.0195
  130OSM   H12F14050   3.596   5.921   7.779 -0.4010  1.9293  1.4792
  130OSM   H12G14051   3.690   6.065   7.777 -5.0741 -0.4516 -1.6494
  130OSM   C13F14052   3.781   5.883   7.876  0.5452 -0.2629 -0.4798
  130OSM   H13F14053   3.887   5.917   7.871  0.1423  0.9213 -2.6109
  130OSM   H13G14054   3.763   5.775   7.854 -2.3666  0.3284 -1.5295
  130OSM   C14F14055   3.736   5.918   8.016 -0.2925  0.4810 -0.1790
  130OSM   H14F14056   3.716   6.027   8.018  0.9265  0.7158  2.3766
  130OSM   H14G14057   3.829   5.894   8.070 -0.1730 -0.0814 -0.6138
  130OSM   C15F14058   3.618   5.839   8.081  0.5781  0.2882  0.7925
  130OSM   H15F14059   3.649   5.738   8.116  0.4286  1.4111  4.5978
  130OSM   H15G14060   3.547   5.833   7.997  0.4391  1.0715  0.8538
  130OSM   C16F14061   3.550   5.914   8.201  0.4738 -0.4249  0.3266
  130OSM   H16F14062   3.450   5.867   8.216  0.9172 -0.8281  2.2018
  130OSM   H16G14063   3.530   6.020   8.173  1.0851 -0.4536 -0.2445
  130OSM   C17F14064   3.620   5.896   8.331  0.3702  0.2943  0.2541
  130OSM   H17F14065   3.720   5.945   8.326  0.7959 -0.6324 -1.0882
  130OSM   H17G14066   3.634   5.786   8.334 -0.8953  0.0806 -0.8318
  130OSM   C18F14067   3.552   5.954   8.456 -0.5955 -0.2112 -0.5685
  130OSM   H18F14068   3.612   5.928   8.546 -0.6564 -0.9709 -0.7373
  130OSM   H18G14069   3.451   5.908   8.464  0.2959 -2.0888  0.5743
  130OSM   H18H14070   3.532   6.062   8.441  2.6937  0.1879 -3.5528
  131OSM      N14071   0.657   3.186   5.988  0.4049 -0.2737 -1.0493
  131OSM    C1514072   0.696   3.189   5.842 -0.1326 -0.3864 -0.0815
  131OSM   H15A14073   0.802   3.166   5.835 -0.0560 -0.9591  2.0929
  131OSM   H15B14074   0.677   3.284   5.794  2.4238  0.4513  0.3611
  131OSM   H15C14075   0.642   3.109   5.795 -0.2542  0.1138 -0.8037
  131OSM    C1414076   0.510   3.196   6.015 -0.3627  0.4745 -0.1388
  131OSM   H14A14077   0.446   3.117   5.980 -0.8035  0.7070  0.1353
  131OSM   H14B14078   0.484   3.285   5.960 -1.5182 -0.4886 -1.2143
  131OSM   H14C14079   0.490   3.213   6.120 -0.1514  1.5858 -0.2668
  131OSM    C1314080   0.711   3.054   6.046  0.6580 -0.5434 -0.6568
  131OSM   H13A14081   0.677   2.972   5.985 -0.1353  0.0966 -1.1096
  131OSM   H13B14082   0.687   3.038   6.150  0.0333 -5.2485 -1.3008
  131OSM   H13C14083   0.818   3.053   6.036  0.8526  2.6297  0.0405
  131OSM    C1214084   0.732   3.295   6.063 -0.2563  0.4237 -0.1225
  131OSM   H12A14085   0.832   3.261   6.081  0.8493  2.8911 -1.0722
  131OSM   H12B14086   0.694   3.309   6.163  0.0552 -1.6456  0.3309
  131OSM    C1114087   0.738   3.434   5.995 -0.7528  0.0025 -1.4126
  131OSM   H11A14088   0.815   3.443   5.915 -1.4374 -1.5382 -2.3040
  131OSM   H11B14089   0.751   3.513   6.071 -1.5099 -1.9658  0.9040
  131OSM      P14090   0.521   3.597   5.961 -0.1006  0.0357 -0.0810
  131OSM    O1314091   0.616   3.709   5.953 -0.0068  0.1517 -1.1957
  131OSM    O1414092   0.416   3.601   5.853 -0.8998  0.2572 -0.1830
  131OSM    O1114093   0.466   3.578   6.108  0.1163  0.8492  0.2274
  131OSM    O1214094   0.615   3.472   5.935  0.5648  0.1904 -0.0697
  131OSM    C1S14095   0.331   3.539   6.125 -0.8821 -0.5184 -0.6651
  131OSM    H1S14096   0.307   3.443   6.076  1.3869 -0.5342 -1.8915
  131OSM    H1T14097   0.257   3.608   6.078 -0.4621  0.2320 -0.2474
  131OSM     NF14098   0.166   3.453   6.308 -0.7142  0.2481 -0.2490
  131OSM    HNF14099   0.075   3.493   6.312  0.0120  1.8936  2.4882
  131OSM    C2S14100   0.289   3.530   6.280 -0.6548 -0.4083 -0.1176
  131OSM    H2S14101   0.367   3.470   6.334 -0.6196 -0.2913 -0.0394
  131OSM    C3S14102   0.293   3.671   6.345 -0.3624  0.1409  0.3182
  131OSM    H3S14103   0.202   3.722   6.307 -0.0434  1.5118  1.2981
  131OSM     O314104   0.404   3.745   6.299 -0.4885 -0.3741  0.1154
  131OSM    HO314105   0.434   3.693   6.225  0.4834  0.9720 -0.4635
  131OSM    C4S14106   0.283   3.664   6.497 -0.2700 -0.1303  0.1037
  131OSM    H4S14107   0.180   3.664   6.534  0.1814  1.7044  1.5640
  131OSM    C5S14108   0.385   3.666   6.591  0.5202  0.0185 -0.6627
  131OSM    H5S14109   0.487   3.689   6.555  1.0485 -0.0146  0.7306
  131OSM    C6S14110   0.368   3.650   6.743  0.3995  0.0806  0.3635
  131OSM    H6S14111   0.380   3.754   6.780  1.2007  0.4292 -0.8088
  131OSM    H6T14112   0.453   3.593   6.786  0.5518  0.0785  0.0589
  131OSM    C7S14113   0.234   3.587   6.781  0.0570 -0.4325 -0.3363
  131OSM    H7S14114   0.193   3.506   6.717 -0.9203 -0.7428  0.6404
  131OSM    H7T14115   0.157   3.666   6.790  0.8750  0.2952  0.5290
  131OSM    C8S14116   0.234   3.527   6.927  0.2436 -0.7602  0.0738
  131OSM    H8S14117   0.319   3.456   6.926 -0.4066 -1.5529 -0.1931
  131OSM    H8T14118   0.140   3.475   6.954 -0.3684  1.4141  2.4963
  131OSM    C9S14119   0.260   3.632   7.035 -0.5039  1.0249 -0.4695
  131OSM    H9S14120   0.177   3.706   7.031 -0.4503  1.0837 -0.4884
  131OSM    H9T14121   0.358   3.682   7.021  1.6338 -3.1144 -1.9054
  131OSM   C10S14122   0.248   3.578   7.184  0.5981  0.0553  0.2909
  131OSM   H10S14123   0.319   3.494   7.202  2.4123  1.7926  1.6012
  131OSM   H10T14124   0.148   3.528   7.183 -0.0001  1.2215  0.0757
  131OSM   C11S14125   0.250   3.691   7.290 -0.3597  0.1668  0.0899
  131OSM   H11S14126   0.173   3.769   7.278 -0.9069  0.0121  2.2160
  131OSM   H11T14127   0.350   3.740   7.283 -0.8895  1.5715  1.6725
  131OSM   C12S14128   0.240   3.613   7.424  0.8143 -0.1273  0.1344
  131OSM   H12S14129   0.327   3.546   7.436  0.4068 -0.6858 -0.0010
  131OSM   H12T14130   0.153   3.545   7.410  1.5124 -1.3303  1.3933
  131OSM   C13S14131   0.193   3.691   7.539 -0.1195 -1.0471  0.4743
  131OSM   H13S14132   0.153   3.629   7.622 -1.4046 -0.9218 -0.0235
  131OSM   H13T14133   0.125   3.776   7.517  0.1513  0.1830  3.8372
  131OSM   C14S14134   0.309   3.777   7.602  0.0279 -0.5232 -0.1072
  131OSM   H14S14135   0.363   3.823   7.517  2.0253 -1.4417  0.6095
  131OSM   H14T14136   0.379   3.701   7.644  0.9011 -0.9358 -2.1751
  131OSM   C15S14137   0.268   3.874   7.717 -0.0843  1.1418  0.0494
  131OSM   H15S14138   0.211   3.810   7.787  3.5956 -0.5706  1.7755
  131OSM   H15T14139   0.205   3.960   7.684 -2.6258 -0.4704  0.4678
  131OSM   C16S14140   0.387   3.907   7.807  0.6240 -0.9862 -0.6671
  131OSM   H16S14141   0.458   3.968   7.747  0.9887 -0.1590  0.5663
  131OSM   H16T14142   0.438   3.812   7.831  1.4685  0.1782  2.6351
  131OSM   C17S14143   0.353   3.996   7.931  0.3087 -0.7439  0.2028
  131OSM   H17S14144   0.270   3.935   7.972 -0.4681 -0.5304 -1.0130
  131OSM   H17T14145   0.305   4.090   7.899 -1.0468 -1.2581  0.6662
  131OSM   C18S14146   0.472   4.022   8.013 -0.3740  0.1872  0.0909
  131OSM   H18S14147   0.453   4.096   8.093  1.9300  1.3044 -0.2943
  131OSM   H18T14148   0.549   4.067   7.947  1.9671 -0.3887  2.2683
  131OSM   H18U14149   0.525   3.932   8.052  1.4150  0.8240 -0.7343
  131OSM    C1F14150   0.172   3.318   6.306 -0.0077  0.7262 -0.5013
  131OSM     OF14151   0.268   3.246   6.274 -0.0438 -0.0366  0.7200
  131OSM    C2F14152   0.040   3.238   6.336 -0.0737  0.1337 -0.2534
  131OSM    H2F14153   0.021   3.188   6.238 -0.4652 -1.3738  0.5611
  131OSM    H2G14154  -0.043   3.312   6.335  1.5757  2.1734 -3.2052
  131OSM    C3F14155   0.052   3.143   6.457 -0.0878  1.0135  0.8992
  131OSM    H3F14156   0.132   3.066   6.443 -1.1075 -0.3579  2.2575
  131OSM    H3G14157  -0.047   3.094   6.444  0.1714  0.2742  1.6123
  131OSM    C4F14158   0.061   3.216   6.592 -0.3011 -0.8449  0.0093
  131OSM    H4F14159  -0.024   3.286   6.603  0.7185  0.6386 -1.1403
  131OSM    H4G14160   0.158   3.270   6.597 -0.0144 -1.3307 -0.2112
  131OSM    C5F14161   0.057   3.118   6.705 -0.2606  0.0880 -0.5013
  131OSM    H5F14162   0.137   3.043   6.691  1.0556  1.2890  0.2755
  131OSM    H5G14163  -0.040   3.064   6.701  0.4548 -1.3342  0.4208
  131OSM    C6F14164   0.086   3.187   6.842  0.3697 -0.3168  0.1379
  131OSM    H6F14165   0.028   3.279   6.863  0.1553 -0.7339  1.4815
  131OSM    H6G14166   0.190   3.224   6.843  1.6200 -3.4887 -0.5183
  131OSM    C7F14167   0.073   3.093   6.959  0.0744 -0.3008 -0.1649
  131OSM    H7F14168   0.150   3.017   6.933  1.2048 -0.1048  2.3170
  131OSM    H7G14169  -0.026   3.045   6.964  0.2135 -0.5044  0.6993
  131OSM    C8F14170   0.125   3.143   7.097 -0.0898  0.1594 -0.1445
  131OSM    H8F14171   0.090   3.247   7.113 -0.3865  0.0175  0.1436
  131OSM    H8G14172   0.235   3.153   7.092  0.0241 -0.8866  0.0581
  131OSM    C9F14173   0.099   3.043   7.203 -0.0351  0.0956  0.1701
  131OSM    H9F14174   0.105   2.940   7.167 -1.6480  0.1473 -0.3226
  131OSM   C10F14175   0.046   3.049   7.325  0.5047 -0.9142 -0.4859
  131OSM   H10F14176   0.019   2.963   7.388 -1.1517  1.3726  2.1410
  131OSM   C11F14177   0.016   3.183   7.393 -0.4720  0.3428  0.2773
  131OSM   H11F14178  -0.081   3.225   7.358 -0.6695  0.0500  0.4774
  131OSM   H11G14179   0.089   3.262   7.363 -0.9290  0.5867 -0.2115
  131OSM   C12F14180   0.016   3.167   7.542  0.9421  0.2782  0.0789
  131OSM   H12F14181   0.084   3.240   7.590  1.2384  0.3872 -0.4951
  131OSM   H12G14182   0.045   3.065   7.577 -0.0717  0.6154  2.0557
  131OSM   C13F14183  -0.125   3.195   7.612 -0.6857  0.3647  0.0310
  131OSM   H13F14184  -0.123   3.137   7.707  1.5397  3.3849  2.0238
  131OSM   H13G14185  -0.222   3.170   7.564 -1.3195  0.9698  0.9833
  131OSM   C14F14186  -0.132   3.343   7.642  0.7918 -0.5285 -0.2688
  131OSM   H14F14187  -0.160   3.402   7.552 -1.4550 -0.8375  0.1588
  131OSM   H14G14188  -0.038   3.389   7.679 -0.4000  2.7183 -0.8691
  131OSM   C15F14189  -0.232   3.372   7.759  0.2057  0.7515  0.4049
  131OSM   H15F14190  -0.303   3.287   7.757  0.7551  0.2884 -1.1794
  131OSM   H15G14191  -0.288   3.467   7.741 -0.0603  0.3493 -1.0794
  131OSM   C16F14192  -0.156   3.380   7.895 -0.6558  0.0080 -0.0191
  131OSM   H16F14193  -0.107   3.478   7.915  0.1460 -0.4966  0.5654
  131OSM   H16G14194  -0.072   3.307   7.892 -1.6230 -1.1078 -0.7387
  131OSM   C17F14195  -0.237   3.346   8.014  0.3989  0.1046  0.2456
  131OSM   H17F14196  -0.170   3.346   8.102  2.7291  0.1260 -1.4487
  131OSM   H17G14197  -0.297   3.252   8.012  1.0846 -0.4059  1.8086
  131OSM   C18F14198  -0.340   3.464   8.035  0.0870  0.4262  0.4692
  131OSM   H18F14199  -0.425   3.470   7.963 -0.6360 -1.6870  1.0663
  131OSM   H18G14200  -0.285   3.560   8.037 -0.3479  0.6791  1.6363
  131OSM   H18H14201  -0.402   3.454   8.127 -2.1431  0.4094 -0.9463
  132OSM      N14202   3.493   3.497   5.926 -0.1883  0.0058 -0.4075
  132OSM    C1514203   3.551   3.565   5.809 -0.0814 -0.4163 -0.0912
  132OSM   H15A14204   3.488   3.557   5.722  0.9222  0.9105 -0.9830
  132OSM   H15B14205   3.647   3.526   5.778  1.0932  0.8683  1.7374
  132OSM   H15C14206   3.573   3.669   5.826  0.7867 -0.6950  0.5271
  132OSM    C1414207   3.348   3.539   5.929  0.3689 -0.4864  0.0239
  132OSM   H14A14208   3.309   3.516   5.831 -1.0195  4.7195 -0.9558
  132OSM   H14B14209   3.338   3.645   5.943 -1.2767 -0.5503 -0.4792
  132OSM   H14C14210   3.296   3.483   6.006  0.1718 -1.9721 -1.1362
  132OSM    C1314211   3.505   3.353   5.904  0.0137  0.4612  0.3292
  132OSM   H13A14212   3.449   3.318   5.818  0.4492 -2.9019  1.2775
  132OSM   H13B14213   3.489   3.290   5.990 -0.2564 -0.1605 -0.1704
  132OSM   H13C14214   3.609   3.341   5.877 -0.6610 -1.1201 -1.8141
  132OSM    C1214215   3.573   3.535   6.049  0.7875  0.4022 -0.6646
  132OSM   H12A14216   3.593   3.641   6.061  0.4434  0.2836  1.2758
  132OSM   H12B14217   3.671   3.493   6.031  0.0369 -0.8490 -1.9536
  132OSM    C1114218   3.536   3.468   6.190 -0.5658  0.2716  0.0062
  132OSM   H11A14219   3.441   3.511   6.228 -0.2414 -1.1116  2.6057
  132OSM   H11B14220   3.613   3.510   6.258  1.8570  1.0163 -2.9493
  132OSM      P14221   3.642   3.237   6.244  0.1025  0.1418  0.2526
  132OSM    O1314222   3.621   3.092   6.222 -0.2684  0.1785 -0.1592
  132OSM    O1414223   3.768   3.296   6.187 -0.0363  0.1521 -0.6984
  132OSM    O1114224   3.640   3.277   6.390 -0.5200  0.2081 -0.6225
  132OSM    O1214225   3.520   3.322   6.196  0.3642 -0.2029  1.1193
  132OSM    C1S14226   3.543   3.245   6.495 -0.1189  0.1482  0.3994
  132OSM    H1S14227   3.482   3.154   6.479 -2.2573  0.7442  4.1000
  132OSM    H1T14228   3.473   3.331   6.504  0.6410  0.8186  0.0744
  132OSM     NF14229   3.516   3.171   6.742  0.6406  0.1357  0.6059
  132OSM    HNF14230   3.476   3.237   6.805  1.6860  0.5649  0.8374
  132OSM    C2S14231   3.605   3.215   6.631 -1.0287 -1.1145 -1.1071
  132OSM    H2S14232   3.682   3.135   6.617 -1.0722 -1.2577 -0.5382
  132OSM    C3S14233   3.692   3.343   6.678  0.2177  1.2289  0.5217
  132OSM    H3S14234   3.624   3.424   6.709 -0.9018 -0.2078  2.0082
  132OSM     O314235   3.784   3.405   6.585 -0.1110  0.5609  0.7246
  132OSM    HO314236   3.773   3.360   6.501 -1.2712  0.2196  1.0376
  132OSM    C4S14237   3.761   3.299   6.811  0.2167  0.4375  0.8490
  132OSM    H4S14238   3.699   3.333   6.895 -1.3812 -3.2395  1.3912
  132OSM    C5S14239   3.875   3.229   6.833  0.0369  0.1233  0.6913
  132OSM    H5S14240   3.929   3.205   6.740 -2.0753 -2.3719 -0.0346
  132OSM    C6S14241   3.940   3.201   6.959  1.0359 -1.3267 -0.1996
  132OSM    H6S14242   4.035   3.259   6.951 -0.4088  1.2825  0.5263
  132OSM    H6T14243   3.966   3.093   6.971  0.5934 -1.7483 -2.6046
  132OSM    C7S14244   3.856   3.244   7.078  0.5718  0.7235 -0.0387
  132OSM    H7S14245   3.759   3.189   7.083  1.5795 -1.1534 -0.3982
  132OSM    H7T14246   3.828   3.351   7.069 -0.5303  0.4682  0.1992
  132OSM    C8S14247   3.937   3.240   7.212  0.1355 -0.3289 -0.4827
  132OSM    H8S14248   4.031   3.299   7.202 -1.8520  2.8100 -2.5332
  132OSM    H8T14249   3.949   3.131   7.228  1.8168  0.0054  0.8753
  132OSM    C9S14250   3.865   3.285   7.344 -0.1340  0.2544 -0.3557
  132OSM    H9S14251   3.778   3.217   7.357 -1.4020  1.8685 -0.0928
  132OSM    H9T14252   3.830   3.389   7.330 -1.0711  0.2867  1.8839
  132OSM   C10S14253   3.956   3.260   7.471 -0.1563  0.4722 -0.2303
  132OSM   H10S14254   4.056   3.308   7.465  0.4554 -0.6019  0.8747
  132OSM   H10T14255   3.979   3.154   7.492 -1.1753  0.5618  1.5063
  132OSM   C11S14256   3.886   3.307   7.599 -0.0977  0.0755 -0.5509
  132OSM   H11S14257   3.781   3.271   7.591 -0.2328  0.5758 -1.0429
  132OSM   H11T14258   3.889   3.418   7.597  0.0083  0.0820 -0.1543
  132OSM   C12S14259   3.952   3.270   7.731 -0.2847  0.0242 -0.2400
  132OSM   H12S14260   4.060   3.275   7.702  0.3159 -1.0329  1.6615
  132OSM   H12T14261   3.934   3.165   7.761 -0.2316  0.7071  2.4297
  132OSM   C13S14262   3.924   3.371   7.845  0.7193  0.7393  0.0140
  132OSM   H13S14263   3.819   3.349   7.873  1.3140 -1.2778  0.8300
  132OSM   H13T14264   3.940   3.474   7.807  1.2641 -0.3877 -3.1184
  132OSM   C14S14265   4.010   3.353   7.975 -0.1218 -0.1271 -0.4382
  132OSM   H14S14266   4.114   3.381   7.950  0.4248 -2.8823 -1.5873
  132OSM   H14T14267   4.013   3.247   8.007  1.1784  0.2750  0.8691
  132OSM   C15S14268   3.956   3.442   8.099  0.0818 -0.1299 -0.2552
  132OSM   H15S14269   3.847   3.435   8.116  0.0857 -2.0170 -0.7810
  132OSM   H15T14270   3.986   3.545   8.069  0.5308 -0.9871 -3.0092
  132OSM   C16S14271   4.024   3.407   8.227  0.6006 -0.1533 -0.4397
  132OSM   H16S14272   4.132   3.390   8.209  0.7728 -3.5329  2.6538
  132OSM   H16T14273   3.991   3.307   8.263  2.4838 -0.4794  0.4853
  132OSM   C17S14274   4.010   3.522   8.334 -0.4347 -0.0092  0.2413
  132OSM   H17S14275   3.908   3.564   8.335 -0.1077  0.8836 -1.0038
  132OSM   H17T14276   4.067   3.610   8.295 -0.0320 -0.0481  0.7284
  132OSM   C18S14277   4.057   3.467   8.466 -0.3459 -0.0521 -0.1787
  132OSM   H18S14278   4.168   3.470   8.456 -0.3161  1.5722  0.2931
  132OSM   H18T14279   4.017   3.366   8.489  0.2295 -0.0460  0.9299
  132OSM   H18U14280   4.035   3.537   8.550 -2.5161 -0.0199 -0.7307
  132OSM    C1F14281   3.454   3.053   6.725 -0.0070  0.6382 -0.6706
  132OSM     OF14282   3.502   2.970   6.646  0.0224 -0.0851  0.1649
  132OSM    C2F14283   3.333   3.024   6.806  0.1375  0.0284 -0.5743
  132OSM    H2F14284   3.348   3.048   6.913 -0.6938  1.7797 -0.8259
  132OSM    H2G14285   3.316   2.915   6.792 -0.7138  0.2320 -1.2204
  132OSM    C3F14286   3.216   3.114   6.758 -0.6498 -0.1906  0.1563
  132OSM    H3F14287   3.223   3.122   6.647 -0.2580  0.6163  0.2312
  132OSM    H3G14288   3.236   3.221   6.781  0.8826 -0.3960 -0.0743
  132OSM    C4F14289   3.075   3.074   6.804  0.4368 -0.5183  0.8667
  132OSM    H4F14290   3.058   2.976   6.754  2.2576  0.0990 -1.1521
  132OSM    H4G14291   2.999   3.149   6.772 -0.0687 -0.9459  1.0723
  132OSM    C5F14292   3.054   3.057   6.960 -0.7168 -0.4961  0.4749
  132OSM    H5F14293   3.141   2.991   6.978 -1.7957 -2.7152 -1.8126
  132OSM    H5G14294   2.968   2.992   6.987  0.4849 -1.5094  1.9931
  132OSM    C6F14295   3.044   3.181   7.038  0.4985  0.0619  0.0418
  132OSM    H6F14296   3.028   3.273   6.979  0.9897 -0.1807 -0.4751
  132OSM    H6G14297   3.136   3.206   7.095 -0.2414  0.5835  1.0456
  132OSM    C7F14298   2.930   3.175   7.140 -0.4752 -0.1526  0.0792
  132OSM    H7F14299   2.949   3.092   7.212 -0.5600  0.0371  0.3218
  132OSM    H7G14300   2.836   3.162   7.082  0.0915  2.1024 -1.4905
  132OSM    C8F14301   2.908   3.306   7.219  0.4819 -0.8383 -0.2418
  132OSM    H8F14302   2.799   3.309   7.236  0.1334  1.0940 -2.3582
  132OSM    H8G14303   2.925   3.392   7.151 -0.2128 -0.1704  0.4107
  132OSM    C9F14304   2.995   3.329   7.342 -0.7737 -0.1976  0.7230
  132OSM    H9F14305   3.099   3.336   7.306 -0.6263 -3.2035  0.3568
  132OSM   C10F14306   2.962   3.308   7.469  0.0505 -0.1960  0.9138
  132OSM   H10F14307   3.051   3.318   7.533  0.4992 -0.6035  0.3637
  132OSM   C11F14308   2.829   3.260   7.515 -0.1723  0.1267  0.7968
  132OSM   H11F14309   2.804   3.164   7.465 -1.2122  0.4057  0.7637
  132OSM   H11G14310   2.748   3.328   7.482 -0.9179 -0.3553  1.5764
  132OSM   C12F14311   2.818   3.265   7.673  0.1012  0.1017 -0.8206
  132OSM   H12F14312   2.717   3.231   7.705  0.4073 -0.1448 -0.1041
  132OSM   H12G14313   2.832   3.373   7.694 -0.1207  0.3809 -2.0049
  132OSM   C13F14314   2.910   3.178   7.757  0.4123  0.1037 -0.3481
  132OSM   H13F14315   3.015   3.209   7.737  1.2591 -1.5224  1.3282
  132OSM   H13G14316   2.925   3.071   7.729 -3.1598 -1.0162  1.3565
  132OSM   C14F14317   2.871   3.182   7.906 -0.1911 -0.2846 -0.2641
  132OSM   H14F14318   2.777   3.131   7.936 -0.1176  0.5990  1.5699
  132OSM   H14G14319   2.853   3.284   7.947 -1.4431 -1.0387  1.1386
  132OSM   C15F14320   2.982   3.115   7.988  0.2081 -1.0018  0.4878
  132OSM   H15F14321   3.084   3.125   7.943  0.4856  1.7116  1.5370
  132OSM   H15G14322   2.969   3.005   7.981 -0.2097 -0.9454  0.3824
  132OSM   C16F14323   2.996   3.154   8.132 -0.0228 -0.5890  0.2802
  132OSM   H16F14324   2.895   3.153   8.180  0.1678 -1.1010  0.6752
  132OSM   H16G14325   3.038   3.256   8.148 -1.9048  0.1586  0.7581
  132OSM   C17F14326   3.080   3.063   8.216 -0.5377  0.3008 -0.3323
  132OSM   H17F14327   3.186   3.076   8.186 -0.1525 -1.3791  0.1956
  132OSM   H17G14328   3.043   2.960   8.196 -1.0291  0.6178 -1.0774
  132OSM   C18F14329   3.085   3.106   8.360 -0.1091 -0.1870 -0.4571
  132OSM   H18F14330   3.132   3.206   8.375 -0.6691  0.0906 -0.5559
  132OSM   H18G14331   3.148   3.035   8.419  1.2716  1.2101 -0.1777
  132OSM   H18H14332   2.990   3.092   8.416  0.8935  1.7840  1.9414
  133OSM      N14333   3.313   2.252   6.263 -0.1604 -1.3997  0.4174
  133OSM    C1514334   3.309   2.236   6.406 -0.5650  0.0106 -0.3786
  133OSM   H15A14335   3.320   2.135   6.442 -0.7220  0.1687  0.1258
  133OSM   H15B14336   3.221   2.278   6.453 -1.2429 -0.5537 -1.1158
  133OSM   H15C14337   3.389   2.293   6.450  1.0770 -1.8985 -0.7648
  133OSM    C1414338   3.207   2.169   6.201 -0.2923  0.4170  0.8387
  133OSM   H14A14339   3.214   2.176   6.094  2.4052  0.9420  0.9662
  133OSM   H14B14340   3.111   2.213   6.223 -1.4650  0.4706 -3.4748
  133OSM   H14C14341   3.205   2.069   6.242  5.6200 -0.4825 -0.1178
  133OSM    C1314342   3.286   2.397   6.223 -0.2962 -0.2266 -0.3656
  133OSM   H13A14343   3.272   2.394   6.116  1.2533 -4.0041 -0.5966
  133OSM   H13B14344   3.377   2.450   6.246  0.1478 -0.5968 -1.2549
  133OSM   H13C14345   3.198   2.441   6.268  0.1204 -1.7265  2.1242
  133OSM    C1214346   3.447   2.210   6.212 -0.2207 -0.4566 -1.0130
  133OSM   H12A14347   3.443   2.203   6.104  2.1488  1.3801 -1.3136
  133OSM   H12B14348   3.468   2.120   6.266  1.6980  0.3498 -0.3226
  133OSM    C1114349   3.561   2.310   6.246  0.2508 -0.3350 -0.9421
  133OSM   H11A14350   3.662   2.266   6.233  0.0589 -2.2268  2.7288
  133OSM   H11B14351   3.547   2.330   6.354 -0.1058  0.1801 -1.0808
  133OSM      P14352   3.685   2.539   6.178  0.6803  0.2261  0.3996
  133OSM    O1314353   3.805   2.475   6.122  0.0636 -0.5659  0.2305
  133OSM    O1414354   3.648   2.673   6.124  0.4297 -0.3491 -0.1690
  133OSM    O1114355   3.709   2.559   6.336 -0.5573  0.3189  0.5944
  133OSM    O1214356   3.566   2.431   6.166 -0.8923 -0.4837 -0.2905
  133OSM    C1S14357   3.595   2.604   6.411 -0.7630 -0.1438 -0.1608
  133OSM    H1S14358   3.513   2.535   6.384 -0.0452 -0.7603 -0.7990
  133OSM    H1T14359   3.563   2.709   6.390 -3.2991 -1.0980 -1.5168
  133OSM     NF14360   3.522   2.631   6.656  0.1445  0.5564  0.1244
  133OSM    HNF14361   3.518   2.728   6.678  2.3195  0.9811 -1.1100
  133OSM    C2S14362   3.635   2.611   6.564 -0.0230  0.2828  0.3373
  133OSM    H2S14363   3.668   2.508   6.592 -2.3296 -0.2998  1.2081
  133OSM    C3S14364   3.754   2.704   6.588  0.0868 -0.3678  0.2572
  133OSM    H3S14365   3.730   2.810   6.565  0.9481  0.2491  2.0753
  133OSM     O314366   3.868   2.677   6.505  0.7115  0.0800  0.0201
  133OSM    HO314367   3.840   2.600   6.454  1.5716 -0.8536  0.9252
  133OSM    C4S14368   3.794   2.690   6.738  0.2812 -0.2308 -0.3250
  133OSM    H4S14369   3.826   2.591   6.775  2.2106  0.7940  0.9283
  133OSM    C5S14370   3.792   2.793   6.826  0.0415  0.2672 -0.0304
  133OSM    H5S14371   3.762   2.897   6.805 -1.1789  0.6026  2.8827
  133OSM    C6S14372   3.831   2.784   6.971 -0.1685  0.0890  0.3333
  133OSM    H6S14373   3.924   2.843   6.984 -0.2052 -0.0861  1.5235
  133OSM    H6T14374   3.864   2.683   7.003 -0.0883 -0.0014 -0.0374
  133OSM    C7S14375   3.734   2.843   7.073 -0.0055  0.4295  0.3311
  133OSM    H7S14376   3.638   2.788   7.065  1.1252 -1.6745  0.5725
  133OSM    H7T14377   3.708   2.949   7.051  1.3461  0.9722  1.2479
  133OSM    C8S14378   3.787   2.837   7.216  0.3129  0.0978  1.0390
  133OSM    H8S14379   3.885   2.887   7.231 -0.1078  2.1950 -2.1441
  133OSM    H8T14380   3.795   2.730   7.243 -0.9770 -0.1671  0.4757
  133OSM    C9S14381   3.695   2.900   7.319  0.1005  0.0434  0.8595
  133OSM    H9S14382   3.592   2.861   7.304 -0.7814  1.0539  3.6582
  133OSM    H9T14383   3.691   3.007   7.292 -0.4987  0.1934  1.4942
  133OSM   C10S14384   3.730   2.883   7.471  0.1544 -1.0616  0.2381
  133OSM   H10S14385   3.831   2.927   7.477 -0.5807  0.5595  1.7090
  133OSM   H10T14386   3.746   2.776   7.497 -2.3956 -1.8717 -1.0900
  133OSM   C11S14387   3.625   2.960   7.562 -0.4157  0.4075  0.3386
  133OSM   H11S14388   3.535   2.895   7.558 -0.1313  0.0371 -0.1427
  133OSM   H11T14389   3.600   3.057   7.514 -0.5078  0.2764  0.1182
  133OSM   C12S14390   3.678   2.982   7.700  0.2526  0.0503  0.4142
  133OSM   H12S14391   3.604   3.037   7.761 -0.0657  0.5279 -0.3855
  133OSM   H12T14392   3.778   3.030   7.702  0.3100 -0.0237 -0.3734
  133OSM   C13S14393   3.682   2.851   7.779 -0.0240 -0.4622 -0.2181
  133OSM   H13S14394   3.753   2.782   7.728 -1.5903  0.1396 -3.4676
  133OSM   H13T14395   3.581   2.806   7.775 -0.6514  0.8662  0.0943
  133OSM   C14S14396   3.719   2.858   7.924  1.3182  0.1656 -0.3626
  133OSM   H14S14397   3.700   2.760   7.972  1.8697 -0.5605 -1.5744
  133OSM   H14T14398   3.643   2.926   7.968 -0.7447 -1.8358 -0.6077
  133OSM   C15S14399   3.858   2.910   7.963  0.0521 -0.3467 -0.1563
  133OSM   H15S14400   3.875   3.018   7.945 -0.9401 -0.1141  0.1902
  133OSM   H15T14401   3.940   2.856   7.911  0.9823  1.6533 -0.8553
  133OSM   C16S14402   3.871   2.886   8.114 -0.5930 -0.6381  0.1495
  133OSM   H16S14403   3.876   2.778   8.139 -1.2577 -0.9809 -1.1021
  133OSM   H16T14404   3.781   2.921   8.170 -0.6528 -2.5511  1.3371
  133OSM   C17S14405   3.987   2.974   8.170 -0.9270 -0.0751 -0.1824
  133OSM   H17S14406   3.959   3.077   8.140 -5.9695 -1.4058 -0.9199
  133OSM   H17T14407   4.081   2.948   8.118 -0.9110  2.6589 -1.6562
  133OSM   C18S14408   3.992   2.963   8.321 -0.1056 -0.0293 -0.6859
  133OSM   H18S14409   4.069   3.036   8.356 -0.1320 -0.3569  0.0891
  133OSM   H18T14410   4.014   2.858   8.350 -2.7897  0.0146  2.0479
  133OSM   H18U14411   3.894   2.990   8.367  0.0501 -0.9818  0.2514
  133OSM    C1F14412   3.417   2.547   6.661 -0.1514 -0.6478 -0.3317
  133OSM     OF14413   3.423   2.442   6.602 -0.0449 -0.6871  0.2435
  133OSM    C2F14414   3.294   2.582   6.741 -0.0299  0.0236 -0.6664
  133OSM    H2F14415   3.277   2.692   6.738 -2.0505 -0.2399 -0.2109
  133OSM    H2G14416   3.312   2.550   6.846 -1.0717  0.4603 -0.3355
  133OSM    C3F14417   3.164   2.514   6.686 -0.2891 -0.5083  0.2968
  133OSM    H3F14418   3.177   2.404   6.692 -1.2403 -0.8705 -2.6828
  133OSM    H3G14419   3.162   2.528   6.575  1.2425  0.1303  0.3175
  133OSM    C4F14420   3.031   2.564   6.751 -0.5474 -0.5005  0.4887
  133OSM    H4F14421   2.951   2.521   6.686 -0.3808  0.9347 -0.7395
  133OSM    H4G14422   3.015   2.673   6.736 -0.5888 -0.2376  2.2759
  133OSM    C5F14423   3.012   2.534   6.901 -0.1011 -0.4663 -0.1495
  133OSM    H5F14424   3.029   2.427   6.927 -2.2117 -0.9754 -0.6283
  133OSM    H5G14425   2.904   2.558   6.916 -0.0523  0.3018 -0.9911
  133OSM    C6F14426   3.090   2.630   7.003  0.6218  0.7853  0.3484
  133OSM    H6F14427   3.047   2.732   6.993 -2.6244 -0.4205  0.7894
  133OSM    H6G14428   3.198   2.623   6.980  0.2278  1.4244 -1.9625
  133OSM    C7F14429   3.071   2.596   7.154 -0.4021 -0.8625  0.6746
  133OSM    H7F14430   3.086   2.486   7.164 -1.2255 -1.2188 -1.4498
  133OSM    H7G14431   2.969   2.628   7.183 -0.5438  0.3894 -1.0956
  133OSM    C8F14432   3.188   2.659   7.236 -0.6293 -0.3336  0.5170
  133OSM    H8F14433   3.178   2.769   7.223 -0.6781 -0.3658  0.2842
  133OSM    H8G14434   3.288   2.646   7.189 -0.0237 -1.1030  1.9583
  133OSM    C9F14435   3.193   2.638   7.382 -0.4485  0.0884 -0.2953
  133OSM    H9F14436   3.120   2.688   7.447  0.2010  0.2934  0.2988
  133OSM   C10F14437   3.294   2.571   7.448  0.6867 -0.9518  0.5922
  133OSM   H10F14438   3.292   2.582   7.557  3.6465  0.3621  0.5970
  133OSM   C11F14439   3.416   2.502   7.390  0.5432  0.7084  0.2954
  133OSM   H11F14440   3.416   2.499   7.279  1.0957 -0.4820  0.3110
  133OSM   H11G14441   3.406   2.393   7.411 -1.5783  0.6545 -0.7270
  133OSM   C12F14442   3.548   2.564   7.436  0.4888  0.5039  0.5255
  133OSM   H12F14443   3.558   2.668   7.398 -0.8272  0.6458  0.5192
  133OSM   H12G14444   3.636   2.505   7.403  0.0481  0.5452 -0.7933
  133OSM   C13F14445   3.563   2.562   7.588  0.1958 -0.5906 -0.4832
  133OSM   H13F14446   3.496   2.630   7.645 -0.3439 -0.4820 -1.2379
  133OSM   H13G14447   3.665   2.601   7.606 -0.8494  2.3211 -0.3581
  133OSM   C14F14448   3.535   2.421   7.660  0.5213  0.3035  0.3741
  133OSM   H14F14449   3.604   2.347   7.614 -0.3258 -0.2098 -0.1024
  133OSM   H14G14450   3.431   2.406   7.624  0.4412  3.2004 -0.9234
  133OSM   C15F14451   3.550   2.421   7.815  0.0471  0.1275 -0.1155
  133OSM   H15F14452   3.501   2.327   7.850 -0.2673  0.6452  0.8719
  133OSM   H15G14453   3.507   2.511   7.865  1.0151 -0.4379  1.8458
  133OSM   C16F14454   3.701   2.433   7.856  0.3675  0.6175 -0.6484
  133OSM   H16F14455   3.735   2.528   7.809 -0.6090  0.3501 -1.9579
  133OSM   H16G14456   3.763   2.349   7.818  1.6589  1.0411  0.4567
  133OSM   C17F14457   3.723   2.451   8.007 -0.5286 -0.0983  0.8709
  133OSM   H17F14458   3.682   2.366   8.065 -0.4470  0.9988  2.6012
  133OSM   H17G14459   3.660   2.540   8.030  0.8738  0.9054  0.9537
  133OSM   C18F14460   3.869   2.462   8.046 -0.7234  0.2337 -1.1599
  133OSM   H18F14461   3.888   2.456   8.156 -0.0678 -0.1317 -1.2858
  133OSM   H18G14462   3.914   2.560   8.019 -1.0673  0.6017 -0.4315
  133OSM   H18H14463   3.926   2.373   8.010 -1.0023 -1.0717  1.3436
  134OSM      N14464   4.195   0.704   6.445 -0.1895 -0.0538  0.3425
  134OSM    C1514465   4.204   0.824   6.347  0.0838  0.4208  0.0542
  134OSM   H15A14466   4.196   0.781   6.248 -0.4838 -1.8498  1.0180
  134OSM   H15B14467   4.297   0.878   6.358 -0.6607  1.6317  0.5808
  134OSM   H15C14468   4.124   0.895   6.361  2.0267  2.4545  1.4321
  134OSM    C1414469   4.167   0.751   6.588 -0.0295  0.7557  0.3234
  134OSM   H14A14470   4.174   0.674   6.663 -1.2421 -0.1785 -0.4770
  134OSM   H14B14471   4.067   0.793   6.592 -0.4534 -0.1968 -0.0024
  134OSM   H14C14472   4.241   0.828   6.603  0.1717  0.6341 -0.0549
  134OSM    C1314473   4.076   0.620   6.407  0.7403  0.2529  0.2140
  134OSM   H13A14474   4.088   0.568   6.313  1.2636  3.3868 -1.5855
  134OSM   H13B14475   3.986   0.677   6.393  0.6469  0.0160 -0.1949
  134OSM   H13C14476   4.053   0.551   6.487 -1.4777  2.5997  1.7755
  134OSM    C1214477   4.324   0.623   6.438  0.5519  0.2059  0.2618
  134OSM   H12A14478   4.348   0.578   6.343 -1.8166 -0.3078 -0.1608
  134OSM   H12B14479   4.310   0.541   6.508 -1.3332 -0.1029 -0.3983
  134OSM    C1114480   4.449   0.683   6.487 -0.4795 -0.4263 -0.7206
  134OSM   H11A14481   4.434   0.728   6.588  0.8198 -2.1560  0.2977
  134OSM   H11B14482   4.503   0.766   6.436  0.8200 -0.4437  0.5501
  134OSM      P14483   4.598   0.493   6.384 -0.3608  0.4383 -0.0806
  134OSM    O1314484   4.510   0.501   6.263  0.6713  0.4837 -0.2897
  134OSM    O1414485   4.743   0.522   6.378  0.2861  0.2514  0.0622
  134OSM    O1114486   4.585   0.341   6.440  0.4054  0.2529 -0.0341
  134OSM    O1214487   4.537   0.572   6.498 -0.2246  0.1677  0.0936
  134OSM    C1S14488   4.667   0.315   6.559  0.7268  0.8250 -0.8557
  134OSM    H1S14489   4.642   0.378   6.647 -0.1613  1.7693 -1.7530
  134OSM    H1T14490   4.776   0.335   6.547  1.0358 -0.5605 -0.5535
  134OSM     NF14491   4.745   0.140   6.727 -0.6076 -0.0850 -0.2832
  134OSM    HNF14492   4.841   0.123   6.710 -0.7306 -0.9699 -0.1245
  134OSM    C2S14493   4.662   0.161   6.606 -0.3713 -1.2892  0.1478
  134OSM    H2S14494   4.555   0.141   6.627 -0.7594  0.5528  0.0717
  134OSM    C3S14495   4.698   0.070   6.481 -0.0600 -0.6822  0.2803
  134OSM    H3S14496   4.799   0.091   6.440  0.8106 -1.0641  2.1253
  134OSM     O314497   4.610   0.089   6.373  0.1893  0.1653 -0.0572
  134OSM    HO314498   4.576   0.176   6.394  0.3677  0.1574  0.2675
  134OSM    C4S14499   4.713  -0.079   6.520 -0.4934  0.9811 -0.6188
  134OSM    H4S14500   4.803  -0.103   6.579 -1.2144 -2.7316 -0.7756
  134OSM    C5S14501   4.626  -0.174   6.494 -0.6993  0.0343 -0.5071
  134OSM    H5S14502   4.531  -0.160   6.441 -0.9863 -0.8945 -0.2572
  134OSM    C6S14503   4.646  -0.310   6.538  0.1380  1.3059 -0.0055
  134OSM    H6S14504   4.669  -0.370   6.448 -0.2025  1.5297 -0.2460
  134OSM    H6T14505   4.551  -0.356   6.573  0.5122  0.3796 -0.2006
  134OSM    C7S14506   4.744  -0.340   6.659 -0.8400  0.4532  0.1417
  134OSM    H7S14507   4.847  -0.302   6.646 -0.3351 -0.5289  1.1488
  134OSM    H7T14508   4.743  -0.450   6.673  0.2576  0.5937  1.4506
  134OSM    C8S14509   4.694  -0.263   6.783 -0.2715  0.1614 -0.5684
  134OSM    H8S14510   4.603  -0.324   6.801  0.0114 -0.6672 -1.7717
  134OSM    H8T14511   4.669  -0.156   6.764  1.7327  0.6981 -0.4070
  134OSM    C9S14512   4.774  -0.282   6.908 -0.2622  0.1131 -0.0779
  134OSM    H9S14513   4.878  -0.245   6.895  0.0051 -0.7391 -0.4407
  134OSM    H9T14514   4.767  -0.390   6.936  3.2119  0.1414  1.4535
  134OSM   C10S14515   4.706  -0.216   7.022  0.2373 -0.3137  0.4255
  134OSM   H10S14516   4.605  -0.263   7.024 -0.4540  1.0521 -0.6831
  134OSM   H10T14517   4.689  -0.109   6.997 -1.0647 -0.4996  0.4569
  134OSM   C11S14518   4.789  -0.238   7.150 -0.8066  0.1213 -0.1822
  134OSM   H11S14519   4.891  -0.194   7.151 -0.8136  0.1353  0.1833
  134OSM   H11T14520   4.806  -0.347   7.166 -1.1390  0.3768  2.2846
  134OSM   C12S14521   4.721  -0.189   7.276 -0.5087  0.3607 -0.0208
  134OSM   H12S14522   4.631  -0.247   7.306 -0.7148  1.4082  1.4743
  134OSM   H12T14523   4.692  -0.083   7.262  0.6972  0.4334 -2.4926
  134OSM   C13S14524   4.802  -0.203   7.406  0.0200 -0.1920  0.5211
  134OSM   H13S14525   4.893  -0.140   7.400  0.0659 -0.2327  0.7647
  134OSM   H13T14526   4.845  -0.306   7.402  0.5951  0.0515 -2.7038
  134OSM   C14S14527   4.730  -0.143   7.528 -0.9004 -0.2077  0.9521
  134OSM   H14S14528   4.642  -0.210   7.542  0.3702 -2.4960 -1.1971
  134OSM   H14T14529   4.700  -0.038   7.507  0.8326 -0.1939 -1.9587
  134OSM   C15S14530   4.826  -0.169   7.645  0.4477  0.2346 -0.5081
  134OSM   H15S14531   4.922  -0.118   7.619 -0.1421  2.2991  1.0684
  134OSM   H15T14532   4.844  -0.277   7.666 -1.6030 -0.1951 -0.7891
  134OSM   C16S14533   4.784  -0.091   7.773 -0.4627 -0.7299  0.1814
  134OSM   H16S14534   4.758   0.011   7.738  0.5801 -0.6273 -0.3564
  134OSM   H16T14535   4.862  -0.077   7.852  0.1801  0.0661 -0.5664
  134OSM   C17S14536   4.658  -0.143   7.840  0.2508  0.1190  0.2110
  134OSM   H17S14537   4.661  -0.251   7.868 -1.5417  0.4278  1.8493
  134OSM   H17T14538   4.559  -0.131   7.791 -0.9179  1.3360  2.6897
  134OSM   C18S14539   4.636  -0.059   7.967 -0.5081 -0.2977 -0.4659
  134OSM   H18S14540   4.570  -0.112   8.039 -1.3485  0.4800 -0.6342
  134OSM   H18T14541   4.590   0.040   7.946 -0.2153  0.8783  3.6388
  134OSM   H18U14542   4.731  -0.046   8.022 -1.6212 -1.2236  1.8053
  134OSM    C1F14543   4.695   0.171   6.846  0.3331 -0.6000 -0.2660
  134OSM     OF14544   4.580   0.211   6.852  0.4288 -0.5090  0.0253
  134OSM    C2F14545   4.791   0.180   6.960 -0.1366  0.3358  0.1013
  134OSM    H2F14546   4.876   0.245   6.931  1.0383 -1.0698  0.3156
  134OSM    H2G14547   4.844   0.084   6.973  1.6594  1.0858 -1.3410
  134OSM    C3F14548   4.721   0.220   7.088  0.0405 -0.1731  0.8770
  134OSM    H3F14549   4.617   0.186   7.105 -0.7419  1.7392  0.1383
  134OSM    H3G14550   4.710   0.330   7.079 -2.1575 -0.5481 -2.3581
  134OSM    C4F14551   4.818   0.192   7.207 -0.3608 -0.5091 -0.1892
  134OSM    H4F14552   4.917   0.237   7.187  0.2036 -1.3655  0.5999
  134OSM    H4G14553   4.839   0.084   7.224 -0.4797 -0.3659  0.9392
  134OSM    C5F14554   4.773   0.264   7.336  0.0696 -0.6946  0.0516
  134OSM    H5F14555   4.674   0.223   7.366 -0.8501  2.3562  1.5107
  134OSM    H5G14556   4.767   0.372   7.314 -0.5143  0.0374  3.3208
  134OSM    C6F14557   4.862   0.248   7.455 -0.2462  0.1534 -0.0229
  134OSM    H6F14558   4.965   0.271   7.420 -0.8070  2.1736 -0.4947
  134OSM    H6G14559   4.859   0.141   7.484  0.8026  0.0889 -0.1176
  134OSM    C7F14560   4.842   0.342   7.568  0.1463 -0.4509 -0.1926
  134OSM    H7F14561   4.741   0.319   7.608 -0.2228 -1.6169 -1.6902
  134OSM    H7G14562   4.832   0.444   7.527 -0.4918 -0.2018  0.5690
  134OSM    C8F14563   4.943   0.356   7.682 -0.3919 -0.1171  0.0534
  134OSM    H8F14564   5.046   0.373   7.642  0.7136 -4.2972  0.6707
  134OSM    H8G14565   4.961   0.257   7.729 -0.0384  0.6359  1.5668
  134OSM    C9F14566   4.909   0.463   7.786 -0.3080 -0.0081  1.1863
  134OSM    H9F14567   4.889   0.564   7.746 -1.8885 -1.8561 -3.3910
  134OSM   C10F14568   4.895   0.447   7.922  0.4664 -0.5115  0.6241
  134OSM   H10F14569   4.860   0.531   7.984 -2.6903 -2.6200  1.9099
  134OSM   C11F14570   4.908   0.321   8.001  0.0954  0.2724 -0.1509
  134OSM   H11F14571   4.894   0.230   7.940 -1.2358 -0.6074  1.3762
  134OSM   H11G14572   4.817   0.304   8.062  1.3006  0.5422  1.7905
  134OSM   C12F14573   5.015   0.326   8.114 -0.0861 -0.0659 -0.7234
  134OSM   H12F14574   5.113   0.332   8.063  0.1541  0.9551 -0.1805
  134OSM   H12G14575   5.009   0.233   8.175  0.9437 -1.3198 -2.4397
  134OSM   C13F14576   5.017   0.446   8.203  0.1281 -0.0291 -0.1498
  134OSM   H13F14577   5.031   0.540   8.144  2.1344 -0.1241  0.0923
  134OSM   H13G14578   5.105   0.443   8.271  0.4248 -0.6313 -0.5513
  134OSM   C14F14579   4.901   0.466   8.291 -0.4102 -0.4834  0.1119
  134OSM   H14F14580   4.881   0.369   8.341 -0.8487 -0.5682 -0.2143
  134OSM   H14G14581   4.807   0.485   8.234  0.4603 -0.6973 -1.4311
  134OSM   C15F14582   4.919   0.584   8.395 -0.3032  0.9508  0.4729
  134OSM   H15F14583   4.895   0.680   8.345 -0.0499  1.4091  1.2284
  134OSM   H15G14584   5.026   0.581   8.423  0.8218 -0.4496 -3.4037
  134OSM   C16F14585   4.833   0.580   8.520 -0.4335 -0.5663  0.1592
  134OSM   H16F14586   4.725   0.570   8.495 -0.3116 -0.5906 -0.3653
  134OSM   H16G14587   4.841   0.675   8.578 -0.9038 -1.4567  1.7553
  134OSM   C17F14588   4.880   0.469   8.615  0.1367 -0.0338 -0.2256
  134OSM   H17F14589   4.977   0.504   8.658 -0.1588  0.9968 -0.3839
  134OSM   H17G14590   4.910   0.376   8.562  0.8762  1.3366 -2.3252
  134OSM   C18F14591   4.788   0.439   8.733  0.1589 -0.2990 -0.8296
  134OSM   H18F14592   4.682   0.416   8.708 -0.2311  0.8031 -0.2501
  134OSM   H18G14593   4.783   0.536   8.787  0.8528  1.3155 -3.4876
  134OSM   H18H14594   4.837   0.366   8.801  1.2016 -0.7360 -2.0140
  135OSM      N14595   4.270   0.015   6.003 -0.0139  0.2774 -0.5555
  135OSM    C1514596   4.413   0.033   5.972  0.5612 -0.3803 -0.0368
  135OSM   H15A14597   4.464  -0.055   6.009 -0.6810 -0.9187  0.4465
  135OSM   H15B14598   4.439   0.119   6.032 -0.4814  0.6345 -0.9741
  135OSM   H15C14599   4.438   0.066   5.872  2.3319 -0.5658  0.3111
  135OSM    C1414600   4.204   0.128   5.937 -0.0185 -0.7302  0.5745
  135OSM   H14A14601   4.206   0.134   5.829  0.1958 -1.5236  0.5355
  135OSM   H14B14602   4.239   0.224   5.972  0.5867 -1.1340  1.0894
  135OSM   H14C14603   4.099   0.121   5.962 -0.1979  0.1336  0.1133
  135OSM    C1314604   4.223  -0.114   5.943  0.4634  0.3061 -0.2565
  135OSM   H13A14605   4.229  -0.104   5.835  0.7456 -2.5261 -0.5790
  135OSM   H13B14606   4.123  -0.130   5.978  0.3541  0.0328 -0.6832
  135OSM   H13C14607   4.275  -0.202   5.979 -0.9014  0.5857  2.6197
  135OSM    C1214608   4.249   0.020   6.149  0.1214 -0.0402  0.5269
  135OSM   H12A14609   4.300   0.100   6.201  2.2117 -2.2707  2.1617
  135OSM   H12B14610   4.305  -0.064   6.188 -2.0167 -2.1640 -0.7121
  135OSM    C1114611   4.100   0.003   6.204  0.1500 -0.0350  0.2003
  135OSM   H11A14612   4.106  -0.035   6.309 -0.0217  0.7865  0.5150
  135OSM   H11B14613   4.037  -0.064   6.142  0.2192  1.0343 -1.0543
  135OSM      P14614   4.091   0.251   6.284 -0.1932 -0.1225  0.1763
  135OSM    O1314615   4.207   0.309   6.209  0.7217 -0.1933 -0.0111
  135OSM    O1414616   3.980   0.352   6.315  0.1398 -0.2654  0.4398
  135OSM    O1114617   4.146   0.179   6.422  0.0824  0.6465  0.6307
  135OSM    O1214618   4.025   0.125   6.210 -0.7604 -0.3599  0.2855
  135OSM    C1S14619   4.245   0.248   6.493 -0.0904 -0.2463  0.1390
  135OSM    H1S14620   4.225   0.357   6.496  0.8460 -0.0683  0.3341
  135OSM    H1T14621   4.348   0.232   6.453  0.3069 -0.9691  1.3949
  135OSM     NF14622   4.338   0.287   6.717  0.3887  0.3022  0.3794
  135OSM    HNF14623   4.419   0.249   6.763  0.4339 -0.5440 -0.3716
  135OSM    C2S14624   4.247   0.199   6.643 -0.7491 -0.2669 -0.2879
  135OSM    H2S14625   4.143   0.206   6.682 -0.4790 -1.8927  0.8172
  135OSM    C3S14626   4.284   0.049   6.646 -0.2424  0.2067  0.4387
  135OSM    H3S14627   4.388   0.042   6.609 -0.0449 -1.8157  1.2204
  135OSM     O314628   4.205  -0.025   6.554 -0.2058 -0.1676 -0.2640
  135OSM    HO314629   4.174   0.045   6.496 -0.6901  0.2227  0.4506
  135OSM    C4S14630   4.263  -0.000   6.786  0.8418 -0.4745 -0.8347
  135OSM    H4S14631   4.162  -0.005   6.827  1.5897 -1.8963  1.0209
  135OSM    C5S14632   4.358  -0.053   6.866 -0.0854 -0.7647 -0.6344
  135OSM    H5S14633   4.461  -0.069   6.831  1.0206 -0.4705  2.2212
  135OSM    C6S14634   4.327  -0.096   7.007 -0.5062  0.8798 -0.4194
  135OSM    H6S14635   4.361  -0.200   7.025  5.9241  2.9162  2.1865
  135OSM    H6T14636   4.216  -0.095   7.019 -0.7344 -1.3840 -1.8564
  135OSM    C7S14637   4.395  -0.007   7.118  0.9497  0.5625  0.3708
  135OSM    H7S14638   4.371   0.102   7.112 -1.4297  0.0511 -0.7827
  135OSM    H7T14639   4.503  -0.025   7.103  0.8148 -0.1661  0.2235
  135OSM    C8S14640   4.362  -0.053   7.258 -0.1112 -0.0426  0.4800
  135OSM    H8S14641   4.405  -0.154   7.276 -1.8619 -1.1057 -0.9610
  135OSM    H8T14642   4.253  -0.070   7.268 -0.1073 -1.4067 -1.3851
  135OSM    C9S14643   4.411   0.043   7.362 -0.2157  0.2869 -0.0998
  135OSM    H9S14644   4.361   0.141   7.346 -0.3707  0.4377  1.2179
  135OSM    H9T14645   4.519   0.068   7.348 -0.0483  1.5149  2.7584
  135OSM   C10S14646   4.384  -0.001   7.506 -0.1535 -0.0496 -0.1010
  135OSM   H10S14647   4.425  -0.102   7.526 -1.8379 -0.4114  1.7524
  135OSM   H10T14648   4.276  -0.009   7.529 -0.1412 -0.8896 -0.3153
  135OSM   C11S14649   4.450   0.097   7.611  0.7840 -0.3318 -0.1720
  135OSM   H11S14650   4.557   0.098   7.583  0.5974 -1.0527 -0.9399
  135OSM   H11T14651   4.435   0.060   7.715 -1.4057 -0.2436 -0.4122
  135OSM   C12S14652   4.390   0.239   7.606 -0.5840 -0.0711 -0.2568
  135OSM   H12S14653   4.279   0.250   7.610 -0.4864  2.9033 -2.6621
  135OSM   H12T14654   4.420   0.284   7.509 -0.6043  0.7212  0.0937
  135OSM   C13S14655   4.450   0.332   7.716 -0.0620 -0.2319 -0.0051
  135OSM   H13S14656   4.427   0.439   7.694 -0.8395 -0.5176 -0.6334
  135OSM   H13T14657   4.560   0.320   7.723  0.0202  0.8190  0.9899
  135OSM   C14S14658   4.387   0.310   7.857 -0.6550  0.4416  0.4493
  135OSM   H14S14659   4.391   0.201   7.877  0.6817  0.3310 -0.2716
  135OSM   H14T14660   4.283   0.350   7.861 -0.3395  1.1791  2.3956
  135OSM   C15S14661   4.473   0.379   7.967  0.5010  0.3457 -0.1408
  135OSM   H15S14662   4.484   0.488   7.946 -0.2119  0.8277  1.7354
  135OSM   H15T14663   4.574   0.336   7.953  0.7443  0.2115  1.7788
  135OSM   C16S14664   4.419   0.362   8.107 -0.1146  0.0674  0.4871
  135OSM   H16S14665   4.410   0.256   8.139 -2.6739 -0.4473 -1.5857
  135OSM   H16T14666   4.313   0.395   8.112 -0.8550 -2.2755  1.4284
  135OSM   C17S14667   4.511   0.447   8.201  0.3267 -0.2949 -0.2265
  135OSM   H17S14668   4.512   0.541   8.141 -1.6871 -1.0985 -1.6027
  135OSM   H17T14669   4.614   0.408   8.214 -0.1402 -0.8276  2.3451
  135OSM   C18S14670   4.447   0.483   8.336 -0.0197  0.1156  0.6285
  135OSM   H18S14671   4.503   0.560   8.393 -1.0967 -0.6777  2.8855
  135OSM   H18T14672   4.435   0.384   8.384  0.8001 -0.1149  0.3700
  135OSM   H18U14673   4.351   0.527   8.300  0.7587  0.5811 -0.9939
  135OSM    C1F14674   4.313   0.416   6.742  0.3146 -0.7738 -0.4677
  135OSM     OF14675   4.206   0.472   6.713  0.2372 -0.5963 -0.4454
  135OSM    C2F14676   4.422   0.490   6.818  0.8034 -0.1874 -0.2471
  135OSM    H2F14677   4.471   0.550   6.739 -2.1642 -0.7280 -2.6852
  135OSM    H2G14678   4.492   0.413   6.858 -0.4770 -2.1549 -1.5998
  135OSM    C3F14679   4.366   0.579   6.922 -0.4651  0.0810  0.7474
  135OSM    H3F14680   4.304   0.650   6.864 -1.8878 -2.4653 -1.0776
  135OSM    H3G14681   4.449   0.639   6.965  0.9334 -1.3931  0.1957
  135OSM    C4F14682   4.290   0.520   7.040 -0.1473 -0.5698 -0.0659
  135OSM    H4F14683   4.203   0.464   7.001  0.2854 -1.3890  0.1223
  135OSM    H4G14684   4.252   0.602   7.105  0.6475 -2.3957  2.8686
  135OSM    C5F14685   4.374   0.421   7.130 -0.3034 -0.7336 -0.7471
  135OSM    H5F14686   4.411   0.336   7.069 -1.3027 -1.8660  0.1782
  135OSM    H5G14687   4.306   0.377   7.206 -0.6159  3.0438  1.4577
  135OSM    C6F14688   4.496   0.486   7.204 -0.0421  0.2939  0.1872
  135OSM    H6F14689   4.575   0.482   7.127  0.7852  0.2155  1.0215
  135OSM    H6G14690   4.518   0.410   7.282 -0.4248 -0.4729 -0.4472
  135OSM    C7F14691   4.466   0.625   7.257 -0.2828  0.9575  0.4658
  135OSM    H7F14692   4.374   0.616   7.319 -0.8421  0.2746 -0.4397
  135OSM    H7G14693   4.452   0.693   7.170  1.4211  1.2076  0.3636
  135OSM    C8F14694   4.585   0.689   7.331  0.6796  0.1986 -0.5002
  135OSM    H8F14695   4.544   0.792   7.346 -1.8782 -0.6962 -0.9129
  135OSM    H8G14696   4.671   0.695   7.261  2.5831 -0.9742  1.6074
  135OSM    C9F14697   4.612   0.606   7.447 -1.0735 -0.4558  0.0813
  135OSM    H9F14698   4.591   0.498   7.456 -0.0267 -0.7166 -0.3321
  135OSM   C10F14699   4.666   0.653   7.562  0.7452  0.2620 -0.1907
  135OSM   H10F14700   4.689   0.580   7.640 -0.0526  2.2827  2.0657
  135OSM   C11F14701   4.688   0.801   7.583 -0.6777  0.0468  0.8116
  135OSM   H11F14702   4.596   0.863   7.588 -0.2219  0.9849 -1.3047
  135OSM   H11G14703   4.747   0.846   7.500 -1.1150 -2.2246 -0.8115
  135OSM   C12F14704   4.761   0.816   7.717  0.0782  0.0768 -0.1149
  135OSM   H12F14705   4.798   0.919   7.735  0.8918  0.1699 -2.0735
  135OSM   H12G14706   4.857   0.761   7.720 -0.0914 -0.2925 -1.1935
  135OSM   C13F14707   4.668   0.781   7.834  0.1309  0.0557 -0.2289
  135OSM   H13F14708   4.676   0.670   7.838  0.8104  0.1074 -0.0160
  135OSM   H13G14709   4.565   0.813   7.809  0.0023  1.7674  2.1760
  135OSM   C14F14710   4.719   0.851   7.965 -0.4528 -0.4160  0.3706
  135OSM   H14F14711   4.746   0.955   7.939  2.2971 -1.2470 -0.3910
  135OSM   H14G14712   4.816   0.807   7.997  0.8687  0.1724 -2.5659
  135OSM   C15F14713   4.600   0.865   8.066  0.5136 -0.4425  0.0173
  135OSM   H15F14714   4.525   0.784   8.079 -1.3890  1.4447  1.4465
  135OSM   H15G14715   4.548   0.944   8.008  2.7450 -0.5000 -2.2364
  135OSM   C16F14716   4.622   0.916   8.214  0.0121  0.2606  0.1427
  135OSM   H16F14717   4.638   0.821   8.269  0.2004  0.1823 -0.0473
  135OSM   H16G14718   4.528   0.959   8.255 -1.4568 -0.8616 -1.8856
  135OSM   C17F14719   4.731   1.010   8.242  0.3765  0.7665  0.9409
  135OSM   H17F14720   4.703   1.108   8.198 -1.5527 -0.2843 -0.3042
  135OSM   H17G14721   4.824   0.971   8.195 -0.4572  0.9556 -0.9765
  135OSM   C18F14722   4.746   1.025   8.394 -0.3668 -0.2708 -0.1624
  135OSM   H18F14723   4.820   0.952   8.434 -0.1542  1.1459  2.1912
  135OSM   H18G14724   4.654   1.012   8.455  1.3847  1.6250  3.1608
  135OSM   H18H14725   4.793   1.122   8.420 -1.0132  0.3774 -1.3201
  136OSM      N14726   2.328   6.159   5.902  0.1814  0.0475 -0.7268
  136OSM    C1514727   2.322   6.289   5.829  0.8186 -0.1325  0.4702
  136OSM   H15A14728   2.277   6.358   5.899 -0.7910 -1.2343  0.5889
  136OSM   H15B14729   2.263   6.290   5.738  1.4433 -2.5783 -0.0109
  136OSM   H15C14730   2.423   6.314   5.801  0.4186 -0.1784 -1.1540
  136OSM    C1414731   2.195   6.108   5.939 -0.4627 -0.7252  0.0165
  136OSM   H14A14732   2.128   6.171   5.996  0.6264  1.2948 -0.8075
  136OSM   H14B14733   2.207   6.014   5.991 -0.9571 -0.1855  1.1313
  136OSM   H14C14734   2.143   6.088   5.846 -1.8013 -0.3735  0.6611
  136OSM    C1314735   2.393   6.058   5.817 -0.0446 -0.7225 -0.1914
  136OSM   H13A14736   2.397   5.956   5.852 -1.1641 -0.6937  0.0601
  136OSM   H13B14737   2.491   6.102   5.804 -0.6922  1.1030  0.6881
  136OSM   H13C14738   2.351   6.061   5.718  2.5177 -0.6760 -1.3606
  136OSM    C1214739   2.407   6.185   6.027 -0.4020  0.0242 -0.2325
  136OSM   H12A14740   2.508   6.207   5.995 -0.4591  0.1553 -0.3225
  136OSM   H12B14741   2.428   6.094   6.080  0.1411 -0.2848 -0.9658
  136OSM    C1114742   2.363   6.291   6.128  0.2623 -0.5234 -1.0738
  136OSM   H11A14743   2.441   6.297   6.207 -2.3717  1.0878  1.5943
  136OSM   H11B14744   2.275   6.237   6.168  0.4973  0.3591  0.7010
  136OSM      P14745   2.446   6.534   6.075  0.0016  0.0094  0.1130
  136OSM    O1314746   2.572   6.479   6.036 -0.5487  0.4901 -0.0516
  136OSM    O1414747   2.403   6.650   5.994 -0.1680 -1.0087  0.1543
  136OSM    O1114748   2.454   6.593   6.221 -0.5563  0.1705  0.4981
  136OSM    O1214749   2.331   6.423   6.072 -0.3453 -0.0151 -0.3841
  136OSM    C1S14750   2.348   6.636   6.298 -1.1556  0.1953 -0.6274
  136OSM    H1S14751   2.306   6.549   6.352 -0.8372  0.9196  0.8474
  136OSM    H1T14752   2.261   6.669   6.237 -1.8248 -0.4725 -0.0429
  136OSM     NF14753   2.318   6.741   6.528  0.7440  0.0338  0.0101
  136OSM    HNF14754   2.303   6.833   6.563 -3.2239  0.0539 -1.3523
  136OSM    C2S14755   2.407   6.722   6.414  0.2670 -0.3357  0.2191
  136OSM    H2S14756   2.502   6.671   6.440  1.1609  0.5060 -1.2265
  136OSM    C3S14757   2.454   6.861   6.354  0.3371 -1.1020  1.0314
  136OSM    H3S14758   2.366   6.923   6.329  0.8554  0.5619  3.0070
  136OSM     O314759   2.537   6.852   6.238 -0.0197  1.0397  0.1173
  136OSM    HO314760   2.519   6.762   6.209 -1.6218  1.3063  0.1816
  136OSM    C4S14761   2.545   6.942   6.447 -0.9519 -0.0965 -1.2411
  136OSM    H4S14762   2.644   6.901   6.470 -0.9858 -0.6952 -2.1407
  136OSM    C5S14763   2.503   7.052   6.500  0.8602 -0.0119  0.6784
  136OSM    H5S14764   2.403   7.089   6.475  0.9374  0.7889  1.5165
  136OSM    C6S14765   2.585   7.128   6.600 -0.0576 -0.6623  0.2720
  136OSM    H6S14766   2.549   7.227   6.635  2.0607  0.5136 -0.6797
  136OSM    H6T14767   2.688   7.152   6.565  0.0865  0.0719  1.1593
  136OSM    C7S14768   2.598   7.041   6.730 -0.1295 -0.0607  0.3548
  136OSM    H7S14769   2.657   7.098   6.805 -0.5616  0.5218  0.2555
  136OSM    H7T14770   2.652   6.944   6.720  1.1574  0.4664  1.8033
  136OSM    C8S14771   2.469   7.015   6.805  0.7105  0.3779  1.0505
  136OSM    H8S14772   2.416   6.927   6.764  0.9480  0.1071  1.3214
  136OSM    H8T14773   2.393   7.094   6.786  0.5754 -0.1548 -0.7581
  136OSM    C9S14774   2.489   6.998   6.959 -0.7560  0.3127 -0.6068
  136OSM    H9S14775   2.559   7.080   6.985  0.4176 -0.2964 -1.7442
  136OSM    H9T14776   2.549   6.908   6.980 -1.0153 -0.0225 -1.2541
  136OSM   C10S14777   2.365   6.975   7.052 -0.6446 -0.5172  0.6175
  136OSM   H10S14778   2.315   6.879   7.030 -0.2540 -1.3754  3.1450
  136OSM   H10T14779   2.297   7.060   7.029  0.7667  0.0665 -1.7581
  136OSM   C11S14780   2.397   6.978   7.207  1.2731 -0.3617  0.2710
  136OSM   H11S14781   2.431   7.081   7.232  1.4303 -0.4004  0.2210
  136OSM   H11T14782   2.478   6.905   7.229  0.9503 -0.8664 -0.2067
  136OSM   C12S14783   2.273   6.947   7.291 -0.6400 -0.5655 -0.7162
  136OSM   H12S14784   2.226   6.853   7.257  0.8428 -1.3971 -0.5357
  136OSM   H12T14785   2.213   7.040   7.274 -0.8679 -0.2771  1.3690
  136OSM   C13S14786   2.309   6.951   7.438  1.1976 -0.6915  0.5538
  136OSM   H13S14787   2.359   7.043   7.475  1.1834 -0.8898  1.0742
  136OSM   H13T14788   2.384   6.873   7.464  1.0178 -1.3044 -0.7039
  136OSM   C14S14789   2.183   6.913   7.515 -0.0530 -0.1360  1.0181
  136OSM   H14S14790   2.147   6.815   7.477 -0.3203  0.6877 -0.9994
  136OSM   H14T14791   2.099   6.985   7.504 -1.4296 -2.0298 -2.3004
  136OSM   C15S14792   2.210   6.894   7.666 -0.2000  0.1887  0.0084
  136OSM   H15S14793   2.270   6.982   7.697 -0.1294 -0.2715  1.2401
  136OSM   H15T14794   2.270   6.801   7.678 -1.8137 -0.5582  3.6943
  136OSM   C16S14795   2.097   6.885   7.768  0.2923  0.1183  0.5323
  136OSM   H16S14796   2.007   6.829   7.734  1.1818 -0.0496 -1.7269
  136OSM   H16T14797   2.067   6.992   7.777  4.6711  1.6161 -0.3345
  136OSM   C17S14798   2.143   6.824   7.895 -0.5669 -0.9586  0.3239
  136OSM   H17S14799   2.240   6.869   7.926 -0.7686  0.1166 -0.5229
  136OSM   H17T14800   2.160   6.715   7.894  1.9519 -0.6238 -1.1306
  136OSM   C18S14801   2.051   6.856   8.009  0.9710  0.3673  0.0324
  136OSM   H18S14802   2.034   6.964   8.028 -1.5955 -0.1910  1.6036
  136OSM   H18T14803   2.082   6.809   8.105 -2.8402 -0.7809  0.8784
  136OSM   H18U14804   1.953   6.805   7.993  1.0771 -0.0988  0.8072
  136OSM    C1F14805   2.288   6.629   6.598  0.0980 -0.4119 -0.1922
  136OSM     OF14806   2.353   6.529   6.577 -0.9134 -0.1036 -0.0962
  136OSM    C2F14807   2.177   6.633   6.699  0.0721  0.1911 -0.2722
  136OSM    H2F14808   2.113   6.542   6.698  0.1730  0.1199 -0.3618
  136OSM    H2G14809   2.112   6.722   6.688  0.1789  0.0992 -1.8820
  136OSM    C3F14810   2.232   6.648   6.841 -0.3641 -0.2317 -0.5542
  136OSM    H3F14811   2.277   6.748   6.855 -0.0189 -0.8259  3.8601
  136OSM    H3G14812   2.309   6.569   6.858 -0.1662  0.5329  2.6478
  136OSM    C4F14813   2.114   6.635   6.946 -0.0108  0.7636 -0.6177
  136OSM    H4F14814   2.038   6.710   6.917  1.2765  1.9589 -0.9951
  136OSM    H4G14815   2.148   6.662   7.048 -0.8003 -2.6617  0.7143
  136OSM    C5F14816   2.047   6.494   6.958 -0.4962 -0.2075  0.0608
  136OSM    H5F14817   2.023   6.469   6.852  0.8246  1.6556 -0.7185
  136OSM    H5G14818   1.947   6.486   7.006  0.1785 -0.9885  1.4048
  136OSM    C6F14819   2.140   6.387   7.022 -0.5349 -0.4000 -0.5677
  136OSM    H6F14820   2.164   6.412   7.127 -1.1753  1.0117 -0.7330
  136OSM    H6G14821   2.241   6.397   6.977  0.7700 -0.6820  2.0961
  136OSM    C7F14822   2.089   6.240   7.005  0.0217 -0.2979  0.5106
  136OSM    H7F14823   2.160   6.180   7.066 -0.2034  0.2823  1.3651
  136OSM    H7G14824   2.098   6.217   6.897 -0.9809  0.8637  0.1610
  136OSM    C8F14825   1.953   6.209   7.065  0.6286 -1.0456 -0.2139
  136OSM    H8F14826   1.885   6.253   6.988  0.3508 -1.9801 -0.5109
  136OSM    H8G14827   1.930   6.267   7.157 -0.1062  0.4576 -1.3034
  136OSM    C9F14828   1.910   6.072   7.075 -0.4345 -0.1146  0.6441
  136OSM    H9F14829   1.840   6.046   6.994 -0.6721  1.3952  0.3361
  136OSM   C10F14830   1.930   5.987   7.180 -0.1736  0.0609  0.7720
  136OSM   H10F14831   1.880   5.890   7.179  0.9003 -0.5238 -1.0711
  136OSM   C11F14832   1.992   6.016   7.310  0.2592  0.0413 -0.4059
  136OSM   H11F14833   2.006   6.126   7.308 -1.6845  0.3113 -1.4409
  136OSM   H11G14834   2.090   5.965   7.309  1.3086  1.8418  1.4197
  136OSM   C12F14835   1.903   5.971   7.427 -0.0971  0.1374  0.0988
  136OSM   H12F14836   1.858   5.870   7.421 -3.2006  1.4004  0.1151
  136OSM   H12G14837   1.814   6.037   7.418 -0.5868 -0.3276  1.3363
  136OSM   C13F14838   1.956   5.992   7.573 -0.2719 -0.5529 -0.0706
  136OSM   H13F14839   2.016   6.086   7.574 -3.3222  1.5636  1.0968
  136OSM   H13G14840   2.028   5.909   7.592 -0.7031 -0.6475  1.3008
  136OSM   C14F14841   1.854   5.990   7.685  0.6096  0.0722  0.0055
  136OSM   H14F14842   1.809   5.888   7.681  0.1681  0.2951 -0.9549
  136OSM   H14G14843   1.762   6.050   7.669  1.6777  1.8486  0.2926
  136OSM   C15F14844   1.916   6.021   7.825  0.2937 -0.1968  0.8680
  136OSM   H15F14845   1.991   6.104   7.824 -0.2002  0.2668  1.5620
  136OSM   H15G14846   1.974   5.927   7.837  0.5246 -0.2894 -0.6964
  136OSM   C16F14847   1.814   6.040   7.928  0.4399 -0.6698  0.0172
  136OSM   H16F14848   1.736   5.963   7.909 -0.8961  0.7507 -0.4359
  136OSM   H16G14849   1.779   6.145   7.916  1.5437 -0.1415  1.1097
  136OSM   C17F14850   1.865   6.030   8.072  0.0702  0.1246  0.3044
  136OSM   H17F14851   1.941   6.106   8.100  0.9474  0.1397 -1.9054
  136OSM   H17G14852   1.922   5.938   8.097  0.0369  0.8665  3.5788
  136OSM   C18F14853   1.746   6.034   8.174 -0.5074 -0.5780  0.3451
  136OSM   H18F14854   1.772   6.025   8.281 -1.8487 -1.4057  0.6243
  136OSM   H18G14855   1.678   5.948   8.153 -0.0730 -1.1148  1.1114
  136OSM   H18H14856   1.683   6.125   8.164  2.8162  1.6710 -2.6813
  137OSM      N14857   5.259   6.259   6.127  0.0373  0.6097 -0.2172
  137OSM    C1514858   5.350   6.263   6.014  0.2835 -0.1560  0.1767
  137OSM   H15A14859   5.413   6.350   6.014 -1.7746  1.4241 -0.6778
  137OSM   H15B14860   5.293   6.270   5.922  0.3123  0.9207  0.2347
  137OSM   H15C14861   5.416   6.178   6.007 -1.0364 -1.3864  1.9203
  137OSM    C1414862   5.180   6.382   6.151 -0.1819  0.0727  0.2720
  137OSM   H14A14863   5.250   6.458   6.180  1.5012 -1.6342  0.8939
  137OSM   H14B14864   5.099   6.366   6.221 -2.0756  0.8074 -1.6545
  137OSM   H14C14865   5.130   6.424   6.065  0.3801  2.5367  1.0802
  137OSM    C1314866   5.165   6.142   6.104  0.5598 -0.0823  0.1202
  137OSM   H13A14867   5.208   6.043   6.106 -1.4180 -1.0237 -0.8806
  137OSM   H13B14868   5.103   6.165   6.019  2.2426  3.1965 -0.3665
  137OSM   H13C14869   5.091   6.134   6.182 -1.7474 -0.6909 -1.9828
  137OSM    C1214870   5.341   6.220   6.252  0.0080 -0.3537  0.3367
  137OSM   H12A14871   5.401   6.130   6.254 -0.9559 -1.0097  1.2203
  137OSM   H12B14872   5.265   6.191   6.324 -1.4295 -0.5985 -1.2193
  137OSM    C1114873   5.427   6.323   6.323  0.4813  0.3857  0.2939
  137OSM   H11A14874   5.441   6.283   6.426 -0.8528 -1.1943 -0.0986
  137OSM   H11B14875   5.361   6.412   6.324 -2.7623 -1.8416  0.5421
  137OSM      P14876   5.672   6.247   6.286  0.3810 -0.0560  0.1333
  137OSM    O1314877   5.620   6.110   6.268  0.4138 -0.5963 -0.2022
  137OSM    O1414878   5.793   6.291   6.217 -0.1854  0.4773 -0.3997
  137OSM    O1114879   5.680   6.258   6.444  0.6553  0.4015 -0.0590
  137OSM    O1214880   5.554   6.348   6.260  0.5382 -0.4903 -0.2515
  137OSM    C1S14881   5.727   6.387   6.500 -0.0877  1.6541  0.2609
  137OSM    H1S14882   5.669   6.468   6.451  0.8640  0.7482 -2.5500
  137OSM    H1T14883   5.836   6.398   6.480  0.1151  0.6976  0.7463
  137OSM     NF14884   5.736   6.527   6.701  0.1022  0.4760  0.2051
  137OSM    HNF14885   5.813   6.541   6.762  0.8633  0.5248 -0.7438
  137OSM    C2S14886   5.719   6.393   6.649 -0.3630  0.1819  0.3916
  137OSM    H2S14887   5.615   6.367   6.679 -0.7897  1.4473  0.0917
  137OSM    C3S14888   5.803   6.275   6.707  0.5812  0.2032 -0.3931
  137OSM    H3S14889   5.909   6.280   6.675  0.4317  0.7099 -0.8139
  137OSM     O314890   5.763   6.143   6.664 -0.2102 -0.3926 -0.1556
  137OSM    HO314891   5.685   6.159   6.610 -0.7949 -0.9573  0.5010
  137OSM    C4S14892   5.790   6.281   6.853  0.3138 -0.0196  0.1737
  137OSM    H4S14893   5.876   6.345   6.880  1.6432 -0.9844 -1.5301
  137OSM    C5S14894   5.703   6.231   6.943  1.3025  0.0735 -0.0728
  137OSM    H5S14895   5.617   6.172   6.909  1.3505  0.4837 -0.9231
  137OSM    C6S14896   5.700   6.264   7.093 -0.0074 -0.1070 -0.1275
  137OSM    H6S14897   5.741   6.179   7.151  1.8300  1.8857  1.7140
  137OSM    H6T14898   5.597   6.289   7.127 -0.8264 -3.7235  0.4154
  137OSM    C7S14899   5.779   6.388   7.146  0.2474  0.0094  0.1194
  137OSM    H7S14900   5.765   6.467   7.068  0.1881  0.8852  0.9994
  137OSM    H7T14901   5.883   6.351   7.157 -0.5517 -2.0494  1.1618
  137OSM    C8S14902   5.730   6.432   7.284  0.1025  0.0842  0.1468
  137OSM    H8S14903   5.623   6.460   7.281 -0.3015 -1.2515  1.1464
  137OSM    H8T14904   5.797   6.520   7.297  1.1423 -0.5019 -0.9862
  137OSM    C9S14905   5.755   6.329   7.399  0.0103  0.6646  0.8182
  137OSM    H9S14906   5.864   6.320   7.422  0.9184  1.7021 -2.4315
  137OSM    H9T14907   5.710   6.233   7.364  1.2499 -0.0096  0.9980
  137OSM   C10S14908   5.692   6.367   7.531  0.5913 -0.1062 -0.8828
  137OSM   H10S14909   5.704   6.281   7.600  0.4455  1.0651  0.6513
  137OSM   H10T14910   5.584   6.382   7.509  0.5431  0.6207 -0.1775
  137OSM   C11S14911   5.731   6.502   7.599 -0.1077  0.4254  0.2577
  137OSM   H11S14912   5.671   6.587   7.560 -0.2182  0.8355  1.2872
  137OSM   H11T14913   5.833   6.538   7.575 -0.7330 -0.2184 -4.4983
  137OSM   C12S14914   5.699   6.502   7.749 -0.2623  0.2785 -0.2090
  137OSM   H12S14915   5.753   6.417   7.794  0.6853  0.0468 -1.7065
  137OSM   H12T14916   5.591   6.486   7.769 -0.5204  1.4429 -0.5709
  137OSM   C13S14917   5.724   6.644   7.801  0.7033  0.0306  1.0048
  137OSM   H13S14918   5.666   6.714   7.737  3.5238  0.3406 -1.4487
  137OSM   H13T14919   5.832   6.665   7.785  0.8925 -1.9298 -0.5479
  137OSM   C14S14920   5.665   6.659   7.944 -0.6613  1.5421 -0.7996
  137OSM   H14S14921   5.739   6.597   8.000 -0.5942  1.6088 -0.8138
  137OSM   H14T14922   5.568   6.606   7.949  0.0132  0.3152 -0.2800
  137OSM   C15S14923   5.677   6.795   7.996 -0.5483 -0.0579  0.2414
  137OSM   H15S14924   5.612   6.870   7.945 -1.5265 -0.6887  0.5232
  137OSM   H15T14925   5.781   6.831   7.984 -0.2926 -0.5539  0.9253
  137OSM   C16S14926   5.648   6.784   8.146 -0.3787 -0.9207  0.1566
  137OSM   H16S14927   5.709   6.703   8.192 -0.8232 -1.8525 -0.8557
  137OSM   H16T14928   5.544   6.765   8.181 -0.3023 -0.5997  0.5730
  137OSM   C17S14929   5.687   6.917   8.214  0.3368 -0.1056  0.3299
  137OSM   H17S14930   5.628   7.002   8.174  0.2827 -0.5768 -0.6250
  137OSM   H17T14931   5.796   6.937   8.203  0.3004  1.1361  1.9441
  137OSM   C18S14932   5.655   6.910   8.358 -0.5226  1.0547 -0.3208
  137OSM   H18S14933   5.722   6.840   8.411 -0.0243  1.7644  0.0127
  137OSM   H18T14934   5.551   6.878   8.382  0.0919  0.1466  1.2721
  137OSM   H18U14935   5.653   7.013   8.402 -0.3031  1.8031 -2.0096
  137OSM    C1F14936   5.662   6.635   6.663  0.0472  0.3204 -0.9278
  137OSM     OF14937   5.562   6.623   6.593  0.1083 -0.3846 -0.2359
  137OSM    C2F14938   5.689   6.766   6.730 -0.4561 -0.0120 -0.3641
  137OSM    H2F14939   5.794   6.799   6.713 -0.5536  0.0784 -0.8050
  137OSM    H2G14940   5.661   6.758   6.837 -1.0155  2.0290 -0.3028
  137OSM    C3F14941   5.609   6.881   6.683 -0.4183 -0.0076  0.0194
  137OSM    H3F14942   5.508   6.854   6.646 -1.7730  3.2688  0.9573
  137OSM    H3G14943   5.655   6.933   6.597 -0.7713 -0.6472 -0.5612
  137OSM    C4F14944   5.591   6.989   6.787 -0.1628 -0.0114 -0.6077
  137OSM    H4F14945   5.587   6.947   6.890  1.7970  1.3502  0.0897
  137OSM    H4G14946   5.491   7.035   6.776 -1.2693 -2.0113  0.5147
  137OSM    C5F14947   5.705   7.100   6.790 -0.1968  0.3321 -0.0710
  137OSM    H5F14948   5.738   7.141   6.693  0.1348  0.6304  0.1643
  137OSM    H5G14949   5.798   7.049   6.824 -0.1202  1.3290  1.3041
  137OSM    C6F14950   5.679   7.205   6.898  0.2560 -0.5040 -0.3225
  137OSM    H6F14951   5.649   7.140   6.983  1.2122  0.0934  0.4948
  137OSM    H6G14952   5.598   7.267   6.853  0.4057 -1.6005 -2.2216
  137OSM    C7F14953   5.805   7.289   6.938  0.5963  0.2851 -0.2855
  137OSM    H7F14954   5.834   7.340   6.843 -0.4795  0.1319 -0.7159
  137OSM    H7G14955   5.883   7.219   6.972 -0.7642 -1.0890  0.1252
  137OSM    C8F14956   5.775   7.385   7.053  0.0868  0.4911 -0.1545
  137OSM    H8F14957   5.733   7.332   7.140  1.6619  2.9790  2.2887
  137OSM    H8G14958   5.692   7.453   7.023 -0.0359  0.6198  0.4655
  137OSM    C9F14959   5.902   7.462   7.080  0.2733 -0.3864 -0.9360
  137OSM    H9F14960   5.915   7.554   7.021 -0.3959  1.9575  2.3015
  137OSM   C10F14961   6.005   7.417   7.157  0.0489  0.1700  0.3120
  137OSM   H10F14962   6.097   7.477   7.160 -0.0683  0.3345  0.6841
  137OSM   C11F14963   6.026   7.287   7.227  0.2115  0.9191 -0.4524
  137OSM   H11F14964   6.085   7.224   7.157 -1.1636  1.0768 -1.8248
  137OSM   H11G14965   5.930   7.234   7.241  0.5815  0.0583 -1.0680
  137OSM   C12F14966   6.093   7.291   7.371 -0.1996  0.0375  0.3637
  137OSM   H12F14967   6.197   7.316   7.339 -0.7122 -1.4733 -2.9286
  137OSM   H12G14968   6.088   7.185   7.403 -0.5197  0.0110  0.2256
  137OSM   C13F14969   6.037   7.386   7.468  0.8999 -0.8980  0.0170
  137OSM   H13F14970   5.962   7.336   7.532 -0.2130  2.5649  1.7247
  137OSM   H13G14971   5.984   7.469   7.416 -0.6474 -1.7432  0.2129
  137OSM   C14F14972   6.146   7.451   7.556 -0.0518 -0.4003 -0.4945
  137OSM   H14F14973   6.216   7.514   7.497  0.4608  0.5935  1.1050
  137OSM   H14G14974   6.217   7.374   7.592  2.0319  1.8274  0.3841
  137OSM   C15F14975   6.100   7.523   7.686  0.8180  0.2105 -0.2083
  137OSM   H15F14976   6.037   7.455   7.747 -0.3689  1.1219 -0.3837
  137OSM   H15G14977   6.038   7.609   7.654  3.1566  1.8242 -0.7340
  137OSM   C16F14978   6.224   7.569   7.759  0.5954  0.7475  0.2094
  137OSM   H16F14979   6.274   7.645   7.695  2.9210 -1.8941 -1.3842
  137OSM   H16G14980   6.302   7.492   7.778  0.1818  0.8393  2.4363
  137OSM   C17F14981   6.197   7.627   7.897 -0.1101 -0.0467  0.5753
  137OSM   H17F14982   6.160   7.543   7.959  1.0250 -0.0878  1.2350
  137OSM   H17G14983   6.126   7.710   7.881  1.8609  1.3902 -1.4106
  137OSM   C18F14984   6.327   7.683   7.964  0.3928  0.8667  0.9803
  137OSM   H18F14985   6.310   7.721   8.067 -0.4775  0.8018  0.8655
  137OSM   H18G14986   6.365   7.773   7.912  1.5420 -0.0468  0.1888
  137OSM   H18H14987   6.407   7.606   7.967 -1.3465 -1.0288  1.9684
  138OSM      N14988   5.588   2.418   5.725  0.1569 -0.5411  0.0829
  138OSM    C1514989   5.733   2.434   5.722 -0.0672  0.1667 -0.3570
  138OSM   H15A14990   5.768   2.416   5.622  2.9978  3.0037  0.0163
  138OSM   H15B14991   5.781   2.363   5.788  1.9400  2.4676  0.8633
  138OSM   H15C14992   5.774   2.532   5.744 -0.9512  0.9150 -1.9259
  138OSM    C1414993   5.535   2.527   5.635  0.3082  0.9664 -0.2434
  138OSM   H14A14994   5.568   2.512   5.533 -0.7857 -3.4281 -0.1587
  138OSM   H14B14995   5.569   2.624   5.669  1.1897  1.0598 -1.3228
  138OSM   H14C14996   5.427   2.526   5.640  0.2698  1.6715 -0.8442
  138OSM    C1314997   5.558   2.290   5.659 -0.0572  0.9021 -0.1056
  138OSM   H13A14998   5.451   2.278   5.650 -0.0978 -1.1100  1.8515
  138OSM   H13B14999   5.591   2.210   5.725  1.6729  0.0751 -1.8739
  138OSM   H13C15000   5.600   2.278   5.561 -0.5619  2.0625 -0.4728
  138OSM    C1215001   5.529   2.407   5.863 -0.3865 -0.1151  0.1360
  138OSM   H12A15002   5.571   2.320   5.911 -2.3147 -0.5865  1.0730
  138OSM   H12B15003   5.421   2.401   5.858 -0.7998  2.8309  2.3029
  138OSM    C1115004   5.544   2.533   5.960  0.0725  0.4756  0.0850
  138OSM   H11A15005   5.654   2.539   5.973  0.8275 -2.0437 -3.6074
  138OSM   H11B15006   5.496   2.515   6.059 -0.5335 -0.0866 -0.2983
  138OSM      P15007   5.541   2.791   5.928  0.4120  0.0742  0.2477
  138OSM    O1315008   5.676   2.800   5.865  0.4904  0.3202 -0.2935
  138OSM    O1415009   5.441   2.884   5.880  0.0608 -0.3250 -0.3673
  138OSM    O1115010   5.560   2.808   6.083 -0.1941 -0.4961 -0.1409
  138OSM    O1215011   5.478   2.648   5.909  0.5385 -0.1401  0.4245
  138OSM    C1S15012   5.476   2.762   6.188  0.4529 -0.3191  0.6232
  138OSM    H1S15013   5.415   2.678   6.148  1.8761 -1.4561  0.7454
  138OSM    H1T15014   5.414   2.846   6.227  2.2571  1.0135  0.7039
  138OSM     NF15015   5.484   2.679   6.418 -0.1860  0.1857  0.1023
  138OSM    HNF15016   5.462   2.740   6.494 -2.6852 -2.5203  1.7574
  138OSM    C2S15017   5.567   2.722   6.307  0.4045  0.2066  0.1121
  138OSM    H2S15018   5.634   2.641   6.271  1.8371  2.3085 -2.3076
  138OSM    C3S15019   5.669   2.830   6.356  0.5145  0.2772 -0.0588
  138OSM    H3S15020   5.627   2.933   6.366  3.2606  1.3319  1.7615
  138OSM     O315021   5.764   2.859   6.250 -0.5948 -0.0018  0.2614
  138OSM    HO315022   5.725   2.826   6.169 -2.0216 -0.4923  1.0963
  138OSM    C4S15023   5.745   2.776   6.479 -0.0331  0.2340  0.6510
  138OSM    H4S15024   5.722   2.827   6.574  2.4542  3.1583 -0.1636
  138OSM    C5S15025   5.848   2.690   6.478  0.3135  0.3477  0.3595
  138OSM    H5S15026   5.892   2.670   6.379 -2.0016 -0.8859 -0.4994
  138OSM    C6S15027   5.930   2.631   6.599  0.1330  0.2785 -0.1489
  138OSM    H6S15028   6.036   2.661   6.589 -0.1092  1.4259  0.6007
  138OSM    H6T15029   5.918   2.521   6.587  0.9992 -0.1878  2.6536
  138OSM    C7S15030   5.885   2.660   6.742 -0.2911 -0.0447  0.1141
  138OSM    H7S15031   5.781   2.628   6.760  0.0314 -1.7196 -0.7917
  138OSM    H7T15032   5.881   2.769   6.763 -1.8282 -0.1144  0.2444
  138OSM    C8S15033   5.964   2.585   6.850 -0.9113 -0.5762 -0.5280
  138OSM    H8S15034   6.069   2.623   6.854 -0.8159 -0.8953  0.3157
  138OSM    H8T15035   5.985   2.480   6.819  3.7081  0.2392 -0.8604
  138OSM    C9S15036   5.908   2.599   6.995 -0.6523  0.1807  0.3709
  138OSM    H9S15037   5.813   2.542   6.990 -0.6345  0.2533 -1.1988
  138OSM    H9T15038   5.889   2.704   7.024 -0.0535  0.4957 -0.3444
  138OSM   C10S15039   5.991   2.522   7.099 -0.1051 -0.7459 -0.5499
  138OSM   H10S15040   6.094   2.559   7.080 -0.4747  1.3191  1.0665
  138OSM   H10T15041   6.009   2.414   7.082  3.5578 -0.5997  1.2832
  138OSM   C11S15042   5.956   2.555   7.250 -0.2356 -0.4674  0.8877
  138OSM   H11S15043   5.849   2.529   7.264 -0.3796 -0.4045 -0.0393
  138OSM   H11T15044   5.968   2.665   7.260  1.9468 -0.5774  0.0530
  138OSM   C12S15045   6.046   2.464   7.337 -0.3436  0.1037 -0.3543
  138OSM   H12S15046   6.154   2.470   7.312 -0.3705 -1.9554 -1.1749
  138OSM   H12T15047   6.020   2.358   7.315 -0.1098 -0.5888  2.4109
  138OSM   C13S15048   6.037   2.482   7.492  0.3025  0.7142  0.3945
  138OSM   H13S15049   5.929   2.488   7.521  0.6021  0.8705  1.5482
  138OSM   H13T15050   6.083   2.581   7.510 -0.5721  0.8943  1.8582
  138OSM   C14S15051   6.087   2.366   7.577 -0.0572  0.2263 -0.0286
  138OSM   H14S15052   6.189   2.330   7.555 -0.3896 -0.5432 -0.3331
  138OSM   H14T15053   6.024   2.275   7.569  0.6558 -0.3153  0.4188
  138OSM   C15S15054   6.070   2.403   7.725  0.3727  0.6228 -0.7934
  138OSM   H15S15055   5.965   2.434   7.744  0.6166  1.6464 -1.0504
  138OSM   H15T15056   6.148   2.482   7.737 -0.3878  0.9617  3.4216
  138OSM   C16S15057   6.118   2.290   7.821  0.2603 -0.9360  0.3413
  138OSM   H16S15058   6.216   2.258   7.780 -0.1926 -2.2156  0.2122
  138OSM   H16T15059   6.048   2.203   7.824 -0.2963 -0.4784  1.8474
  138OSM   C17S15060   6.145   2.351   7.959  0.8505  0.2472 -0.8201
  138OSM   H17S15061   6.054   2.392   8.009  1.8320 -0.5173  1.7924
  138OSM   H17T15062   6.217   2.436   7.960 -0.1228  1.1062 -0.0788
  138OSM   C18S15063   6.203   2.240   8.058 -0.5288 -0.1043 -0.2578
  138OSM   H18S15064   6.216   2.274   8.163  3.7607  1.1844 -1.0306
  138OSM   H18T15065   6.309   2.232   8.027 -0.1405  0.9010  0.7441
  138OSM   H18U15066   6.155   2.139   8.054 -0.1737 -0.2729 -0.2539
  138OSM    C1F15067   5.423   2.566   6.410  0.4031  0.3535 -0.1191
  138OSM     OF15068   5.431   2.503   6.305 -0.2280  0.0444  0.0640
  138OSM    C2F15069   5.335   2.527   6.522 -0.2434  0.2918  0.3779
  138OSM    H2F15070   5.245   2.473   6.487 -0.2295  1.1870 -1.1193
  138OSM    H2G15071   5.307   2.621   6.575  2.6884  1.3401  0.2610
  138OSM    C3F15072   5.406   2.425   6.619  0.3897  0.2222 -0.6618
  138OSM    H3F15073   5.485   2.477   6.678 -1.0039  0.2612  1.2707
  138OSM    H3G15074   5.449   2.356   6.544 -0.3335  0.8188 -1.6424
  138OSM    C4F15075   5.310   2.354   6.717  0.1219 -0.5031 -0.3514
  138OSM    H4F15076   5.359   2.257   6.742  0.7761  0.6664  3.4808
  138OSM    H4G15077   5.209   2.336   6.675 -0.2229 -0.5053  0.4641
  138OSM    C5F15078   5.289   2.420   6.853  0.0967 -0.6341  0.0792
  138OSM    H5F15079   5.235   2.516   6.843  1.2569 -0.0946 -1.5005
  138OSM    H5G15080   5.387   2.457   6.891 -0.9906  3.0822 -0.3191
  138OSM    C6F15081   5.209   2.332   6.948  0.4502 -0.1111 -0.2321
  138OSM    H6F15082   5.266   2.238   6.964  0.7802  0.3311  1.3350
  138OSM    H6G15083   5.116   2.289   6.905  1.1033 -1.0267 -0.7601
  138OSM    C7F15084   5.192   2.400   7.079 -0.4823  0.3636 -0.1977
  138OSM    H7F15085   5.104   2.467   7.066 -0.8273  0.4736  2.3077
  138OSM    H7G15086   5.273   2.475   7.092 -0.5569  0.2241  1.1567
  138OSM    C8F15087   5.170   2.321   7.200 -0.2444 -0.3040 -0.6775
  138OSM    H8F15088   5.082   2.254   7.187  1.1466 -2.1219 -1.0916
  138OSM    H8G15089   5.140   2.388   7.284 -1.2441  0.1546 -1.3768
  138OSM    C9F15090   5.299   2.239   7.234  0.4633 -0.0328  1.0036
  138OSM    H9F15091   5.394   2.295   7.225  0.4217 -0.1427 -0.2336
  138OSM   C10F15092   5.305   2.104   7.266  0.4210  0.7983  0.2411
  138OSM   H10F15093   5.399   2.054   7.294 -0.6232 -0.3658  1.8326
  138OSM   C11F15094   5.187   2.020   7.286  0.6167  0.2078  0.0753
  138OSM   H11F15095   5.205   1.929   7.224  1.5260  0.6633 -0.3481
  138OSM   H11G15096   5.108   2.072   7.228  0.2076 -1.0472 -0.5293
  138OSM   C12F15097   5.135   1.988   7.430 -0.0668 -0.3544 -0.2792
  138OSM   H12F15098   5.136   2.080   7.492 -1.2203  0.4959 -1.4668
  138OSM   H12G15099   5.208   1.922   7.481  0.0663 -0.1470 -0.2020
  138OSM   C13F15100   5.006   1.916   7.423  0.0814  0.8964  0.0291
  138OSM   H13F15101   4.973   1.901   7.528 -1.4690  2.9106 -0.1222
  138OSM   H13G15102   5.023   1.816   7.377  1.0251  1.5707 -1.1593
  138OSM   C14F15103   4.888   1.991   7.354  0.0535  0.0464 -0.2788
  138OSM   H14F15104   4.917   2.020   7.250 -1.3001  0.4953 -0.5397
  138OSM   H14G15105   4.871   2.088   7.405  0.7610  0.7466 -1.3219
  138OSM   C15F15106   4.752   1.914   7.360 -0.3448  0.0883  0.7438
  138OSM   H15F15107   4.762   1.816   7.308 -0.3914 -0.0593  1.0090
  138OSM   H15G15108   4.673   1.968   7.304 -0.9929  0.3921  1.9298
  138OSM   C16F15109   4.694   1.893   7.496 -1.0451  0.2266  0.4389
  138OSM   H16F15110   4.701   1.992   7.546 -0.5378 -0.9438  2.8338
  138OSM   H16G15111   4.761   1.835   7.562  1.5095  1.5668 -0.8325
  138OSM   C17F15112   4.555   1.830   7.511 -0.7957  0.1315 -0.0529
  138OSM   H17F15113   4.512   1.876   7.420  2.5936  1.0558 -1.3350
  138OSM   H17G15114   4.511   1.856   7.609 -0.2370 -0.0376  0.2478
  138OSM   C18F15115   4.555   1.677   7.499 -0.2309 -0.1512  0.1150
  138OSM   H18F15116   4.611   1.630   7.583 -1.3462 -0.5310  0.6591
  138OSM   H18G15117   4.608   1.633   7.411  1.6907 -0.6491  1.4612
  138OSM   H18H15118   4.450   1.640   7.504 -0.1257 -0.3977  0.5567
  139OSM      N15119   4.521   2.066   5.788  0.6128 -0.6823  0.6328
  139OSM    C1515120   4.538   1.929   5.727 -0.3351 -0.6252 -0.3008
  139OSM   H15A15121   4.613   1.872   5.780  2.5024  0.2462 -3.0572
  139OSM   H15B15122   4.570   1.936   5.624 -0.9019 -2.7042 -0.6712
  139OSM   H15C15123   4.443   1.878   5.738 -0.9748  0.9359  2.1363
  139OSM    C1415124   4.647   2.145   5.787 -0.4811  0.4699 -0.1711
  139OSM   H14A15125   4.627   2.248   5.813 -2.1802  0.1465 -0.0577
  139OSM   H14B15126   4.684   2.144   5.686 -0.8520 -0.8913 -0.3127
  139OSM   H14C15127   4.717   2.111   5.861  1.0531 -2.4202 -2.7235
  139OSM    C1315128   4.429   2.141   5.692  0.1256 -0.7987  0.0820
  139OSM   H13A15129   4.476   2.155   5.596  0.1764  1.9022  0.4175
  139OSM   H13B15130   4.405   2.243   5.721 -1.9149 -1.1504 -0.2326
  139OSM   H13C15131   4.340   2.083   5.676  1.3891 -2.1597 -2.5941
  139OSM    C1215132   4.464   2.059   5.929 -0.8359  0.2237 -0.3072
  139OSM   H12A15133   4.524   1.998   5.995 -1.3245  0.1072  0.0408
  139OSM   H12B15134   4.370   2.004   5.930 -1.3044  0.9868 -1.0340
  139OSM    C1115135   4.426   2.200   6.002 -0.6695  0.3158 -0.5167
  139OSM   H11A15136   4.370   2.178   6.095 -0.8284  0.1149 -0.6574
  139OSM   H11B15137   4.362   2.264   5.937 -3.1353 -0.6489  0.8259
  139OSM      P15138   4.636   2.202   6.153  0.1851  0.3183  0.0814
  139OSM    O1315139   4.556   2.089   6.209 -0.1502  0.4594 -0.0992
  139OSM    O1415140   4.770   2.181   6.099  0.0469 -0.1955  0.1029
  139OSM    O1115141   4.642   2.321   6.258  1.1656 -0.0222  0.2912
  139OSM    O1215142   4.547   2.274   6.041 -0.4685  0.0174  0.2110
  139OSM    C1S15143   4.535   2.356   6.347  0.2945  0.4921 -0.2521
  139OSM    H1S15144   4.431   2.348   6.310 -0.7570  2.7445  1.9262
  139OSM    H1T15145   4.544   2.466   6.356 -0.0688  0.5669 -0.7573
  139OSM     NF15146   4.421   2.329   6.561  0.2197 -0.2466 -0.5942
  139OSM    HNF15147   4.421   2.397   6.634  1.5101 -0.5554 -0.2810
  139OSM    C2S15148   4.541   2.292   6.483 -0.3401 -0.4139 -0.3044
  139OSM    H2S15149   4.531   2.182   6.470 -3.2146 -0.4284  1.3251
  139OSM    C3S15150   4.677   2.318   6.555  0.5364  0.0452  0.8169
  139OSM    H3S15151   4.708   2.424   6.568  2.6866 -0.5525  1.0713
  139OSM     O315152   4.790   2.255   6.495 -0.2037 -0.1302 -0.0297
  139OSM    HO315153   4.764   2.220   6.410 -0.7990  0.3536 -0.0576
  139OSM    C4S15154   4.672   2.258   6.695  0.1010  0.1028  0.2884
  139OSM    H4S15155   4.650   2.151   6.708  0.1597  0.0630  0.0637
  139OSM    C5S15156   4.703   2.320   6.810  0.0553 -0.2444 -0.1529
  139OSM    H5S15157   4.727   2.427   6.815 -0.5447 -0.0951 -0.3648
  139OSM    C6S15158   4.704   2.244   6.934 -0.4198 -0.0641 -0.9497
  139OSM    H6S15159   4.790   2.251   7.005 -1.0603 -0.5729 -0.0925
  139OSM    H6T15160   4.673   2.138   6.919 -0.6939 -0.2428  0.6705
  139OSM    C7S15161   4.594   2.300   7.025  0.0182  0.2827  0.0292
  139OSM    H7S15162   4.491   2.304   6.984 -0.1741  1.9602  0.5949
  139OSM    H7T15163   4.625   2.406   7.037  0.8237  0.1516 -0.8654
  139OSM    C8S15164   4.597   2.224   7.163  0.0885 -0.0122  0.3265
  139OSM    H8S15165   4.704   2.205   7.186  0.3391  0.9889  0.0523
  139OSM    H8T15166   4.551   2.125   7.141 -2.0495  0.7049  1.3352
  139OSM    C9S15167   4.520   2.289   7.270  0.1692 -0.4174 -0.3970
  139OSM    H9S15168   4.410   2.288   7.250 -0.0863  0.2915  0.8978
  139OSM    H9T15169   4.538   2.398   7.279  1.2611 -0.7465  3.2089
  139OSM   C10S15170   4.542   2.230   7.410 -0.6103 -0.2195 -0.1546
  139OSM   H10S15171   4.651   2.245   7.430 -0.5344 -0.9711  0.0147
  139OSM   H10T15172   4.518   2.123   7.397  0.7704 -0.8215  1.7805
  139OSM   C11S15173   4.439   2.282   7.510 -0.7518  0.2039 -0.1465
  139OSM   H11S15174   4.342   2.285   7.457 -1.8682 -1.0989  1.7221
  139OSM   H11T15175   4.463   2.385   7.547 -0.0753  0.1477 -0.4187
  139OSM   C12S15176   4.438   2.189   7.632  0.1738 -0.1224 -0.1901
  139OSM   H12S15177   4.531   2.183   7.692  0.7695 -3.6775 -1.2634
  139OSM   H12T15178   4.412   2.087   7.598 -0.1479  0.4035 -1.6061
  139OSM   C13S15179   4.331   2.236   7.738 -0.2791  0.1323  1.0279
  139OSM   H13S15180   4.238   2.265   7.684 -0.9086  1.1719  2.5964
  139OSM   H13T15181   4.381   2.322   7.788  0.8706  0.3563 -0.4635
  139OSM   C14S15182   4.289   2.135   7.845  0.7544 -0.3150  0.2304
  139OSM   H14S15183   4.369   2.108   7.916  0.5537  0.0759  0.6065
  139OSM   H14T15184   4.254   2.040   7.799 -2.2691  1.1535 -0.7346
  139OSM   C15S15185   4.170   2.193   7.924 -0.6317 -0.8346 -0.3060
  139OSM   H15S15186   4.086   2.201   7.852 -0.3692  0.9819 -0.4517
  139OSM   H15T15187   4.182   2.296   7.965 -1.9840 -0.8195  0.0798
  139OSM   C16S15188   4.121   2.106   8.045  0.4480  0.6066  0.2808
  139OSM   H16S15189   4.150   2.002   8.018  0.9133  1.1948 -1.6373
  139OSM   H16T15190   4.011   2.103   8.060  0.5097 -0.5923  0.6079
  139OSM   C17S15191   4.194   2.133   8.175 -0.1258  0.5019  0.0497
  139OSM   H17S15192   4.146   2.226   8.212  1.6989  1.6459 -0.3149
  139OSM   H17T15193   4.299   2.159   8.147  0.0573 -0.6037 -0.3135
  139OSM   C18S15194   4.197   2.023   8.277 -0.1290 -0.1954  0.2095
  139OSM   H18S15195   4.228   2.056   8.378  0.4049  0.7175 -0.2381
  139OSM   H18T15196   4.271   1.946   8.249 -1.2544 -0.6900 -1.5631
  139OSM   H18U15197   4.094   1.984   8.292  0.3021 -1.2386  0.5308
  139OSM    C1F15198   4.303   2.270   6.539  0.7576 -0.3176  0.5134
  139OSM     OF15199   4.285   2.194   6.446  0.2952  0.4172  0.4098
  139OSM    C2F15200   4.192   2.312   6.624 -0.3754 -0.3193  0.1512
  139OSM    H2F15201   4.153   2.413   6.597 -4.4887 -1.1533  2.2196
  139OSM    H2G15202   4.211   2.318   6.733  0.1164 -1.4999  0.1466
  139OSM    C3F15203   4.059   2.229   6.604  0.1467 -0.2871  0.3522
  139OSM    H3F15204   4.076   2.121   6.620  3.9116  0.0166 -0.7530
  139OSM    H3G15205   4.023   2.252   6.501 -0.6972  0.5695  0.8227
  139OSM    C4F15206   3.950   2.299   6.702  0.3347  0.2517  0.0390
  139OSM    H4F15207   3.937   2.402   6.664  1.5452  0.8350  1.1216
  139OSM    H4G15208   3.989   2.292   6.806 -0.8222 -2.4797  0.3915
  139OSM    C5F15209   3.813   2.236   6.701 -0.6178 -0.0082  0.4929
  139OSM    H5F15210   3.820   2.130   6.733  0.0701  0.0545  0.5579
  139OSM    H5G15211   3.783   2.239   6.594  1.8501  0.0667 -0.2622
  139OSM    C6F15212   3.715   2.291   6.803  0.2537 -0.1521  0.0120
  139OSM    H6F15213   3.612   2.257   6.778  0.6745 -1.2570 -0.3116
  139OSM    H6G15214   3.709   2.400   6.782  0.9097 -0.3099 -1.0864
  139OSM    C7F15215   3.755   2.264   6.946 -1.0469 -1.0854 -0.6497
  139OSM    H7F15216   3.849   2.323   6.952 -0.6315 -1.6633 -1.3370
  139OSM    H7G15217   3.777   2.156   6.949 -0.3107 -0.9293  0.0234
  139OSM    C8F15218   3.659   2.298   7.061 -0.3924  0.9922  0.3334
  139OSM    H8F15219   3.573   2.230   7.041 -1.3285  1.3467  2.8018
  139OSM    H8G15220   3.619   2.402   7.058  0.2906  1.2875  1.1682
  139OSM    C9F15221   3.714   2.283   7.203 -0.3762  0.6801  0.5838
  139OSM    H9F15222   3.773   2.369   7.239 -0.2427  0.1227  1.7413
  139OSM   C10F15223   3.684   2.176   7.282  0.6384 -1.1307 -0.5858
  139OSM   H10F15224   3.735   2.171   7.380 -0.4031  0.8540  0.1111
  139OSM   C11F15225   3.602   2.053   7.252  0.6465 -1.0681  0.7346
  139OSM   H11F15226   3.673   1.968   7.262  0.3694 -1.1517  2.4746
  139OSM   H11G15227   3.575   2.056   7.145 -3.8665 -0.7940  1.6551
  139OSM   C12F15228   3.470   2.043   7.336 -0.0949 -0.3031  0.2672
  139OSM   H12F15229   3.413   1.960   7.290 -0.9541  0.7420 -0.6171
  139OSM   H12G15230   3.409   2.135   7.323 -0.9683 -0.9261 -0.1378
  139OSM   C13F15231   3.480   2.023   7.485  0.8571  0.9697  0.0007
  139OSM   H13F15232   3.571   2.076   7.520  1.8228 -0.0741 -0.8736
  139OSM   H13G15233   3.486   1.915   7.510 -0.2874  0.6600 -0.9572
  139OSM   C14F15234   3.364   2.078   7.573  0.0661  0.1271 -0.4807
  139OSM   H14F15235   3.268   2.032   7.541  0.2135  0.2388 -1.0976
  139OSM   H14G15236   3.350   2.187   7.555 -1.8937 -0.0166 -0.0070
  139OSM   C15F15237   3.377   2.046   7.720  0.0482 -0.1033 -0.4619
  139OSM   H15F15238   3.451   2.113   7.768  0.6545 -0.6609 -0.5906
  139OSM   H15G15239   3.415   1.946   7.752  0.2231 -0.0908 -0.6237
  139OSM   C16F15240   3.246   2.052   7.803  0.7010 -0.4393  0.4131
  139OSM   H16F15241   3.213   2.158   7.805  1.1451 -0.2586 -0.9349
  139OSM   H16G15242   3.262   2.016   7.907  0.1435 -1.1275  0.2706
  139OSM   C17F15243   3.135   1.956   7.754 -0.4979 -0.4738 -0.6385
  139OSM   H17F15244   3.185   1.860   7.727 -0.4040 -0.6804  0.2300
  139OSM   H17G15245   3.099   2.000   7.659 -2.0396  0.6508  0.4272
  139OSM   C18F15246   3.021   1.932   7.853 -0.0840 -0.0345 -0.0714
  139OSM   H18F15247   2.950   1.859   7.808 -1.5083  1.3288 -0.1441
  139OSM   H18G15248   2.972   2.025   7.889  1.2681 -0.0256  1.8815
  139OSM   H18H15249   3.068   1.886   7.943 -0.4959  1.2145  0.8148
  140OSM      N15250   5.935   5.544   6.085 -0.0115 -0.1075 -0.5116
  140OSM    C1515251   5.937   5.596   5.948 -0.0437  0.1255  0.0136
  140OSM   H15A15252   6.020   5.553   5.894  0.8560  1.0046  0.6340
  140OSM   H15B15253   5.955   5.703   5.954  1.3891 -0.1222  0.6286
  140OSM   H15C15254   5.847   5.578   5.893 -0.6219  0.6188  0.7748
  140OSM    C1415255   5.929   5.391   6.090 -0.2093 -0.2486 -0.3185
  140OSM   H14A15256   5.999   5.335   6.030  1.0084  2.6649 -1.7674
  140OSM   H14B15257   5.829   5.357   6.065  0.0154 -1.2356  0.0442
  140OSM   H14C15258   5.927   5.354   6.192  1.0632 -0.2606 -0.2885
  140OSM    C1315259   6.063   5.599   6.160 -0.0650  0.9054  0.2923
  140OSM   H13A15260   6.149   5.536   6.138 -0.3537  0.0390  1.5361
  140OSM   H13B15261   6.046   5.594   6.266  0.1214  0.7278  0.3156
  140OSM   H13C15262   6.081   5.699   6.126  1.8711  0.3820 -0.3404
  140OSM    C1215263   5.828   5.609   6.166  0.4383  0.3623  0.4095
  140OSM   H12A15264   5.853   5.714   6.177 -0.8212  0.5876  1.3935
  140OSM   H12B15265   5.833   5.577   6.269 -0.8763  0.2148  0.4491
  140OSM    C1115266   5.684   5.588   6.119 -0.1029 -0.9039  0.2895
  140OSM   H11A15267   5.665   5.629   6.018 -0.0832 -0.6817  0.3748
  140OSM   H11B15268   5.619   5.656   6.179 -0.6189  0.5939 -1.8466
  140OSM      P15269   5.523   5.399   6.194  0.4668  0.0066 -0.3567
  140OSM    O1315270   5.405   5.450   6.128 -0.6601 -0.2995  0.6118
  140OSM    O1415271   5.535   5.254   6.210 -0.1820 -0.5241  0.5295
  140OSM    O1115272   5.534   5.471   6.327 -0.1715 -0.3768 -0.1717
  140OSM    O1215273   5.651   5.456   6.123  0.9830 -0.0229 -0.3972
  140OSM    C1S15274   5.486   5.401   6.449  0.6693  0.1441  0.4675
  140OSM    H1S15275   5.501   5.291   6.452 -3.1720 -0.5148 -0.0150
  140OSM    H1T15276   5.378   5.420   6.462  0.6209  0.4748 -0.3506
  140OSM     NF15277   5.537   5.378   6.687 -0.2333 -0.6142 -0.0992
  140OSM    HNF15278   5.460   5.401   6.747 -0.5072 -0.7261 -0.4074
  140OSM    C2S15279   5.556   5.472   6.572  0.0956  0.0438 -0.3176
  140OSM    H2S15280   5.666   5.486   6.560  0.1367 -1.6282 -2.5994
  140OSM    C3S15281   5.489   5.608   6.576  0.5110 -0.1042 -0.7358
  140OSM    H3S15282   5.380   5.591   6.585 -0.0808  3.2478 -0.4097
  140OSM     O315283   5.495   5.698   6.463  0.7990  0.1201 -0.0348
  140OSM    HO315284   5.539   5.636   6.405 -1.2348 -0.6576 -0.8319
  140OSM    C4S15285   5.529   5.674   6.704  0.6257 -0.3986  0.8269
  140OSM    H4S15286   5.450   5.661   6.780  0.5198 -0.0720  0.7740
  140OSM    C5S15287   5.627   5.763   6.723 -1.1174  0.0917  0.2402
  140OSM    H5S15288   5.681   5.803   6.635 -1.7961 -2.5018 -1.4574
  140OSM    C6S15289   5.666   5.831   6.855 -0.5502 -0.0578  0.3583
  140OSM    H6S15290   5.668   5.941   6.837 -2.3375 -0.2164 -1.1333
  140OSM    H6T15291   5.758   5.789   6.901  0.7585  1.9430 -0.2955
  140OSM    C7S15292   5.562   5.814   6.967  0.5601 -0.2686  0.1593
  140OSM    H7S15293   5.456   5.838   6.942  0.7113  1.3423  0.9709
  140OSM    H7T15294   5.588   5.885   7.048 -1.8499  0.9147 -0.0206
  140OSM    C8S15295   5.556   5.670   7.024  0.0999 -0.0045  0.0862
  140OSM    H8S15296   5.492   5.603   6.964  0.2878  0.5845 -0.7857
  140OSM    H8T15297   5.515   5.673   7.128  1.5839 -0.5289  0.7108
  140OSM    C9S15298   5.686   5.594   7.038 -0.0982  0.9247 -0.5698
  140OSM    H9S15299   5.763   5.659   7.084  0.7352  0.6373 -1.5032
  140OSM    H9T15300   5.714   5.565   6.934  0.6874 -0.2069 -0.0650
  140OSM   C10S15301   5.662   5.469   7.130  0.0232  0.4967 -0.1135
  140OSM   H10S15302   5.572   5.417   7.092 -0.2631  0.8241  0.1074
  140OSM   H10T15303   5.644   5.492   7.237 -0.1390 -0.9559  0.1905
  140OSM   C11S15304   5.787   5.368   7.149  0.2148  0.1591  0.0561
  140OSM   H11S15305   5.877   5.414   7.194  0.9662  0.2215 -1.4298
  140OSM   H11T15306   5.818   5.333   7.048  0.9282 -1.7985  0.9013
  140OSM   C12S15307   5.765   5.250   7.239 -0.1683  0.7935 -0.1245
  140OSM   H12S15308   5.850   5.178   7.239 -2.0825 -1.6066 -0.0736
  140OSM   H12T15309   5.696   5.176   7.194  0.5279 -1.3198  2.0303
  140OSM   C13S15310   5.737   5.273   7.386  0.2646  0.0223  0.5718
  140OSM   H13S15311   5.657   5.349   7.398 -0.0258  0.4770 -3.1673
  140OSM   H13T15312   5.827   5.313   7.437 -0.1057  1.1532  0.3668
  140OSM   C14S15313   5.686   5.136   7.439  0.3376 -0.3763 -0.1842
  140OSM   H14S15314   5.776   5.072   7.439 -0.1621 -1.0928  0.2035
  140OSM   H14T15315   5.612   5.085   7.373  2.0061 -1.3046 -1.4193
  140OSM   C15S15316   5.613   5.134   7.575  0.4852 -0.3750  0.4215
  140OSM   H15S15317   5.586   5.033   7.611 -2.0723 -0.2205 -0.8362
  140OSM   H15T15318   5.525   5.201   7.565  2.0879  1.7667 -0.1572
  140OSM   C16S15319   5.695   5.193   7.694 -0.2258  0.3689  0.7094
  140OSM   H16S15320   5.705   5.301   7.670 -2.2208 -0.1605 -3.2638
  140OSM   H16T15321   5.800   5.158   7.693  0.2014  1.5083  1.9457
  140OSM   C17S15322   5.618   5.184   7.825 -0.2073  0.2758 -0.3251
  140OSM   H17S15323   5.597   5.081   7.861 -0.9184  1.3901  2.7807
  140OSM   H17T15324   5.525   5.244   7.818 -0.6735 -0.6068 -2.3478
  140OSM   C18S15325   5.706   5.242   7.941 -0.1721  0.0608 -0.2212
  140OSM   H18S15326   5.646   5.221   8.032 -1.9407  1.0231 -1.1213
  140OSM   H18T15327   5.728   5.347   7.914 -1.4028  0.7625  1.3562
  140OSM   H18U15328   5.801   5.184   7.943 -1.5865 -2.3829  0.8253
  140OSM    C1F15329   5.611   5.269   6.704  0.6371 -0.1465 -0.0615
  140OSM     OF15330   5.674   5.225   6.609  0.2551  0.4687 -0.0183
  140OSM    C2F15331   5.607   5.203   6.838  0.0923 -0.2287 -0.3044
  140OSM    H2F15332   5.510   5.230   6.883 -0.8825 -2.2630 -1.0520
  140OSM    H2G15333   5.678   5.259   6.902 -0.5718  0.4405 -0.1405
  140OSM    C3F15334   5.618   5.043   6.843 -0.1073 -0.5838 -0.1353
  140OSM    H3F15335   5.720   5.005   6.822  0.3756  0.5369  0.1435
  140OSM    H3G15336   5.559   5.006   6.756  0.5831 -1.4032 -0.2596
  140OSM    C4F15337   5.577   4.981   6.975  0.2309  0.6016  0.6475
  140OSM    H4F15338   5.470   5.005   6.993 -0.0052  0.6276 -0.7174
  140OSM    H4G15339   5.640   5.017   7.059  1.2426 -0.3670  0.3270
  140OSM    C5F15340   5.582   4.828   6.952 -0.7791 -0.4950  0.2033
  140OSM    H5F15341   5.680   4.789   6.916 -0.1927  2.1233 -1.2737
  140OSM    H5G15342   5.514   4.813   6.866 -1.6146  1.9440  0.3685
  140OSM    C6F15343   5.548   4.740   7.073 -0.4744  0.3010  0.0396
  140OSM    H6F15344   5.532   4.635   7.038 -2.4576  0.4714  0.3536
  140OSM    H6G15345   5.456   4.777   7.124 -1.4918  0.4723 -1.8413
  140OSM    C7F15346   5.669   4.740   7.171 -0.1725 -0.2403  0.0572
  140OSM    H7F15347   5.674   4.837   7.224  1.5604 -0.5680  0.5471
  140OSM    H7G15348   5.764   4.730   7.114  0.0656  1.2032  0.1662
  140OSM    C8F15349   5.664   4.628   7.278  0.6619 -1.0079  0.0503
  140OSM    H8F15350   5.762   4.638   7.329  0.2387  0.2458  0.6361
  140OSM    H8G15351   5.665   4.529   7.227  1.4308 -0.2797 -1.4343
  140OSM    C9F15352   5.550   4.645   7.370 -0.2909  0.0234 -0.9572
  140OSM    H9F15353   5.451   4.635   7.323 -0.6979  0.9373 -0.3217
  140OSM   C10F15354   5.552   4.658   7.507 -0.1372  0.2159 -0.4993
  140OSM   H10F15355   5.458   4.678   7.562  1.1042  0.6349  1.5877
  140OSM   C11F15356   5.674   4.651   7.595 -0.1241 -0.1156 -0.0623
  140OSM   H11F15357   5.689   4.736   7.664  0.6981 -1.0337  0.9372
  140OSM   H11G15358   5.769   4.639   7.538  0.3252  1.5707  0.2798
  140OSM   C12F15359   5.665   4.525   7.678  0.3917  0.8213 -0.0977
  140OSM   H12F15360   5.753   4.514   7.744  2.4692 -1.1519 -2.9743
  140OSM   H12G15361   5.679   4.437   7.612  1.8674  0.0958  1.1250
  140OSM   C13F15362   5.547   4.507   7.778  0.0481  1.1224  0.3143
  140OSM   H13F15363   5.460   4.510   7.709  1.6395 -2.0229 -2.1383
  140OSM   H13G15364   5.542   4.595   7.845 -1.9781  1.4448 -0.2111
  140OSM   C14F15365   5.538   4.368   7.847  0.1581 -0.5046  0.1495
  140OSM   H14F15366   5.637   4.342   7.890  0.0676  0.8802  1.2833
  140OSM   H14G15367   5.521   4.288   7.772  0.0551 -0.9343  0.6289
  140OSM   C15F15368   5.434   4.366   7.957  1.4907 -0.7468 -0.1902
  140OSM   H15F15369   5.340   4.405   7.911  1.9085  1.2294  0.5414
  140OSM   H15G15370   5.453   4.426   8.049 -0.5781  0.7340 -0.6464
  140OSM   C16F15371   5.402   4.223   8.008 -0.3926 -1.2973 -0.2656
  140OSM   H16F15372   5.489   4.199   8.073  1.3057  1.3703 -1.4373
  140OSM   H16G15373   5.413   4.147   7.927 -2.2699 -0.4859 -1.3510
  140OSM   C17F15374   5.270   4.210   8.093  0.1084  0.0488  0.0027
  140OSM   H17F15375   5.259   4.108   8.135  2.0024  0.7599  2.5131
  140OSM   H17G15376   5.189   4.242   8.025 -1.8950 -0.8953  1.8201
  140OSM   C18F15377   5.262   4.317   8.208  0.4140  0.1009  0.5540
  140OSM   H18F15378   5.263   4.421   8.167  0.3612  0.4502  1.4074
  140OSM   H18G15379   5.358   4.305   8.263 -0.0293 -1.4020  1.0476
  140OSM   H18H15380   5.177   4.298   8.278 -0.8319  0.5517 -0.7817
  141OSM      N15381   4.436   5.959   5.861 -0.0673 -0.3824  0.3842
  141OSM    C1515382   4.542   5.865   5.823 -0.1185  0.2468  0.1756
  141OSM   H15A15383   4.606   5.911   5.749 -0.7503  2.4891  0.9429
  141OSM   H15B15384   4.497   5.775   5.782 -1.6675 -0.6798  3.6137
  141OSM   H15C15385   4.594   5.829   5.910 -1.7323 -0.5761  0.8451
  141OSM    C1415386   4.507   6.092   5.888 -0.0341  0.1093  0.4204
  141OSM   H14A15387   4.580   6.073   5.964  0.0334  0.5461  0.4685
  141OSM   H14B15388   4.439   6.165   5.929 -0.3057 -0.1369  0.4186
  141OSM   H14C15389   4.555   6.119   5.795 -2.2698  2.9308 -0.0524
  141OSM    C1315390   4.339   5.976   5.746  0.3411  0.5996 -0.3683
  141OSM   H13A15391   4.241   6.014   5.768 -0.4615 -1.8413  0.6428
  141OSM   H13B15392   4.328   5.881   5.696 -2.5762  1.0669 -0.7701
  141OSM   H13C15393   4.383   6.034   5.667  0.8645  0.9742  0.1872
  141OSM    C1215394   4.352   5.908   5.976 -0.4076  0.5268  0.2044
  141OSM   H12A15395   4.338   5.803   5.956  0.0446  0.5609 -0.3377
  141OSM   H12B15396   4.259   5.962   5.974  0.4673  2.0923  0.2145
  141OSM    C1115397   4.405   5.916   6.129  0.2869 -0.0098  0.2156
  141OSM   H11A15398   4.332   5.870   6.199  1.5702 -1.2155  0.8284
  141OSM   H11B15399   4.417   6.026   6.138  0.7586  0.0188 -0.6138
  141OSM      P15400   4.538   5.705   6.141 -0.1079 -0.1473 -0.0662
  141OSM    O1315401   4.418   5.647   6.077  0.0961  0.7882  0.2643
  141OSM    O1415402   4.667   5.684   6.076  0.0273  0.3913 -0.1523
  141OSM    O1115403   4.544   5.654   6.293 -0.0703 -0.2933 -0.2644
  141OSM    O1215404   4.526   5.861   6.152 -0.1125 -0.6166 -0.1220
  141OSM    C1S15405   4.622   5.708   6.402  0.2760 -0.1248  0.6208
  141OSM    H1S15406   4.699   5.780   6.367  1.2358 -2.0575 -1.5161
  141OSM    H1T15407   4.681   5.630   6.455  0.0022 -1.2296 -0.6656
  141OSM     NF15408   4.608   5.813   6.618  0.4872 -0.4808  0.3838
  141OSM    HNF15409   4.643   5.746   6.683  1.7074 -1.7201 -1.4639
  141OSM    C2S15410   4.529   5.764   6.511  0.7606 -0.3182 -0.0893
  141OSM    H2S15411   4.464   5.837   6.459  1.6099  0.6087  0.1331
  141OSM    C3S15412   4.428   5.657   6.563 -0.0141 -0.1051 -0.0298
  141OSM    H3S15413   4.494   5.576   6.601  1.9490  1.2959 -0.2713
  141OSM     O315414   4.336   5.603   6.465 -0.3397  0.5835 -0.0093
  141OSM    HO315415   4.355   5.652   6.384 -1.7365  0.5267 -0.3964
  141OSM    C4S15416   4.358   5.706   6.694 -0.5999 -0.8564  0.7386
  141OSM    H4S15417   4.389   5.664   6.791 -2.5563 -0.5425  1.5490
  141OSM    C5S15418   4.255   5.796   6.689 -0.8043  0.2918  0.2210
  141OSM    H5S15419   4.219   5.836   6.593  0.4784 -0.9548 -0.8054
  141OSM    C6S15420   4.186   5.853   6.815 -1.1135  0.1905  0.2719
  141OSM    H6S15421   4.076   5.844   6.819 -1.1050 -0.1467 -0.1758
  141OSM    H6T15422   4.220   5.959   6.816  0.6629 -0.3373 -0.1245
  141OSM    C7S15423   4.242   5.808   6.952  0.3803  0.3774 -0.0715
  141OSM    H7S15424   4.353   5.802   6.949  0.3178 -0.9210 -1.3271
  141OSM    H7T15425   4.219   5.703   6.981 -0.0940  0.2810 -0.7736
  141OSM    C8S15426   4.197   5.898   7.065 -0.5914  0.0331  0.7058
  141OSM    H8S15427   4.091   5.880   7.093 -1.4917  2.1378 -1.0507
  141OSM    H8T15428   4.199   6.005   7.034 -1.4511  0.3135  1.6004
  141OSM    C9S15429   4.282   5.891   7.193 -0.5626 -0.3107  0.8549
  141OSM    H9S15430   4.370   5.955   7.171 -0.3182 -1.1499 -0.7542
  141OSM    H9T15431   4.307   5.783   7.199  1.0984 -0.1376 -1.4099
  141OSM   C10S15432   4.210   5.934   7.318  0.1932  0.0928 -0.1584
  141OSM   H10S15433   4.125   5.867   7.340 -0.0854 -0.3672 -2.4062
  141OSM   H10T15434   4.167   6.036   7.321  0.4654  0.2058  2.7220
  141OSM   C11S15435   4.298   5.921   7.442 -0.0770 -0.4226  1.0104
  141OSM   H11S15436   4.394   5.964   7.407  0.8261 -3.8389 -1.2866
  141OSM   H11T15437   4.334   5.817   7.461 -0.5568 -0.5359  1.3414
  141OSM   C12S15438   4.232   5.992   7.562  0.0078 -0.0087 -0.9778
  141OSM   H12S15439   4.132   5.946   7.576 -0.2110  0.1681 -1.8804
  141OSM   H12T15440   4.223   6.102   7.567 -1.6549 -0.1146 -1.1197
  141OSM   C13S15441   4.317   5.964   7.691 -0.0496  0.6278 -0.4490
  141OSM   H13S15442   4.413   6.018   7.688 -1.2494  3.0986  1.7402
  141OSM   H13T15443   4.359   5.861   7.698 -0.1004  0.6845  0.8883
  141OSM   C14S15444   4.241   5.985   7.825 -0.1716 -0.1385  0.7892
  141OSM   H14S15445   4.149   5.921   7.828  0.0038 -0.3630  1.7438
  141OSM   H14T15446   4.223   6.094   7.821  1.0348  0.0414 -0.9904
  141OSM   C15S15447   4.318   5.939   7.939 -0.2094  0.1316  0.1287
  141OSM   H15S15448   4.420   5.981   7.927  0.2588 -0.8014  0.7069
  141OSM   H15T15449   4.328   5.828   7.942 -1.5341 -0.0063 -0.1264
  141OSM   C16S15450   4.256   5.963   8.084  0.0468 -0.0177  0.6337
  141OSM   H16S15451   4.333   5.924   8.154  0.5923  0.6382  0.4091
  141OSM   H16T15452   4.165   5.900   8.085  1.1427 -1.6517  1.2404
  141OSM   C17S15453   4.232   6.109   8.118  0.0487  0.1519  0.0634
  141OSM   H17S15454   4.143   6.117   8.183 -0.9748  0.4162 -1.3250
  141OSM   H17T15455   4.208   6.172   8.030  2.2972 -0.7942 -1.3332
  141OSM   C18S15456   4.351   6.174   8.192  1.1802 -0.3031  0.5076
  141OSM   H18S15457   4.330   6.280   8.215 -2.1346 -0.2349 -2.0330
  141OSM   H18T15458   4.436   6.182   8.121  0.9210  0.2439  0.2553
  141OSM   H18U15459   4.389   6.111   8.276 -1.0882 -1.6249  0.6390
  141OSM    C1F15460   4.664   5.937   6.624 -0.0311 -0.3175 -0.1436
  141OSM     OF15461   4.630   6.025   6.547  0.1677 -0.2247 -0.2740
  141OSM    C2F15462   4.779   5.946   6.722  0.2091  0.1335  0.0638
  141OSM    H2F15463   4.869   5.991   6.674  0.3142 -0.2894 -0.1344
  141OSM    H2G15464   4.797   5.845   6.765 -1.8465  0.3156  1.5017
  141OSM    C3F15465   4.742   6.041   6.843  0.2484 -0.0726  0.3003
  141OSM    H3F15466   4.647   6.008   6.889 -0.4844 -0.4107 -1.3882
  141OSM    H3G15467   4.713   6.143   6.809  1.0381  0.1764  0.3533
  141OSM    C4F15468   4.842   6.045   6.965 -0.4822 -0.3234  0.5967
  141OSM    H4F15469   4.937   6.099   6.943 -1.3705  1.8389  1.8040
  141OSM    H4G15470   4.870   5.941   6.990 -2.5954 -1.2964 -0.8335
  141OSM    C5F15471   4.762   6.119   7.068  0.5909 -0.6899 -0.0783
  141OSM    H5F15472   4.667   6.062   7.071 -0.1291  0.5197  0.8500
  141OSM    H5G15473   4.722   6.222   7.053 -1.3489 -1.0886  1.8437
  141OSM    C6F15474   4.823   6.115   7.217  0.4922 -0.1999 -0.7686
  141OSM    H6F15475   4.897   6.198   7.223  1.2531 -0.6991 -2.6637
  141OSM    H6G15476   4.883   6.027   7.247  0.7528  0.6477  1.4164
  141OSM    C7F15477   4.718   6.146   7.326  0.5144 -0.2492  0.4043
  141OSM    H7F15478   4.637   6.071   7.325 -0.8431  1.1158 -2.1400
  141OSM    H7G15479   4.669   6.244   7.310 -0.5073 -1.1458 -2.5898
  141OSM    C8F15480   4.770   6.143   7.475 -0.1099  0.2307  0.2287
  141OSM    H8F15481   4.863   6.202   7.476  0.6648 -0.9387  1.4265
  141OSM    H8G15482   4.807   6.038   7.485  1.4376  0.9977  4.6615
  141OSM    C9F15483   4.669   6.162   7.582  0.1129 -0.4186 -0.3214
  141OSM    H9F15484   4.567   6.190   7.553  0.1032  0.2208  0.3135
  141OSM   C10F15485   4.695   6.148   7.714  0.0384 -0.2424 -1.3605
  141OSM   H10F15486   4.611   6.155   7.785 -0.4258 -1.1143 -1.8094
  141OSM   C11F15487   4.825   6.114   7.781 -0.3436  0.2465 -0.4471
  141OSM   H11F15488   4.915   6.127   7.717 -1.0520  2.5101 -1.0609
  141OSM   H11G15489   4.820   6.005   7.802  0.4558  0.2251 -0.3171
  141OSM   C12F15490   4.839   6.187   7.915  0.1669 -0.1179  0.4144
  141OSM   H12F15491   4.809   6.293   7.905 -0.2831 -0.0559  2.0372
  141OSM   H12G15492   4.947   6.178   7.939  0.3101  0.3695 -0.0303
  141OSM   C13F15493   4.754   6.123   8.027  0.6400  0.2110  0.1769
  141OSM   H13F15494   4.803   6.026   8.054 -1.2066 -1.9626 -3.4346
  141OSM   H13G15495   4.656   6.098   7.981 -0.1246  1.5579  1.0104
  141OSM   C14F15496   4.737   6.215   8.151  0.4361  0.1296  0.6666
  141OSM   H14F15497   4.695   6.158   8.237 -1.8514 -1.3415 -1.2995
  141OSM   H14G15498   4.674   6.303   8.125 -0.0840 -0.4493 -0.0703
  141OSM   C15F15499   4.871   6.264   8.206 -0.8400  0.2971  0.5446
  141OSM   H15F15500   4.941   6.310   8.133 -0.1883  1.0888  1.6141
  141OSM   H15G15501   4.924   6.182   8.259  1.1068  0.8196 -0.4660
  141OSM   C16F15502   4.857   6.388   8.309  0.9032 -0.6624  0.0174
  141OSM   H16F15503   4.780   6.353   8.381  0.9506 -2.8685 -0.9323
  141OSM   H16G15504   4.821   6.478   8.255 -0.3275 -0.7129  0.6947
  141OSM   C17F15505   4.976   6.425   8.391 -0.3687  0.2946  0.7711
  141OSM   H17F15506   5.052   6.444   8.313  0.1095 -1.3169  0.8045
  141OSM   H17G15507   5.021   6.339   8.445  0.4681 -0.7355 -1.4541
  141OSM   C18F15508   4.950   6.539   8.489  0.5764  0.1143 -0.3456
  141OSM   H18F15509   4.881   6.500   8.567 -0.0757 -0.5976 -1.2547
  141OSM   H18G15510   4.911   6.631   8.439  2.6264  1.2856  0.0806
  141OSM   H18H15511   5.043   6.566   8.543  0.1036  1.1664 -0.0271
  142OSM      N15512   3.895   1.402   5.988 -0.4010 -0.1694  0.4871
  142OSM    C1515513   3.860   1.544   5.993 -0.4747 -0.5935 -0.8744
  142OSM   H15A15514   3.944   1.611   6.004 -2.1502  1.5028  0.0433
  142OSM   H15B15515   3.787   1.570   6.069  0.6727  0.9012 -0.2140
  142OSM   H15C15516   3.817   1.565   5.896 -0.9375 -1.8472 -0.9557
  142OSM    C1415517   3.982   1.368   5.871  0.4462 -0.0517 -0.6283
  142OSM   H14A15518   3.932   1.379   5.775 -0.6517  1.4629  0.0719
  142OSM   H14B15519   4.015   1.266   5.867  1.4308  0.2293  0.0460
  142OSM   H14C15520   4.073   1.425   5.874  0.3297  0.0897  0.3209
  142OSM    C1315521   3.962   1.357   6.115 -0.4483 -0.2755 -0.2552
  142OSM   H13A15522   3.907   1.383   6.204  2.0614 -0.6540  1.5304
  142OSM   H13B15523   4.065   1.389   6.129 -0.3323  0.4619 -2.4430
  142OSM   H13C15524   3.975   1.250   6.111  1.0168 -0.1628  0.6782
  142OSM    C1215525   3.765   1.321   5.985 -0.3549  0.3068 -0.2890
  142OSM   H12A15526   3.708   1.345   5.897 -3.1006 -1.0913  0.9509
  142OSM   H12B15527   3.702   1.355   6.066 -1.2272 -1.7063 -0.0674
  142OSM    C1115528   3.771   1.161   5.978  0.2544  0.0449 -0.3307
  142OSM   H11A15529   3.836   1.129   5.894  1.0306  1.7888 -0.4278
  142OSM   H11B15530   3.665   1.138   5.954  0.1115 -1.1944  1.2700
  142OSM      P15531   3.868   0.961   6.117 -0.2757 -0.1671 -0.0902
  142OSM    O1315532   3.824   0.878   6.006 -0.2873  0.6582  0.1819
  142OSM    O1415533   4.010   0.980   6.128 -0.1275 -0.4519 -0.3231
  142OSM    O1115534   3.816   0.898   6.249  0.1053 -0.1337  0.1746
  142OSM    O1215535   3.808   1.106   6.105  0.4019 -0.5289  0.3400
  142OSM    C1S15536   3.815   0.968   6.376  0.0684 -0.0377  0.4372
  142OSM    H1S15537   3.787   1.075   6.363  3.0530  0.6861 -0.9574
  142OSM    H1T15538   3.918   0.972   6.417  0.7675 -0.5444 -1.2004
  142OSM     NF15539   3.708   0.978   6.604  0.0076 -0.2208 -0.2022
  142OSM    HNF15540   3.786   0.964   6.665  1.3256  2.8535 -0.9633
  142OSM    C2S15541   3.716   0.903   6.478 -0.2360 -0.4119 -0.0065
  142OSM    H2S15542   3.612   0.907   6.438 -0.5511 -1.2138  0.7072
  142OSM    C3S15543   3.755   0.751   6.498  0.0663  0.2485  1.0890
  142OSM    H3S15544   3.859   0.732   6.533  0.0652 -2.0323  0.0320
  142OSM     O315545   3.740   0.678   6.373  0.0779  0.0597 -0.2273
  142OSM    HO315546   3.735   0.751   6.311 -1.9258 -1.0771 -1.5396
  142OSM    C4S15547   3.661   0.697   6.597 -0.0111  0.4125  0.7327
  142OSM    H4S15548   3.692   0.732   6.697 -5.0021 -1.6035  3.3290
  142OSM    C5S15549   3.551   0.606   6.582  0.3946  0.4571  0.1649
  142OSM    H5S15550   3.530   0.571   6.479  0.8152 -0.5167  0.4071
  142OSM    C6S15551   3.467   0.552   6.700  0.7336 -0.2983 -0.1208
  142OSM    H6S15552   3.442   0.444   6.695 -1.7147  0.2521 -1.2596
  142OSM    H6T15553   3.368   0.601   6.688 -0.3543 -2.7141 -1.8596
  142OSM    C7S15554   3.534   0.584   6.836  0.0025 -0.1263  0.8676
  142OSM    H7S15555   3.560   0.692   6.841 -0.7114  0.2084 -1.3963
  142OSM    H7T15556   3.631   0.530   6.825 -1.0377 -1.8623 -0.2694
  142OSM    C8S15557   3.459   0.532   6.959  1.0512 -0.5392 -0.1372
  142OSM    H8S15558   3.431   0.426   6.945  0.8147 -0.2374 -2.2782
  142OSM    H8T15559   3.368   0.595   6.964  1.4005  0.0585 -1.0294
  142OSM    C9S15560   3.540   0.563   7.084 -0.0685  0.3759 -0.2582
  142OSM    H9S15561   3.575   0.669   7.088  2.6124 -0.4648  1.5061
  142OSM    H9T15562   3.639   0.513   7.080 -0.3462 -0.3687  1.5033
  142OSM   C10S15563   3.470   0.518   7.216 -0.6650 -0.1336 -0.4742
  142OSM   H10S15564   3.440   0.412   7.203 -1.0975 -0.0472 -0.1892
  142OSM   H10T15565   3.380   0.582   7.223 -0.3142  0.1950  1.5293
  142OSM   C11S15566   3.555   0.538   7.341 -0.1009 -0.0550 -0.1661
  142OSM   H11S15567   3.583   0.645   7.358  1.1564 -0.2833 -0.7137
  142OSM   H11T15568   3.649   0.480   7.336 -1.6594 -2.9343  1.2924
  142OSM   C12S15569   3.471   0.500   7.467 -0.1223  0.4217  0.5656
  142OSM   H12S15570   3.456   0.390   7.461 -3.0127  0.4956  3.6796
  142OSM   H12T15571   3.370   0.547   7.463 -0.5529 -0.5528 -0.7142
  142OSM   C13S15572   3.547   0.541   7.595  0.3026  0.7813  0.5479
  142OSM   H13S15573   3.569   0.649   7.597  0.3359  0.8129 -0.6319
  142OSM   H13T15574   3.646   0.491   7.588  0.4392  1.0036  0.8992
  142OSM   C14S15575   3.474   0.494   7.724 -0.0647  0.4468  0.1274
  142OSM   H14S15576   3.441   0.388   7.717 -0.4856  0.6483 -1.3230
  142OSM   H14T15577   3.388   0.563   7.733 -0.8868 -0.5541  0.0868
  142OSM   C15S15578   3.562   0.504   7.839  0.3094  0.3605 -0.3202
  142OSM   H15S15579   3.590   0.609   7.860  0.6282  0.1801  0.1778
  142OSM   H15T15580   3.651   0.439   7.825 -0.0192  0.0058 -0.7970
  142OSM   C16S15581   3.487   0.455   7.958 -0.2730 -0.3367  0.4416
  142OSM   H16S15582   3.453   0.349   7.947 -0.0526 -0.6802  2.6444
  142OSM   H16T15583   3.400   0.523   7.965 -1.0945 -0.8439 -3.0326
  142OSM   C17S15584   3.569   0.447   8.092 -0.0798  0.7061 -0.2285
  142OSM   H17S15585   3.609   0.548   8.116  0.4011  0.2990  0.7477
  142OSM   H17T15586   3.662   0.390   8.073 -0.6520 -0.4526  0.3457
  142OSM   C18S15587   3.491   0.382   8.204  0.0682 -0.8202 -1.1213
  142OSM   H18S15588   3.549   0.374   8.298  0.3080  0.6668 -1.1181
  142OSM   H18T15589   3.444   0.285   8.177  0.3490 -1.0801 -0.6887
  142OSM   H18U15590   3.408   0.451   8.229 -0.0089 -1.1394 -0.4901
  142OSM    C1F15591   3.661   1.102   6.599 -0.4279 -0.3832  0.0400
  142OSM     OF15592   3.578   1.127   6.516  1.3877  0.0417 -0.1322
  142OSM    C2F15593   3.722   1.208   6.690 -0.2781  0.1953 -0.1571
  142OSM    H2F15594   3.739   1.294   6.623  1.9932  0.2848  0.4484
  142OSM    H2G15595   3.821   1.175   6.729  0.0470 -2.2187 -2.6494
  142OSM    C3F15596   3.627   1.250   6.802  0.5505  0.1495  0.2900
  142OSM    H3F15597   3.526   1.272   6.760 -0.0442 -1.1384  1.0154
  142OSM    H3G15598   3.661   1.341   6.857 -2.6212  1.3363  0.4671
  142OSM    C4F15599   3.603   1.136   6.900 -0.2149  0.1984  0.4089
  142OSM    H4F15600   3.701   1.115   6.947  0.7300  1.4275 -0.9380
  142OSM    H4G15601   3.571   1.044   6.847 -2.8415  0.5993  1.1585
  142OSM    C5F15602   3.500   1.164   7.006 -0.2477  0.0279  0.3778
  142OSM    H5F15603   3.405   1.185   6.954 -0.0837 -0.0462  0.0461
  142OSM    H5G15604   3.530   1.262   7.049 -0.0724  1.7619 -3.3485
  142OSM    C6F15605   3.482   1.065   7.120 -0.1689 -0.0826 -0.2614
  142OSM    H6F15606   3.575   1.005   7.127 -0.1659 -0.2843 -1.6637
  142OSM    H6G15607   3.397   0.998   7.097  0.0052  0.4361 -2.7503
  142OSM    C7F15608   3.459   1.141   7.255 -0.2295  0.9818 -0.4831
  142OSM    H7F15609   3.378   1.211   7.226  0.5988  1.7078 -1.0749
  142OSM    H7G15610   3.550   1.202   7.272 -0.5681  1.2061  0.5512
  142OSM    C8F15611   3.413   1.065   7.381  0.0392 -0.1446 -0.3513
  142OSM    H8F15612   3.324   1.003   7.359  0.1669 -0.6092  0.3898
  142OSM    H8G15613   3.379   1.137   7.459 -2.2220  0.4281 -1.7790
  142OSM    C9F15614   3.516   0.968   7.433 -0.2021  0.6119 -0.0514
  142OSM    H9F15615   3.532   0.885   7.363 -1.5824 -0.5157  0.9315
  142OSM   C10F15616   3.561   0.944   7.557 -0.3471 -0.4606  0.0342
  142OSM   H10F15617   3.643   0.872   7.572  0.9522  0.7354 -1.0557
  142OSM   C11F15618   3.540   1.017   7.687 -0.1984  0.1569 -0.5829
  142OSM   H11F15619   3.436   0.995   7.720 -0.0994 -1.5800 -1.3160
  142OSM   H11G15620   3.543   1.127   7.672  0.3850  0.2708  0.3274
  142OSM   C12F15621   3.635   0.971   7.800  0.3861  0.1232 -0.9004
  142OSM   H12F15622   3.731   1.026   7.785  0.9750 -1.0053 -1.4147
  142OSM   H12G15623   3.658   0.862   7.796 -2.4557 -0.6397  0.8072
  142OSM   C13F15624   3.575   0.998   7.938  0.4577  0.1781  0.1027
  142OSM   H13F15625   3.484   0.937   7.956 -0.0301  1.1561  1.0808
  142OSM   H13G15626   3.545   1.101   7.964 -1.4773 -0.5706  1.0190
  142OSM   C14F15627   3.686   0.965   8.037 -0.1021 -0.8744 -0.0425
  142OSM   H14F15628   3.757   1.049   8.046 -0.6326 -0.5002  0.7524
  142OSM   H14G15629   3.741   0.874   8.006  0.4359 -0.4196 -0.4217
  142OSM   C15F15630   3.630   0.960   8.185  0.5708  0.4577  0.1767
  142OSM   H15F15631   3.675   0.871   8.234 -0.5434  0.7400  1.7771
  142OSM   H15G15632   3.520   0.946   8.178  0.5011  1.3102 -0.7013
  142OSM   C16F15633   3.679   1.080   8.266  0.2385 -0.5431  0.7207
  142OSM   H16F15634   3.640   1.178   8.232  0.2608 -0.6840  0.2898
  142OSM   H16G15635   3.790   1.080   8.259  0.4916 -4.6385  2.1008
  142OSM   C17F15636   3.634   1.073   8.414 -0.5447 -0.1747  0.1345
  142OSM   H17F15637   3.684   0.989   8.466 -0.7242  0.7129  1.7894
  142OSM   H17G15638   3.526   1.048   8.417 -0.3780 -1.3265 -1.7331
  142OSM   C18F15639   3.668   1.193   8.500  0.2788  0.4872 -0.2088
  142OSM   H18F15640   3.625   1.188   8.602  1.3326  0.2162  0.2281
  142OSM   H18G15641   3.617   1.277   8.447  0.8157  0.5553 -0.6356
  142OSM   H18H15642   3.777   1.212   8.507  0.3945  0.0159 -0.6177
  143OSM      N15643   0.157   4.074   5.836 -0.8802 -0.1309  0.5382
  143OSM    C1515644   0.145   4.098   5.686 -0.3488 -0.1914 -0.5690
  143OSM   H15A15645   0.105   4.197   5.668  0.9937  0.4155 -0.4083
  143OSM   H15B15646   0.068   4.034   5.646 -1.7228 -0.0845  1.6928
  143OSM   H15C15647   0.244   4.086   5.644  0.1897 -0.7367  0.7872
  143OSM    C1415648   0.207   3.941   5.856 -0.0979 -0.0210 -0.4385
  143OSM   H14A15649   0.245   3.917   5.955  2.1217 -1.3033 -1.5147
  143OSM   H14B15650   0.294   3.914   5.798 -0.0754 -1.7929  0.3368
  143OSM   H14C15651   0.125   3.877   5.827 -1.2846  0.5915  1.3769
  143OSM    C1315652   0.254   4.174   5.887 -0.9047 -0.3232 -0.5591
  143OSM   H13A15653   0.356   4.153   5.856 -1.1486 -0.7311 -1.0873
  143OSM   H13B15654   0.268   4.181   5.994 -2.3858  0.3943 -0.3971
  143OSM   H13C15655   0.225   4.270   5.848 -3.2256  0.0689  1.8740
  143OSM    C1215656   0.030   4.086   5.914 -0.0034 -0.6614 -0.6083
  143OSM   H12A15657   0.006   4.190   5.928 -0.6059 -0.8926  0.1176
  143OSM   H12B15658   0.052   4.040   6.010  0.0919 -1.3205 -0.9417
  143OSM    C1115659  -0.098   4.017   5.868  0.3268 -0.4246  0.2273
  143OSM   H11A15660  -0.136   4.058   5.772 -2.1139 -1.6306  0.5988
  143OSM   H11B15661  -0.186   4.038   5.933 -0.7424 -0.5548 -1.1248
  143OSM      P15662  -0.111   3.782   5.987 -0.0481 -0.0287  0.0926
  143OSM    O1315663  -0.257   3.772   6.017 -0.0367 -0.3355 -0.3516
  143OSM    O1415664  -0.037   3.656   5.967  0.8027  0.3878  0.3596
  143OSM    O1115665  -0.043   3.857   6.105  0.2593  0.2523 -0.1672
  143OSM    O1215666  -0.086   3.875   5.867  0.0619 -0.7652  0.2581
  143OSM    C1S15667  -0.106   3.887   6.231 -0.2475  0.3725  0.2641
  143OSM    H1S15668  -0.177   3.804   6.252 -0.6682  0.8170  0.6204
  143OSM    H1T15669  -0.170   3.978   6.226  0.8127  1.3079  2.4710
  143OSM     NF15670  -0.099   3.936   6.472 -0.3033 -0.0335  0.1219
  143OSM    HNF15671  -0.116   4.033   6.491  0.0092 -0.1147  0.8292
  143OSM    C2S15672  -0.015   3.907   6.351 -0.1641  0.1397 -0.2375
  143OSM    H2S15673   0.046   3.815   6.364  0.4373  0.6735  0.8602
  143OSM    C3S15674   0.077   4.021   6.305  0.0433 -1.0492 -0.0502
  143OSM    H3S15675   0.011   4.100   6.263 -0.5273 -1.2970  0.3648
  143OSM     O315676   0.164   3.988   6.191  0.2245  0.0918  0.4789
  143OSM    HO315677   0.125   3.903   6.169  2.1006 -0.4728 -0.8359
  143OSM    C4S15678   0.156   4.079   6.424  0.5557 -0.3595 -0.4546
  143OSM    H4S15679   0.103   4.156   6.482  0.0418  0.0037 -1.3727
  143OSM    C5S15680   0.279   4.051   6.458  0.5582 -0.2971  0.6131
  143OSM    H5S15681   0.340   3.990   6.389 -0.5657 -0.8036  0.0474
  143OSM    C6S15682   0.350   4.112   6.572  0.3218  0.3868 -0.2673
  143OSM    H6S15683   0.306   4.203   6.617 -1.2693 -0.3520 -0.2597
  143OSM    H6T15684   0.449   4.145   6.536 -0.4935 -0.0352 -3.1908
  143OSM    C7S15685   0.383   4.012   6.679 -0.0210  0.0345 -0.3988
  143OSM    H7S15686   0.440   3.921   6.651 -0.7951 -0.5784 -0.0441
  143OSM    H7T15687   0.288   3.967   6.717 -0.4188 -0.5575 -2.0002
  143OSM    C8S15688   0.455   4.074   6.803  0.3448 -0.4490  0.0442
  143OSM    H8S15689   0.424   4.178   6.828  1.4022  0.3547 -1.7867
  143OSM    H8T15690   0.562   4.081   6.776  0.6837 -0.1061  1.4348
  143OSM    C9S15691   0.437   3.994   6.935 -0.2182  0.8843  0.4853
  143OSM    H9S15692   0.486   3.894   6.931  0.9345  1.4648 -0.4147
  143OSM    H9T15693   0.330   3.969   6.954  0.7342 -3.4441  1.1841
  143OSM   C10S15694   0.498   4.057   7.060 -0.3174 -0.4133  0.2236
  143OSM   H10S15695   0.490   4.168   7.064  1.2069 -0.2925  0.3033
  143OSM   H10T15696   0.608   4.044   7.061 -0.2351  0.1895  1.6292
  143OSM   C11S15697   0.464   3.990   7.192  0.1643  0.7728 -0.3724
  143OSM   H11S15698   0.495   3.883   7.181  1.6194  0.9191  1.7290
  143OSM   H11T15699   0.356   3.973   7.211 -0.2594  2.0078 -1.5462
  143OSM   C12S15700   0.522   4.070   7.314 -0.3510  0.1847 -0.3510
  143OSM   H12S15701   0.632   4.059   7.326 -0.6202 -3.1303  0.0731
  143OSM   H12T15702   0.479   4.030   7.409  0.3913  1.5143  0.5807
  143OSM   C13S15703   0.505   4.221   7.326 -0.4188  0.5207 -0.6848
  143OSM   H13S15704   0.405   4.238   7.281 -0.6659 -0.4953 -0.5655
  143OSM   H13T15705   0.576   4.280   7.264  0.9317 -1.9945 -1.7118
  143OSM   C14S15706   0.524   4.276   7.473  1.0935  0.3031  0.1805
  143OSM   H14S15707   0.435   4.235   7.526  1.8701 -1.9877 -0.1640
  143OSM   H14T15708   0.518   4.386   7.479 -1.4105  0.2536 -0.1832
  143OSM   C15S15709   0.645   4.220   7.548  0.1365 -0.4523 -0.6451
  143OSM   H15S15710   0.738   4.247   7.493 -0.3350  1.1538 -0.7232
  143OSM   H15T15711   0.621   4.114   7.568  0.6260 -0.7318 -1.4778
  143OSM   C16S15712   0.659   4.261   7.697 -0.1219 -0.3098 -0.1993
  143OSM   H16S15713   0.582   4.209   7.758 -0.6264  2.6983  1.9566
  143OSM   H16T15714   0.624   4.366   7.707 -0.1222 -0.1964 -1.2752
  143OSM   C17S15715   0.799   4.248   7.756 -0.3078 -0.2406  0.8828
  143OSM   H17S15716   0.810   4.313   7.845 -1.5540  0.7870  0.3195
  143OSM   H17T15717   0.875   4.286   7.684 -1.3101  0.7620  0.3214
  143OSM   C18S15718   0.834   4.104   7.795  0.1454 -0.3151  0.8480
  143OSM   H18S15719   0.944   4.095   7.794  0.0637 -1.5402  0.7511
  143OSM   H18T15720   0.783   4.030   7.729 -1.7461  3.1695 -1.9473
  143OSM   H18U15721   0.794   4.086   7.898 -1.3172  1.6789  0.6838
  143OSM    C1F15722  -0.132   3.845   6.563 -0.0556  0.0581  0.4984
  143OSM     OF15723  -0.076   3.732   6.552 -0.1973 -0.4644  0.3587
  143OSM    C2F15724  -0.225   3.884   6.671  0.5980  0.0547  0.8619
  143OSM    H2F15725  -0.231   3.795   6.737  0.2368 -0.0053  0.7544
  143OSM    H2G15726  -0.319   3.908   6.616 -0.4494  3.8378  3.8305
  143OSM    C3F15727  -0.192   4.015   6.745 -0.7605 -0.7002 -0.3314
  143OSM    H3F15728  -0.270   4.036   6.821  1.1950 -0.9267  1.8597
  143OSM    H3G15729  -0.191   4.092   6.664  2.6507 -0.5258 -0.2596
  143OSM    C4F15730  -0.049   4.018   6.804 -0.8673  0.0889  0.2540
  143OSM    H4F15731   0.025   4.007   6.723 -1.6352 -0.2891 -0.4131
  143OSM    H4G15732  -0.040   3.942   6.885  0.4476  0.3042  0.3238
  143OSM    C5F15733  -0.026   4.150   6.882 -0.0482 -0.9479  0.0317
  143OSM    H5F15734  -0.104   4.152   6.962  0.2209  1.8179  0.3395
  143OSM    H5G15735  -0.053   4.233   6.813  1.7301 -0.1108  0.3022
  143OSM    C6F15736   0.116   4.177   6.927  0.1681 -0.3715  0.6425
  143OSM    H6F15737   0.169   4.205   6.834  1.1196 -0.0019  1.2848
  143OSM    H6G15738   0.157   4.082   6.969  1.0090  0.0194  0.7164
  143OSM    C7F15739   0.132   4.275   7.050  0.0358  0.7296 -0.9624
  143OSM    H7F15740   0.063   4.357   7.020 -2.1527 -0.7542 -0.2438
  143OSM    H7G15741   0.239   4.304   7.062 -0.1642  1.1528 -0.1370
  143OSM    C8F15742   0.078   4.225   7.184  0.1004  0.1185  0.6123
  143OSM    H8F15743   0.121   4.127   7.213 -2.6736 -0.9336  1.4681
  143OSM    H8G15744  -0.033   4.218   7.186  0.0465  0.8219  0.5284
  143OSM    C9F15745   0.108   4.322   7.293 -0.5009 -0.2672 -0.3201
  143OSM    H9F15746   0.125   4.424   7.256  1.3957 -0.8135 -1.1145
  143OSM   C10F15747   0.113   4.295   7.423 -0.0628  0.6090 -0.0519
  143OSM   H10F15748   0.142   4.378   7.489  0.4963  1.1928 -1.0042
  143OSM   C11F15749   0.087   4.161   7.485  0.1393 -0.3310  0.0580
  143OSM   H11F15750   0.133   4.154   7.586  1.3421 -1.1570 -0.5179
  143OSM   H11G15751   0.132   4.075   7.431  0.8537 -0.4539  0.8295
  143OSM   C12F15752  -0.063   4.149   7.473  0.0606 -0.0307  0.2425
  143OSM   H12F15753  -0.084   4.046   7.508  3.6265 -1.2669 -0.7744
  143OSM   H12G15754  -0.093   4.160   7.366 -1.4163  2.3855  0.8309
  143OSM   C13F15755  -0.150   4.250   7.544  0.5107  0.9075  0.3832
  143OSM   H13F15756  -0.256   4.229   7.518  0.8630 -2.2665  1.0994
  143OSM   H13G15757  -0.130   4.352   7.505 -1.9180  0.5162 -2.1577
  143OSM   C14F15758  -0.137   4.249   7.694  0.9989 -0.2298 -0.0819
  143OSM   H14F15759  -0.028   4.264   7.713  0.9291 -1.7713  1.7332
  143OSM   H14G15760  -0.162   4.152   7.739  1.4911  0.6315  2.1619
  143OSM   C15F15761  -0.228   4.354   7.761  0.8837 -0.3025  0.2907
  143OSM   H15F15762  -0.333   4.330   7.733  0.5842 -0.5299  1.5149
  143OSM   H15G15763  -0.199   4.457   7.732 -0.3070 -0.3673 -1.2510
  143OSM   C16F15764  -0.224   4.354   7.914 -0.3251  0.1500  0.1774
  143OSM   H16F15765  -0.149   4.428   7.951 -0.5938  0.5556 -0.0771
  143OSM   H16G15766  -0.192   4.252   7.944 -0.6761  0.0653  0.2660
  143OSM   C17F15767  -0.359   4.383   7.969  0.3471 -1.1445  0.0394
  143OSM   H17F15768  -0.435   4.312   7.930 -0.6380  0.0733 -0.3127
  143OSM   H17G15769  -0.386   4.484   7.932  2.2832  0.0523  1.6374
  143OSM   C18F15770  -0.374   4.385   8.126 -0.1633 -1.4103 -0.6214
  143OSM   H18F15771  -0.322   4.473   8.169 -3.3009 -0.4273  1.4979
  143OSM   H18G15772  -0.325   4.293   8.164 -1.2407 -1.6614  0.2114
  143OSM   H18H15773  -0.482   4.391   8.152 -0.0617  0.8387 -0.5705
  144OSM      N15774   5.204   3.178   5.724 -0.3295 -0.1319  0.2303
  144OSM    C1515775   5.170   3.049   5.651  0.3436  0.4499  0.5473
  144OSM   H15A15776   5.085   2.998   5.693  0.7313 -0.0680  0.7150
  144OSM   H15B15777   5.251   2.978   5.641  0.1221  0.2463  0.1735
  144OSM   H15C15778   5.138   3.069   5.550 -2.4664  3.0092  1.8024
  144OSM    C1415779   5.335   3.219   5.655 -0.0364 -0.0527 -0.0733
  144OSM   H14A15780   5.386   3.291   5.718 -1.1840  0.0137  0.8398
  144OSM   H14B15781   5.318   3.263   5.558 -0.5319  0.8656  0.4023
  144OSM   H14C15782   5.404   3.137   5.657 -0.6849 -0.6437 -1.0425
  144OSM    C1315783   5.095   3.275   5.700  0.0293 -0.6101 -0.0868
  144OSM   H13A15784   5.086   3.283   5.593  0.9175  1.2255 -0.0633
  144OSM   H13B15785   5.119   3.376   5.731 -1.9102 -0.8140  2.4692
  144OSM   H13C15786   5.001   3.250   5.748 -0.7362  0.7461 -0.8360
  144OSM    C1215787   5.226   3.157   5.875  0.2955  0.7616  0.1251
  144OSM   H12A15788   5.294   3.073   5.874 -1.4763 -0.7438  0.2926
  144OSM   H12B15789   5.134   3.115   5.913 -0.6423  2.4716 -0.1468
  144OSM    C1115790   5.283   3.280   5.957  0.1855  0.4956 -0.2906
  144OSM   H11A15791   5.225   3.374   5.948  3.0906  2.6144  1.4577
  144OSM   H11B15792   5.382   3.318   5.922  0.5640 -0.1651  0.0557
  144OSM      P15793   5.140   3.240   6.167 -0.0268  0.7460  0.2279
  144OSM    O1315794   5.098   3.379   6.187 -0.0561 -0.0209 -0.3094
  144OSM    O1415795   5.044   3.148   6.099 -0.0518 -0.1223 -0.8200
  144OSM    O1115796   5.164   3.186   6.311 -0.7741 -0.1973  0.1830
  144OSM    O1215797   5.279   3.244   6.090 -0.2931  0.5076 -0.3202
  144OSM    C1S15798   5.091   3.090   6.379  0.8452  0.5744 -0.1533
  144OSM    H1S15799   5.121   2.990   6.342 -2.8883 -0.0300 -2.0655
  144OSM    H1T15800   4.986   3.082   6.342  2.2172 -0.1136 -4.4160
  144OSM     NF15801   5.013   2.985   6.596 -0.2475  0.7455  0.9906
  144OSM    HNF15802   4.928   3.010   6.643 -1.2815  0.5733 -0.6867
  144OSM    C2S15803   5.079   3.100   6.537 -1.3086  0.3168 -0.0044
  144OSM    H2S15804   5.183   3.107   6.577 -0.2616 -0.5697 -2.3602
  144OSM    C3S15805   5.013   3.229   6.582  0.5543  0.0823 -0.7985
  144OSM    H3S15806   4.908   3.216   6.548  0.0550 -0.6256  0.9335
  144OSM     O315807   5.056   3.354   6.516 -0.4956  0.0534  0.0553
  144OSM    HO315808   5.085   3.331   6.428  1.6442  2.8883 -0.1418
  144OSM    C4S15809   5.014   3.241   6.734 -0.0509 -0.0038 -0.3657
  144OSM    H4S15810   4.921   3.191   6.768 -0.9228  0.2065 -2.2934
  144OSM    C5S15811   5.101   3.297   6.818  0.2140 -0.0521 -0.8202
  144OSM    H5S15812   5.194   3.328   6.767  0.8194  0.5311  0.5771
  144OSM    C6S15813   5.092   3.316   6.968  0.4191 -0.1533  0.2950
  144OSM    H6S15814   5.038   3.411   6.985 -3.0203 -1.8006 -0.5654
  144OSM    H6T15815   5.193   3.337   7.009  0.9783  1.7055 -1.8847
  144OSM    C7S15816   5.004   3.215   7.044  0.5046 -0.0760  0.5720
  144OSM    H7S15817   5.022   3.110   7.010 -1.6007 -0.3389  0.0897
  144OSM    H7T15818   4.904   3.248   7.008  0.7429  0.6537  0.5799
  144OSM    C8S15819   5.028   3.228   7.184 -0.0561 -0.3197  0.1763
  144OSM    H8S15820   4.993   3.325   7.226 -2.3729 -1.3556  0.7861
  144OSM    H8T15821   5.136   3.216   7.208 -0.4596 -1.5620  1.5524
  144OSM    C9S15822   4.956   3.114   7.270  0.6221 -1.0549  0.7985
  144OSM    H9S15823   4.985   3.015   7.228 -1.7255 -1.3984 -0.1763
  144OSM    H9T15824   4.845   3.117   7.263  0.5929 -0.7141  1.3692
  144OSM   C10S15825   4.985   3.123   7.418 -0.1111  0.5692 -0.0842
  144OSM   H10S15826   4.951   3.219   7.463  0.0759  0.6633 -0.1442
  144OSM   H10T15827   5.095   3.136   7.423  0.1721  0.4430 -3.7477
  144OSM   C11S15828   4.940   3.006   7.502 -0.0321 -0.3320  0.5326
  144OSM   H11S15829   4.999   2.913   7.489 -1.1349 -0.9093 -0.5198
  144OSM   H11T15830   4.838   2.985   7.463 -1.1817  4.9009 -0.0666
  144OSM   C12S15831   4.926   3.045   7.649 -0.0904  0.9951  0.3574
  144OSM   H12S15832   4.836   3.111   7.654 -1.3500 -0.7244  1.7816
  144OSM   H12T15833   5.014   3.092   7.698 -1.1165  0.3795  2.9806
  144OSM   C13S15834   4.894   2.916   7.732  0.7738 -0.1483  0.2964
  144OSM   H13S15835   4.971   2.837   7.719  1.9546 -0.3054  5.7029
  144OSM   H13T15836   4.798   2.881   7.689 -0.7951  0.6560  2.8767
  144OSM   C14S15837   4.866   2.945   7.876  0.0205  0.5422 -0.0808
  144OSM   H14S15838   4.772   3.003   7.886 -0.2643  0.0753 -0.0561
  144OSM   H14T15839   4.947   3.013   7.911  1.4756  0.2420 -2.5760
  144OSM   C15S15840   4.878   2.830   7.966 -0.7238 -0.1275 -0.8914
  144OSM   H15S15841   4.967   2.764   7.958  1.1978  2.1431  0.3843
  144OSM   H15T15842   4.798   2.757   7.941 -2.6240  0.3530  2.9659
  144OSM   C16S15843   4.868   2.878   8.111 -0.8010 -0.0466 -0.0134
  144OSM   H16S15844   4.793   2.959   8.121 -0.7812  0.3215 -2.2252
  144OSM   H16T15845   4.968   2.917   8.142 -0.7518  0.7324 -1.1006
  144OSM   C17S15846   4.836   2.758   8.201 -0.0967  0.3966  0.7493
  144OSM   H17S15847   4.894   2.675   8.154 -0.5516  0.7672 -0.5007
  144OSM   H17T15848   4.734   2.716   8.194 -0.4193  0.9796  1.7348
  144OSM   C18S15849   4.884   2.777   8.349  0.1146 -0.3212  1.4867
  144OSM   H18S15850   4.993   2.792   8.358  0.0436  0.7475  0.8769
  144OSM   H18T15851   4.836   2.697   8.409 -1.4673  1.0399  2.1404
  144OSM   H18U15852   4.842   2.875   8.382  0.3874  0.6125 -0.7655
  144OSM    C1F15853   5.040   2.851   6.576 -0.0270 -0.2264 -0.5936
  144OSM     OF15854   5.156   2.810   6.563  0.1821 -0.5348  0.0703
  144OSM    C2F15855   4.922   2.760   6.569  0.3486  0.7253 -0.7557
  144OSM    H2F15856   4.898   2.742   6.462  0.6176  0.2851 -0.7446
  144OSM    H2G15857   4.829   2.806   6.607  0.3813 -0.1172  0.3850
  144OSM    C3F15858   4.954   2.620   6.635  0.9624 -0.2680  0.9846
  144OSM    H3F15859   5.049   2.582   6.590  2.1516  2.2227  1.2083
  144OSM    H3G15860   4.880   2.540   6.615  1.0146  0.0726 -0.7254
  144OSM    C4F15861   4.959   2.625   6.788 -0.1524  0.6249  0.2196
  144OSM    H4F15862   5.049   2.684   6.819 -0.7914  1.0816  1.2686
  144OSM    H4G15863   4.979   2.523   6.825 -1.6359  0.6203  1.1079
  144OSM    C5F15864   4.841   2.686   6.859  0.7432  0.7941 -0.1127
  144OSM    H5F15865   4.755   2.645   6.802  0.0900 -2.8490  3.0170
  144OSM    H5G15866   4.838   2.796   6.848 -1.0141  1.1803  2.9069
  144OSM    C6F15867   4.800   2.633   6.997 -0.5526  0.0030 -0.7410
  144OSM    H6F15868   4.843   2.530   7.007  0.7464  0.5691 -0.2668
  144OSM    H6G15869   4.691   2.641   7.012 -0.4801 -0.5377  0.1614
  144OSM    C7F15870   4.864   2.725   7.105  0.0148 -0.0480 -0.1075
  144OSM    H7F15871   4.857   2.832   7.078  1.2212 -0.1493 -0.8719
  144OSM    H7G15872   4.973   2.705   7.114  0.2369  1.2305  0.2541
  144OSM    C8F15873   4.809   2.695   7.250 -0.1630  0.9243  0.3109
  144OSM    H8F15874   4.704   2.729   7.261 -0.8317 -1.7302  4.0916
  144OSM    H8G15875   4.866   2.765   7.316 -1.5218  0.1156  2.4108
  144OSM    C9F15876   4.815   2.549   7.293 -0.2910 -1.0571  0.0782
  144OSM    H9F15877   4.792   2.476   7.215 -0.7458  1.6084 -2.4501
  144OSM   C10F15878   4.843   2.517   7.418 -0.6934 -0.0094 -0.0106
  144OSM   H10F15879   4.842   2.409   7.439 -1.7617  0.2774  1.6200
  144OSM   C11F15880   4.883   2.604   7.542  0.5056 -0.6096  0.0614
  144OSM   H11F15881   4.791   2.649   7.585 -0.4616 -1.9564 -0.5299
  144OSM   H11G15882   4.948   2.689   7.514  2.4626 -1.9824  0.1669
  144OSM   C12F15883   4.943   2.517   7.663  0.9780 -0.1362  0.3742
  144OSM   H12F15884   4.975   2.597   7.733  0.5407  0.5576 -0.2089
  144OSM   H12G15885   5.027   2.454   7.624  0.7290 -0.1795 -0.1000
  144OSM   C13F15886   4.842   2.420   7.717 -0.1354  0.1963 -0.5344
  144OSM   H13F15887   4.790   2.359   7.640  0.3288 -2.7434  1.3359
  144OSM   H13G15888   4.757   2.477   7.759 -2.1623 -3.5105  0.7959
  144OSM   C14F15889   4.905   2.319   7.821 -0.0661 -0.2459 -0.1359
  144OSM   H14F15890   4.942   2.380   7.906 -1.0870 -2.3354  1.9077
  144OSM   H14G15891   4.988   2.254   7.784  0.5510  0.5519 -0.1960
  144OSM   C15F15892   4.810   2.223   7.887 -0.0016  0.1192  0.4321
  144OSM   H15F15893   4.864   2.158   7.959 -0.6963 -0.9839 -0.0124
  144OSM   H15G15894   4.778   2.153   7.806  1.6259 -1.7374  1.3143
  144OSM   C16F15895   4.684   2.282   7.954  0.2988  0.9056  0.1960
  144OSM   H16F15896   4.615   2.196   7.968  2.5587 -0.8679  1.0487
  144OSM   H16G15897   4.632   2.353   7.886 -0.1282  1.3256  0.9390
  144OSM   C17F15898   4.699   2.352   8.089  0.9139  0.1513 -0.5873
  144OSM   H17F15899   4.770   2.437   8.074  0.3418  0.7541  0.0693
  144OSM   H17G15900   4.751   2.282   8.157 -1.7206 -1.1023  0.2774
  144OSM   C18F15901   4.574   2.406   8.141  1.1373 -0.2117 -0.3597
  144OSM   H18F15902   4.597   2.489   8.211  1.0346 -0.3078 -0.2117
  144OSM   H18G15903   4.511   2.340   8.205 -1.1387  3.0531  0.9923
  144OSM   H18H15904   4.517   2.448   8.056  0.9815  0.9110  0.2810
  145SAPE     N15905   2.847   5.793  10.817 -0.4397 -0.4144  0.4146
  145SAPE   HN115906   2.908   5.844  10.884 -0.3711  0.7081 -0.4708
  145SAPE   HN215907   2.778   5.861  10.780  0.7551  1.5790  1.6336
  145SAPE   HN315908   2.798   5.712  10.860 -0.9622 -0.5752 -0.4664
  145SAPE   C1215909   2.945   5.744  10.710  0.4395 -0.3363 -0.2977
  145SAPE  H12A15910   3.019   5.683  10.767  0.2545  1.0088  1.4698
  145SAPE  H12B15911   2.988   5.834  10.662  0.8324  0.1913  0.9999
  145SAPE   C1115912   2.880   5.668  10.600  0.2796 -0.2787  0.2043
  145SAPE  H11A15913   2.829   5.586  10.654  0.6003 -0.7406 -0.1785
  145SAPE  H11B15914   2.948   5.631  10.519 -1.2623 -2.6689 -0.1100
  145SAPE     P15915   2.657   5.673  10.466  0.0284  0.0863  0.0080
  145SAPE   O1315916   2.615   5.556  10.544  0.5023  0.5506 -0.1244
  145SAPE   O1415917   2.553   5.768  10.437 -0.5051 -0.5695 -0.0738
  145SAPE   O1215918   2.773   5.746  10.542 -0.2463 -1.5065 -0.2829
  145SAPE   O1115919   2.722   5.620  10.329  0.1735  0.1036  0.2193
  145SAPE    C115920   2.633   5.547  10.237 -0.5168  0.0195  0.2316
  145SAPE    HA15921   2.619   5.444  10.277 -1.4412 -1.5377 -3.5758
  145SAPE    HB15922   2.538   5.600  10.217 -0.6437 -0.0647  0.6069
  145SAPE    C215923   2.692   5.526  10.091  0.2163  0.3543  0.0729
  145SAPE    HS15924   2.787   5.472  10.111 -0.5033 -1.1340 -0.3557
  145SAPE   O2115925   2.707   5.665  10.042 -0.0666 -0.4406  0.4324
  145SAPE   C2115926   2.823   5.694   9.988  0.3066  0.2920 -0.8529
  145SAPE   O2215927   2.920   5.616   9.976  0.4423  0.4920  0.4145
  145SAPE   C2215928   2.820   5.842   9.945 -0.6373 -0.5101 -0.0340
  145SAPE   H2R15929   2.725   5.885   9.985 -0.4629 -2.5820  2.9494
  145SAPE   H2S15930   2.898   5.895  10.004 -1.0744 -1.7113  1.6781
  145SAPE    C315931   2.599   5.439   9.996 -0.2871 -0.2232 -0.7298
  145SAPE    HX15932   2.498   5.485   9.994 -0.0151  0.3810 -3.1961
  145SAPE    HY15933   2.575   5.338  10.036 -0.3240 -0.9449 -2.5243
  145SAPE   O3115934   2.642   5.436   9.856  0.0739 -0.2698 -0.3775
  145SAPE   C3115935   2.766   5.376   9.845  0.6318 -0.2708  0.3287
  145SAPE   O3215936   2.819   5.307   9.923  0.3223  0.2197 -0.5314
  145SAPE   C3215937   2.820   5.407   9.704 -0.3904  0.2321  0.2027
  145SAPE   H2X15938   2.925   5.373   9.717 -0.6674 -0.4794  0.6608
  145SAPE   H2Y15939   2.809   5.515   9.682 -1.4622 -0.2297 -1.8576
  145SAPE   C2315940   2.838   5.883   9.800  0.1607  0.1319  0.3011
  145SAPE   H3R15941   2.782   5.812   9.737 -1.5017  1.7683 -0.1394
  145SAPE   H3S15942   2.947   5.875   9.777  0.0965  0.9931 -0.3703
  145SAPE   C2415943   2.804   6.026   9.767 -0.2500 -0.2939 -0.1194
  145SAPE   H4R15944   2.882   6.085   9.821  0.7814 -1.8115  0.0904
  145SAPE   H4S15945   2.708   6.060   9.811 -0.2756 -1.7579  1.0375
  145SAPE   C2515946   2.828   6.043   9.618  0.3815  0.2877 -0.6781
  145SAPE   H5R15947   2.760   5.980   9.558  1.2740 -0.7220 -0.6674
  145SAPE   C2615948   2.912   6.122   9.553  0.0528  0.4858  0.1153
  145SAPE   H6R15949   2.917   6.121   9.443 -2.6237 -1.4735 -0.1023
  145SAPE   C2715950   3.013   6.214   9.611  0.5430 -0.5730  0.8129
  145SAPE   H7R15951   3.112   6.211   9.562  0.8384  3.6693  0.7984
  145SAPE   H7S15952   3.031   6.201   9.720  1.8534  1.3088  0.8545
  145SAPE   C2815953   2.961   6.355   9.598 -0.0259 -0.7100  0.3735
  145SAPE   H8R15954   2.920   6.402   9.688  0.7161  1.5047 -0.3692
  145SAPE   C2915955   2.986   6.444   9.495 -0.3379  0.4220  0.2803
  145SAPE   H9R15956   2.946   6.547   9.501 -1.1364  0.0517  1.9465
  145SAPE  C21015957   3.082   6.426   9.377 -0.0988 -0.2212  0.3129
  145SAPE  H10R15958   3.131   6.326   9.384 -0.4909 -0.3746  0.9792
  145SAPE  H10S15959   3.145   6.517   9.366  0.4630 -0.6937 -0.4677
  145SAPE  C21115960   2.986   6.427   9.260 -0.2443  0.1213  0.4742
  145SAPE  H11R15961   2.913   6.508   9.247  0.4941  0.4025 -2.6843
  145SAPE  C21215962   2.979   6.343   9.157 -0.3391 -0.0188  0.0406
  145SAPE  H12R15963   2.909   6.360   9.074 -0.6269  2.7661  0.7608
  145SAPE  C21315964   3.065   6.225   9.117  0.6703 -0.5417 -0.6031
  145SAPE  H13R15965   3.016   6.129   9.091  0.9547 -0.8526 -0.0073
  145SAPE  H13S15966   3.120   6.198   9.210 -1.0402 -0.5629  0.4435
  145SAPE  C21415967   3.186   6.261   9.026  0.5416 -0.4662 -0.5699
  145SAPE  H14R15968   3.226   6.361   9.048 -1.2681  0.0949  0.4166
  145SAPE  C21515969   3.251   6.180   8.938 -0.6657  0.1937  0.4829
  145SAPE  H15R15970   3.349   6.214   8.903  0.2941 -0.9808  1.9122
  145SAPE  C21615971   3.216   6.039   8.904 -0.0725  0.8120  0.6789
  145SAPE  H16R15972   3.118   6.012   8.949 -1.9062  3.4846 -1.3341
  145SAPE  H16S15973   3.297   5.984   8.955  0.7361  1.5957  0.2774
  145SAPE  C21715974   3.214   6.006   8.746 -0.2497  0.2458  0.1477
  145SAPE  H17R15975   3.212   5.895   8.738 -0.3756  0.0859  1.8758
  145SAPE  H17S15976   3.310   6.039   8.702  1.2956 -2.1221  1.5336
  145SAPE  C21815977   3.097   6.072   8.671  0.3611 -0.1436 -0.6379
  145SAPE  H18R15978   3.121   6.175   8.637 -0.5949 -0.3834 -2.1332
  145SAPE  H18S15979   2.999   6.085   8.722  0.3139 -1.3802 -0.3931
  145SAPE  C21915980   3.065   5.989   8.541  0.0113 -0.1372  0.7839
  145SAPE  H19R15981   3.006   5.896   8.554 -0.5459 -0.1498 -1.4595
  145SAPE  H19S15982   3.167   5.963   8.505 -1.2008 -0.0811 -3.1913
  145SAPE  C22015983   3.006   6.064   8.423 -0.2033  0.3445 -0.2250
  145SAPE  H20R15984   2.971   5.998   8.341  1.4719 -0.4341 -0.3730
  145SAPE  H20S15985   3.072   6.136   8.372 -0.4452 -0.6171 -1.9682
  145SAPE  H20T15986   2.926   6.129   8.463  0.8826  1.8248 -0.3898
  145SAPE   C3315987   2.764   5.326   9.586  0.1116 -0.2089 -0.0357
  145SAPE   H3X15988   2.653   5.323   9.597  0.2320 -2.8727  1.1250
  145SAPE   H3Y15989   2.803   5.222   9.581  1.8048  0.4312 -1.0252
  145SAPE   C3415990   2.792   5.384   9.451 -0.6054 -1.0390  0.6040
  145SAPE   H4X15991   2.898   5.379   9.419 -0.8863 -0.2487 -0.5522
  145SAPE   H4Y15992   2.776   5.494   9.453  1.9520 -0.6127  1.4231
  145SAPE   C3515993   2.705   5.328   9.333 -0.1718 -0.0608 -0.5152
  145SAPE   H5X15994   2.701   5.406   9.254 -0.6554 -0.1404 -0.5719
  145SAPE   H5Y15995   2.597   5.325   9.360 -0.1513 -1.7314 -0.5350
  145SAPE   C3615996   2.759   5.198   9.274 -0.0788 -0.2126  0.2870
  145SAPE   H6X15997   2.805   5.131   9.351 -0.2584 -1.1718 -0.4172
  145SAPE   H6Y15998   2.834   5.229   9.199 -1.0200 -1.1945 -1.1033
  145SAPE   C3715999   2.658   5.115   9.181 -0.1227  0.0660 -0.0716
  145SAPE   H7X16000   2.573   5.089   9.248 -0.6312  2.5249  0.3491
  145SAPE   H7Y16001   2.714   5.027   9.144  0.4825 -0.0395  1.0404
  145SAPE   C3816002   2.611   5.191   9.052  0.1855 -0.7463 -0.1666
  145SAPE   H8X16003   2.569   5.281   9.100  1.5310  1.5069 -2.8903
  145SAPE   H8Y16004   2.532   5.133   8.998  0.4794 -1.2517 -0.0531
  145SAPE   C3916005   2.717   5.257   8.965 -0.4079  0.1360  0.2782
  145SAPE   H9X16006   2.771   5.334   9.024  0.9858 -0.7888  0.2570
  145SAPE   H9Y16007   2.675   5.321   8.884  0.0848 -0.3944 -0.4194
  145SAPE  C31016008   2.826   5.161   8.905  0.2382 -0.6037 -0.5387
  145SAPE  H10X16009   2.870   5.091   8.979  0.2234 -0.3399 -0.2761
  145SAPE  H10Y16010   2.917   5.218   8.878  0.3036 -1.0310 -1.2475
  145SAPE  C31116011   2.778   5.089   8.778 -0.3371 -0.1721  0.7095
  145SAPE  H11X16012   2.754   5.163   8.699 -1.1045 -1.1761 -0.0401
  145SAPE  H11Y16013   2.677   5.044   8.796 -1.5980  1.6446 -1.3205
  145SAPE  C31216014   2.874   4.987   8.731  0.0845  0.5304 -0.0463
  145SAPE  H12X16015   2.904   4.930   8.822  0.9554  0.9327 -0.0662
  145SAPE  H12Y16016   2.962   5.047   8.698  0.0979 -0.2179 -1.4314
  145SAPE  C31316017   2.824   4.890   8.618  0.5033 -0.2758 -0.1570
  145SAPE  H13X16018   2.777   4.955   8.541 -2.2229 -1.7400  0.1308
  145SAPE  H13Y16019   2.731   4.841   8.655  1.5697 -1.7550  0.6668
  145SAPE  C31416020   2.926   4.784   8.578  0.1025 -0.0951 -1.0304
  145SAPE  H14X16021   2.884   4.702   8.516 -0.7301 -3.1219  3.0912
  145SAPE  H14Y16022   2.965   4.750   8.676 -0.1733 -0.2236 -0.9650
  145SAPE  C31516023   3.054   4.835   8.514  0.3314 -0.5179  0.2133
  145SAPE  H15X16024   3.133   4.758   8.526  0.2632 -0.4863  0.9153
  145SAPE  H15Y16025   3.091   4.927   8.565 -0.4037 -0.1326  0.0655
  145SAPE  C31616026   3.038   4.855   8.366  0.1703 -0.4930  0.4920
  145SAPE  H16X16027   2.993   4.952   8.336  0.8269 -0.7098 -1.3141
  145SAPE  H16Y16028   2.960   4.790   8.321  0.3519 -0.5067  0.1959
  145SAPE  C31716029   3.169   4.837   8.296 -0.1356  1.0021 -0.2715
  145SAPE  H17X16030   3.199   4.730   8.306 -0.1505  1.0595  0.4439
  145SAPE  H17Y16031   3.236   4.908   8.349 -0.3318 -1.1787  3.2697
  145SAPE  C31816032   3.149   4.871   8.152  0.0209  0.9398  0.6457
  145SAPE  H18X16033   3.237   4.834   8.095  0.2761  0.2455  1.4626
  145SAPE  H18Y16034   3.148   4.981   8.139  1.3427  1.2062  2.3825
  145SAPE  H18Z16035   3.067   4.814   8.103  0.7008  1.1111 -0.7497
  146SAPE     N16036   1.714   5.998  10.644  0.0106 -0.1115 -0.1097
  146SAPE   HN116037   1.653   5.988  10.727 -0.5610 -0.6096 -0.5757
  146SAPE   HN216038   1.756   6.092  10.657 -2.5281  0.8951  1.4276
  146SAPE   HN316039   1.656   6.010  10.559  0.3911 -1.9925 -0.6878
  146SAPE   C1216040   1.801   5.871  10.625 -0.2140 -0.7046 -0.5076
  146SAPE  H12A16041   1.727   5.789  10.610 -0.1683 -1.0246  0.9170
  146SAPE  H12B16042   1.860   5.854  10.717  1.8904 -1.3653 -1.9117
  146SAPE   C1116043   1.886   5.886  10.498  0.1749 -0.1983  0.5626
  146SAPE  H11A16044   1.822   5.892  10.407  0.7931 -0.0319  0.1309
  146SAPE  H11B16045   1.944   5.792  10.489  0.1770 -0.1251 -0.2364
  146SAPE     P16046   2.083   6.030  10.406 -0.0419 -0.3787 -0.0093
  146SAPE   O1316047   2.153   6.155  10.448  0.0086 -0.0476 -0.4017
  146SAPE   O1416048   2.170   5.913  10.400  0.4944 -0.0313  0.6068
  146SAPE   O1216049   1.963   6.004  10.507  0.0203  0.2810 -0.7491
  146SAPE   O1116050   2.013   6.041  10.259  0.2290  0.1276  0.4516
  146SAPE    C116051   1.956   6.164  10.225 -0.1995 -0.1355 -0.0105
  146SAPE    HA16052   1.899   6.211  10.308  1.4096  0.3730  0.8622
  146SAPE    HB16053   2.045   6.224  10.195  0.8195 -1.8036 -0.4800
  146SAPE    C216054   1.864   6.138  10.095 -0.4937 -0.9243 -0.3455
  146SAPE    HS16055   1.778   6.079  10.133 -0.9214  0.8692  1.6752
  146SAPE   O2116056   1.941   6.063  10.000 -0.3090  0.2313  0.1198
  146SAPE   C2116057   1.865   6.001   9.916 -1.0061 -0.0947 -0.7482
  146SAPE   O2216058   1.745   6.000   9.922  0.5227 -0.1297 -0.9110
  146SAPE   C2216059   1.949   5.923   9.812 -0.3571 -0.4758  0.1670
  146SAPE   H2R16060   2.050   5.969   9.808 -0.7780  0.4123 -2.6251
  146SAPE   H2S16061   1.960   5.815   9.836  3.1686 -0.0415  1.0873
  146SAPE    C316062   1.816   6.277  10.049  0.3907 -0.6939 -0.6213
  146SAPE    HX16063   1.756   6.317  10.133  1.5206  0.0164 -0.1350
  146SAPE    HY16064   1.746   6.280   9.963 -1.5013  0.0566  0.8711
  146SAPE   O3116065   1.925   6.369  10.029  0.4799 -0.1397 -0.3273
  146SAPE   C3116066   1.953   6.406   9.903  0.8385  0.9151 -0.0651
  146SAPE   O3216067   1.906   6.364   9.803  0.2487 -0.3362 -0.0469
  146SAPE   C3216068   2.066   6.499   9.911 -0.9925 -0.0998  0.5628
  146SAPE   H2X16069   2.151   6.431   9.935  0.1646  0.0703 -2.5179
  146SAPE   H2Y16070   2.041   6.571   9.991 -0.5593  0.9864 -0.2470
  146SAPE   C2316071   1.887   5.938   9.671 -0.3439  0.4233 -0.5175
  146SAPE   H3R16072   1.881   6.043   9.635  0.0167  0.5981 -0.0637
  146SAPE   H3S16073   1.786   5.899   9.698 -0.1286  0.1812 -0.0639
  146SAPE   C2416074   1.944   5.834   9.561 -0.3295 -0.1648 -0.1310
  146SAPE   H4R16075   1.876   5.821   9.475 -0.4780  0.6219 -0.1373
  146SAPE   H4S16076   1.937   5.742   9.623 -1.4478  2.2479  3.6702
  146SAPE   C2516077   2.088   5.869   9.533  0.1730  0.5425  0.3433
  146SAPE   H5R16078   2.163   5.843   9.609 -1.7989 -0.7440  1.9456
  146SAPE   C2616079   2.136   5.922   9.416 -0.5636  0.2371 -0.1294
  146SAPE   H6R16080   2.244   5.940   9.418 -0.7408  1.5873 -1.4512
  146SAPE   C2716081   2.056   5.956   9.292 -0.7518 -0.3183  0.3940
  146SAPE   H7R16082   2.010   6.055   9.311 -0.8061  0.0835 -1.6657
  146SAPE   H7S16083   1.975   5.881   9.304 -0.5172 -0.4428  1.2723
  146SAPE   C2816084   2.134   5.949   9.165  0.1670  0.3052 -0.4001
  146SAPE   H8R16085   2.221   5.881   9.166  1.2042  1.5909 -0.1417
  146SAPE   C2916086   2.104   6.027   9.057 -0.6477  0.7403  0.5286
  146SAPE   H9R16087   2.158   6.008   8.963 -0.8786 -0.5142  0.6263
  146SAPE  C21016088   1.987   6.126   9.045 -0.1433  0.1373 -0.2980
  146SAPE  H10R16089   2.023   6.227   9.018 -0.9860 -0.2894 -3.3424
  146SAPE  H10S16090   1.924   6.127   9.137 -0.6294 -3.3725 -0.4628
  146SAPE  C21116091   1.894   6.078   8.934 -0.0233 -0.4179 -0.2400
  146SAPE  H11R16092   1.856   5.975   8.947 -0.0564 -0.2539  1.1524
  146SAPE  C21216093   1.851   6.153   8.828  0.4854 -0.5101 -0.1858
  146SAPE  H12R16094   1.787   6.113   8.748 -1.6777  1.1408  0.6268
  146SAPE  C21316095   1.883   6.303   8.809  0.2769 -0.2920  0.0078
  146SAPE  H13R16096   1.978   6.308   8.752 -0.8972  0.4229 -1.9796
  146SAPE  H13S16097   1.905   6.351   8.907 -1.0971 -1.5867  0.9816
  146SAPE  C21416098   1.759   6.379   8.750 -0.5140  0.3560 -0.0475
  146SAPE  H14R16099   1.665   6.340   8.790  0.2266  0.4009  1.8166
  146SAPE  C21516100   1.762   6.495   8.679 -0.0873  0.3003 -0.5912
  146SAPE  H15R16101   1.662   6.540   8.666 -1.1636 -0.5268  3.3907
  146SAPE  C21616102   1.882   6.566   8.621  0.9235  0.3166  0.4633
  146SAPE  H16R16103   1.976   6.512   8.645  0.2217 -1.0932  0.1390
  146SAPE  H16S16104   1.887   6.672   8.653 -3.1940  1.4042 -1.8306
  146SAPE  C21716105   1.861   6.565   8.465 -0.1966  1.3342  0.3820
  146SAPE  H17R16106   1.859   6.458   8.433  1.4483  0.7687  1.9410
  146SAPE  H17S16107   1.942   6.614   8.407 -1.6805  1.6047 -1.5640
  146SAPE  C21816108   1.740   6.631   8.406  0.5079 -0.1889  0.9414
  146SAPE  H18R16109   1.650   6.592   8.458 -0.5390  1.2669  0.2944
  146SAPE  H18S16110   1.726   6.602   8.299  4.1740 -2.6145  0.9380
  146SAPE  C21916111   1.747   6.782   8.414 -0.2575 -0.4344 -0.0111
  146SAPE  H19R16112   1.824   6.830   8.349 -2.0644  0.3185 -1.7140
  146SAPE  H19S16113   1.769   6.814   8.518 -0.5622 -0.4373  0.0571
  146SAPE  C22016114   1.614   6.846   8.377  0.2817 -0.2843 -0.2444
  146SAPE  H20R16115   1.564   6.874   8.472  1.0948 -0.3419  0.2108
  146SAPE  H20S16116   1.548   6.781   8.315 -1.2009 -0.1239  1.1045
  146SAPE  H20T16117   1.636   6.940   8.323 -0.2476 -0.8582 -1.4973
  146SAPE   C3316118   2.108   6.579   9.781  0.3195 -0.5849 -0.1205
  146SAPE   H3X16119   2.182   6.657   9.809  0.8886 -0.8137 -0.9622
  146SAPE   H3Y16120   2.015   6.634   9.755  0.4002  0.9912  2.5360
  146SAPE   C3416121   2.166   6.491   9.667  0.0382 -1.0280 -0.1674
  146SAPE   H4X16122   2.097   6.404   9.655 -1.6050 -0.0167  1.4921
  146SAPE   H4Y16123   2.268   6.458   9.697  0.3148 -1.9974 -2.0089
  146SAPE   C3516124   2.173   6.570   9.535 -0.0798 -0.3160 -0.8040
  146SAPE   H5X16125   2.243   6.655   9.547 -0.2929 -0.4550  1.9169
  146SAPE   H5Y16126   2.071   6.614   9.523 -1.6381 -3.7325 -1.3844
  146SAPE   C3616127   2.201   6.494   9.408  0.4602 -0.2022  0.3869
  146SAPE   H6X16128   2.131   6.408   9.396 -0.2925  0.1684  1.9200
  146SAPE   H6Y16129   2.300   6.446   9.424 -0.5475 -1.8043  2.2023
  146SAPE   C3716130   2.196   6.565   9.273 -0.2532 -0.1404 -0.1975
  146SAPE   H7X16131   2.252   6.658   9.245 -0.5440  0.2412  0.4748
  146SAPE   H7Y16132   2.093   6.603   9.257  0.3520  0.8911 -1.9860
  146SAPE   C3816133   2.214   6.454   9.159  0.1336 -0.1321 -0.5684
  146SAPE   H8X16134   2.147   6.371   9.189  2.9998 -1.9545  1.1592
  146SAPE   H8Y16135   2.321   6.427   9.163  1.0766  3.0725 -0.8982
  146SAPE   C3916136   2.183   6.502   9.013  0.4273  0.1192 -1.0173
  146SAPE   H9X16137   2.074   6.522   9.007  0.2959 -0.2931 -0.1633
  146SAPE   H9Y16138   2.178   6.406   8.957 -0.6462 -0.3873 -0.0951
  146SAPE  C31016139   2.282   6.604   8.964  0.0087 -0.1492 -0.0834
  146SAPE  H10X16140   2.385   6.587   9.002  0.0400 -2.2508 -0.9610
  146SAPE  H10Y16141   2.249   6.708   8.982 -2.1392 -0.5278 -1.5112
  146SAPE  C31116142   2.297   6.597   8.810 -0.5204 -0.1400  0.1712
  146SAPE  H11X16143   2.199   6.583   8.759  0.9289  0.4763 -2.9761
  146SAPE  H11Y16144   2.359   6.507   8.795 -2.0391 -1.4416  1.3642
  146SAPE  C31216145   2.364   6.717   8.748 -0.4807  0.5034 -0.3064
  146SAPE  H12X16146   2.456   6.733   8.809 -0.0341  0.9967 -1.1008
  146SAPE  H12Y16147   2.295   6.804   8.746 -1.1834 -0.0569 -1.6109
  146SAPE  C31316148   2.430   6.689   8.613 -0.4225 -0.6085 -0.5984
  146SAPE  H13X16149   2.500   6.604   8.626 -0.0291 -0.1988  0.0047
  146SAPE  H13Y16150   2.494   6.774   8.581 -0.4538 -0.6133 -0.6764
  146SAPE  C31416151   2.335   6.666   8.500 -0.0547 -0.1793  0.1149
  146SAPE  H14X16152   2.295   6.562   8.508 -2.4094  0.7877  2.3998
  146SAPE  H14Y16153   2.387   6.669   8.402 -3.8281 -1.7436 -2.1922
  146SAPE  C31516154   2.220   6.771   8.493 -0.6457 -0.3198 -0.0062
  146SAPE  H15X16155   2.157   6.750   8.582 -0.6616 -2.0260 -0.3858
  146SAPE  H15Y16156   2.153   6.742   8.409 -1.0232 -0.5829  0.3808
  146SAPE  C31616157   2.273   6.915   8.484  0.5319 -0.5030  0.1578
  146SAPE  H16X16158   2.363   6.909   8.418  2.1622 -1.5842  2.3627
  146SAPE  H16Y16159   2.310   6.962   8.578  0.9897 -0.9114  0.1895
  146SAPE  C31716160   2.170   7.004   8.397 -0.7179  0.1807 -0.0389
  146SAPE  H17X16161   2.086   6.990   8.468  0.2673 -2.8027  0.6971
  146SAPE  H17Y16162   2.150   6.945   8.305  1.8114 -1.1419  0.1653
  146SAPE  C31816163   2.210   7.153   8.366  0.1097 -0.0524  0.3205
  146SAPE  H18X16164   2.126   7.222   8.347  1.9784  1.8490 -1.5666
  146SAPE  H18Y16165   2.272   7.163   8.274  1.5330 -2.1252  0.9705
  146SAPE  H18Z16166   2.259   7.199   8.455 -0.1377  0.8027  0.0244
  147SAPE     N16167   4.005   3.609  10.642  0.0768 -0.1838  0.3681
  147SAPE   HN116168   3.973   3.687  10.580 -1.8228 -1.1267  0.0639
  147SAPE   HN216169   3.932   3.616  10.716  0.5665  0.2556  0.8094
  147SAPE   HN316170   4.100   3.631  10.677 -0.0128 -1.5623  1.5363
  147SAPE   C1216171   3.997   3.479  10.569  0.1326 -0.3191 -0.0357
  147SAPE  H12A16172   3.918   3.480  10.491  1.8137 -1.8174 -1.8528
  147SAPE  H12B16173   3.992   3.398  10.645  2.9668  0.6406  1.3225
  147SAPE   C1116174   4.127   3.469  10.478  0.0231  0.2378  0.1840
  147SAPE  H11A16175   4.107   3.553  10.407 -2.8798 -0.4547  0.0303
  147SAPE  H11B16176   4.119   3.384  10.407 -0.9087  0.2828  0.2156
  147SAPE     P16177   4.295   3.357  10.649  0.0413  0.2335 -0.3337
  147SAPE   O1316178   4.429   3.385  10.713 -0.2955 -0.3329  0.2795
  147SAPE   O1416179   4.175   3.340  10.736 -0.0033  0.4593  0.0921
  147SAPE   O1216180   4.255   3.470  10.547 -0.0950  0.1953  0.3529
  147SAPE   O1116181   4.304   3.222  10.563 -0.2645  0.2223 -0.0800
  147SAPE    C116182   4.405   3.217  10.460  0.0527  0.0371 -0.1425
  147SAPE    HA16183   4.377   3.283  10.376  1.1628 -0.7883 -1.1895
  147SAPE    HB16184   4.505   3.245  10.500 -0.3386  1.6606 -0.2553
  147SAPE    C216185   4.417   3.065  10.404 -0.1162  0.3890 -0.6126
  147SAPE    HS16186   4.517   3.059  10.356 -0.1690 -0.6277 -0.6342
  147SAPE   O2116187   4.314   3.040  10.309  0.4556 -0.1309 -0.3892
  147SAPE   C2116188   4.349   2.958  10.208  0.6239  0.3366 -0.0690
  147SAPE   O2216189   4.460   2.916  10.187  0.5780  0.1280 -0.0097
  147SAPE   C2216190   4.223   2.934  10.130  0.3527  0.0219 -0.2152
  147SAPE   H2R16191   4.138   2.891  10.188  0.7124 -1.1697 -0.5400
  147SAPE   H2S16192   4.191   3.035  10.098 -0.7782 -0.7342 -1.5589
  147SAPE    C316193   4.418   2.957  10.523  0.6904 -0.2632 -0.2562
  147SAPE    HX16194   4.327   2.976  10.583  1.3954  0.1673  0.6911
  147SAPE    HY16195   4.508   2.976  10.585  1.1384  1.2423 -1.3026
  147SAPE   O3116196   4.413   2.822  10.466  0.4456  0.2219 -1.3555
  147SAPE   C3116197   4.535   2.761  10.456 -0.2203 -0.3096 -0.3046
  147SAPE   O3216198   4.638   2.800  10.509  0.2747 -0.2079 -0.6139
  147SAPE   C3216199   4.513   2.630  10.394  0.2070 -0.4032 -0.5038
  147SAPE   H2X16200   4.437   2.643  10.314 -1.0258 -1.4773  0.4505
  147SAPE   H2Y16201   4.460   2.571  10.472  1.3847  0.9780  1.4502
  147SAPE   C2316202   4.255   2.847  10.008 -0.1741 -0.1384 -0.2934
  147SAPE   H3R16203   4.363   2.846   9.984  0.0045  0.7621  0.4212
  147SAPE   H3S16204   4.210   2.899   9.921 -0.5058  3.1132  1.6815
  147SAPE   C2416205   4.207   2.701  10.026 -0.6613  1.2864  0.2704
  147SAPE   H4R16206   4.270   2.665  10.110 -1.6395 -0.8571  0.1689
  147SAPE   H4S16207   4.234   2.653   9.929 -2.7421  3.2101 -1.3695
  147SAPE   C2516208   4.065   2.682  10.058 -0.7728  0.6529  0.1607
  147SAPE   H5R16209   4.033   2.670  10.162 -1.5580 -0.8869 -0.2275
  147SAPE   C2616210   3.958   2.699   9.973  0.0551 -0.8435  0.0395
  147SAPE   H6R16211   3.855   2.674  10.002  0.3014  0.4444  2.2749
  147SAPE   C2716212   3.967   2.747   9.830  0.1079 -0.5621 -0.1817
  147SAPE   H7R16213   4.071   2.778   9.804 -0.2493  0.4047 -0.5043
  147SAPE   H7S16214   3.910   2.841   9.817  1.5105  0.1718 -1.4001
  147SAPE   C2816215   3.916   2.645   9.732 -0.0069 -0.6994 -0.0768
  147SAPE   H8R16216   3.877   2.556   9.785  1.9614 -0.9381  1.0535
  147SAPE   C2916217   3.891   2.654   9.602 -0.2170  0.0334  0.0273
  147SAPE   H9R16218   3.853   2.568   9.545 -1.7675  0.3740  0.5158
  147SAPE  C21016219   3.907   2.772   9.511 -0.6058  0.6729  0.0053
  147SAPE  H10R16220   3.922   2.860   9.577  1.8870 -1.0928  2.0242
  147SAPE  H10S16221   3.811   2.791   9.459 -1.0685 -1.3836  0.0064
  147SAPE  C21116222   4.019   2.746   9.416  0.4860 -0.1900 -0.0886
  147SAPE  H11R16223   4.117   2.778   9.454 -0.0510  4.4581 -2.0396
  147SAPE  C21216224   4.006   2.685   9.295  0.1219  0.0192  0.3707
  147SAPE  H12R16225   4.092   2.678   9.226 -0.6033 -0.1038 -0.5264
  147SAPE  C21316226   3.885   2.634   9.226  0.3131  0.6820  0.1896
  147SAPE  H13R16227   3.878   2.688   9.129 -0.3094 -0.4570 -0.4073
  147SAPE  H13S16228   3.793   2.654   9.285  1.2215  0.9654  1.5725
  147SAPE  C21416229   3.896   2.486   9.198 -0.4961  0.1298  0.1861
  147SAPE  H14R16230   3.904   2.431   9.293 -3.1187 -0.9953 -0.1513
  147SAPE  C21516231   3.872   2.427   9.076 -0.0434  0.3445 -1.0301
  147SAPE  H15R16232   3.879   2.318   9.058  0.2405 -0.2418  2.1251
  147SAPE  C21616233   3.835   2.500   8.951 -0.4613 -0.0355 -0.1529
  147SAPE  H16R16234   3.908   2.583   8.935 -0.2923  0.3638  2.3101
  147SAPE  H16S16235   3.736   2.548   8.960 -1.0184 -0.6362 -2.4253
  147SAPE  C21716236   3.845   2.405   8.832  0.0219  0.0182 -0.0254
  147SAPE  H17R16237   3.772   2.322   8.843 -0.4401  0.5218  0.7609
  147SAPE  H17S16238   3.941   2.348   8.838 -0.0370 -0.0861 -0.0675
  147SAPE  C21816239   3.842   2.461   8.691 -0.6053 -0.3519 -0.4139
  147SAPE  H18R16240   3.848   2.380   8.615 -0.4118 -0.5897 -0.1457
  147SAPE  H18S16241   3.929   2.530   8.676 -0.7733 -0.0549 -0.0366
  147SAPE  C21916242   3.710   2.535   8.646 -0.0792  1.3123  0.2299
  147SAPE  H19R16243   3.716   2.643   8.671  0.5707  0.9374  1.8059
  147SAPE  H19S16244   3.625   2.482   8.695  0.4650 -0.1495 -0.3545
  147SAPE  C22016245   3.690   2.520   8.490 -0.2444  0.4992  0.2787
  147SAPE  H20R16246   3.781   2.555   8.436 -0.0603  2.7773  1.9393
  147SAPE  H20S16247   3.604   2.585   8.465  0.0181  1.3814  1.5772
  147SAPE  H20T16248   3.671   2.418   8.450  0.5004  0.3552  0.2636
  147SAPE   C3316249   4.645   2.560  10.359 -0.5107  0.3535  0.6997
  147SAPE   H3X16250   4.710   2.551  10.448  1.7263 -0.1963 -0.8957
  147SAPE   H3Y16251   4.699   2.629  10.290  0.1171  0.6469  1.4737
  147SAPE   C3416252   4.623   2.413  10.317 -0.1732  0.6442 -0.4016
  147SAPE   H4X16253   4.574   2.360  10.402  1.1759  1.5414  0.9938
  147SAPE   H4Y16254   4.722   2.364  10.321  0.9145  2.6180 -1.6734
  147SAPE   C3516255   4.551   2.376  10.186  0.0588 -0.1273 -0.1452
  147SAPE   H5X16256   4.444   2.404  10.201  0.3827  1.3608 -0.3909
  147SAPE   H5Y16257   4.549   2.265  10.181  0.2902 -0.1605  0.4013
  147SAPE   C3616258   4.594   2.443  10.054  0.1036 -0.5291 -0.2764
  147SAPE   H6X16259   4.695   2.405  10.027  0.4537 -0.3464  0.7371
  147SAPE   H6Y16260   4.607   2.552  10.074  0.6597 -0.6049 -0.2152
  147SAPE   C3716261   4.498   2.420   9.941 -0.4859  0.0430  0.2740
  147SAPE   H7X16262   4.396   2.458   9.960 -0.4895  0.8438 -1.1896
  147SAPE   H7Y16263   4.479   2.311   9.928  0.7179 -0.2332  0.6946
  147SAPE   C3816264   4.555   2.483   9.810 -0.0965  0.6409 -0.3231
  147SAPE   H8X16265   4.654   2.435   9.792  1.3921  1.4966  4.2140
  147SAPE   H8Y16266   4.567   2.593   9.821  2.1708  0.4837 -0.6412
  147SAPE   C3916267   4.467   2.463   9.685  0.0883  0.2565 -0.0906
  147SAPE   H9X16268   4.369   2.504   9.716 -0.3089 -0.7176 -0.0353
  147SAPE   H9Y16269   4.464   2.352   9.674  0.7547  0.4342 -2.6865
  147SAPE  C31016270   4.520   2.533   9.558 -0.4046  0.1203 -0.1432
  147SAPE  H10X16271   4.622   2.494   9.536 -0.6009  0.2599 -1.4144
  147SAPE  H10Y16272   4.526   2.641   9.582 -0.5709  0.2928 -0.8538
  147SAPE  C31116273   4.423   2.521   9.445 -0.2126 -0.0441  0.0444
  147SAPE  H11X16274   4.349   2.600   9.465  0.0975 -0.0013  1.0664
  147SAPE  H11Y16275   4.371   2.423   9.436  1.1748 -1.0166  1.8966
  147SAPE  C31216276   4.487   2.548   9.309  0.1389 -0.3310  0.4905
  147SAPE  H12X16277   4.566   2.471   9.299 -0.8359 -1.2534 -0.2433
  147SAPE  H12Y16278   4.526   2.652   9.301 -1.7163  0.4337  1.0020
  147SAPE  C31316279   4.389   2.528   9.193 -1.0989  0.3610 -0.7517
  147SAPE  H13X16280   4.308   2.600   9.215  1.5110  2.8327  1.5252
  147SAPE  H13Y16281   4.344   2.426   9.195 -0.6958  0.1431 -1.9796
  147SAPE  C31416282   4.455   2.549   9.055 -0.9869  0.1457 -0.0136
  147SAPE  H14X16283   4.534   2.473   9.038  0.5603  1.8084 -0.6258
  147SAPE  H14Y16284   4.506   2.648   9.055  0.4743 -0.5696  0.3152
  147SAPE  C31516285   4.368   2.549   8.928 -0.0937  0.6316 -0.4827
  147SAPE  H15X16286   4.429   2.538   8.836  0.0172 -0.8829 -0.2620
  147SAPE  H15Y16287   4.327   2.648   8.902  0.1222  1.0289  0.6343
  147SAPE  C31616288   4.247   2.454   8.913 -0.1536 -1.0700 -0.5712
  147SAPE  H16X16289   4.182   2.474   8.825 -0.6771  1.7710  0.3301
  147SAPE  H16Y16290   4.191   2.474   9.007 -0.5059 -2.3267 -0.4947
  147SAPE  C31716291   4.271   2.302   8.900 -0.1831 -0.2474  0.8081
  147SAPE  H17X16292   4.186   2.236   8.928  0.0436 -1.4195 -1.1150
  147SAPE  H17Y16293   4.349   2.288   8.978  1.5112 -0.5321 -0.8773
  147SAPE  C31816294   4.328   2.270   8.767 -0.0029 -0.2775  0.0515
  147SAPE  H18X16295   4.408   2.345   8.747 -1.3289  0.8026 -1.4888
  147SAPE  H18Y16296   4.250   2.284   8.689  1.1814  4.3420 -0.6132
  147SAPE  H18Z16297   4.366   2.166   8.766 -1.2068 -0.7333 -0.2215
  148SAPE     N16298   5.810   4.488  10.405  0.6334  0.2355 -0.3021
  148SAPE   HN116299   5.883   4.428  10.446  0.2384  0.0238  0.0996
  148SAPE   HN216300   5.849   4.538  10.322 -0.1158  1.0239 -0.2032
  148SAPE   HN316301   5.777   4.556  10.477  2.0600 -0.3190  0.9232
  148SAPE   C1216302   5.695   4.399  10.355 -0.4124 -0.4659  0.7156
  148SAPE  H12A16303   5.661   4.334  10.438 -1.1845  0.0474  0.8079
  148SAPE  H12B16304   5.744   4.332  10.280  2.4346  0.6796  1.3997
  148SAPE   C1116305   5.590   4.487  10.287  0.3556 -0.1414  0.0550
  148SAPE  H11A16306   5.513   4.420  10.243  0.3644 -0.0947 -0.0317
  148SAPE  H11B16307   5.624   4.552  10.204  2.6602  1.1997  1.9238
  148SAPE     P16308   5.395   4.563  10.456  0.0464  0.5198  0.1327
  148SAPE   O1316309   5.409   4.441  10.539 -0.1633  0.4580 -0.4497
  148SAPE   O1416310   5.355   4.688  10.524 -0.3981 -0.1412 -0.6052
  148SAPE   O1216311   5.527   4.578  10.378 -0.1431  0.2488 -0.6958
  148SAPE   O1116312   5.286   4.528  10.347 -0.3526  0.2651  0.5492
  148SAPE    C116313   5.262   4.621  10.244  0.1424 -0.7913  0.5350
  148SAPE    HA16314   5.256   4.723  10.288 -2.1021 -1.4372  1.9217
  148SAPE    HB16315   5.343   4.611  10.169 -1.5837  0.6218 -1.6533
  148SAPE    C216316   5.130   4.597  10.165 -0.3886  0.1031 -0.6724
  148SAPE    HS16317   5.053   4.599  10.245  0.0420  1.8257 -0.2631
  148SAPE   O2116318   5.140   4.471  10.097 -0.3333 -0.7143 -1.0003
  148SAPE   C2116319   5.030   4.409  10.073  0.4072 -0.2224 -0.4305
  148SAPE   O2216320   4.914   4.447  10.088 -0.4588 -0.1034  0.1646
  148SAPE   C2216321   5.072   4.276  10.008  0.3309  0.4007  0.2983
  148SAPE   H2R16322   5.153   4.298   9.936 -1.3194  1.1081 -1.4150
  148SAPE   H2S16323   5.120   4.228  10.096  0.0320  2.0788  1.4283
  148SAPE    C316324   5.109   4.723  10.068 -0.4542 -0.3350 -0.6243
  148SAPE    HX16325   5.190   4.707   9.994 -1.0919  0.5869 -1.5667
  148SAPE    HY16326   5.135   4.819  10.118  0.2796  0.1716 -1.9325
  148SAPE   O3116327   4.982   4.724  10.002  0.3012 -0.1645 -0.3838
  148SAPE   C3116328   4.891   4.787  10.084 -0.5294 -0.1318  0.5255
  148SAPE   O3216329   4.918   4.826  10.197 -0.5000  0.3989 -0.1189
  148SAPE   C3216330   4.754   4.817  10.027  0.6932  0.0872 -0.7543
  148SAPE   H2X16331   4.688   4.863  10.104 -0.9390 -0.2178 -1.9160
  148SAPE   H2Y16332   4.709   4.720   9.996 -0.8641  1.0372 -1.6384
  148SAPE   C2316333   4.954   4.193   9.939 -0.4649  0.4124  0.1056
  148SAPE   H3R16334   4.880   4.174  10.020  0.4469 -3.3863  0.2578
  148SAPE   H3S16335   4.992   4.095   9.904  1.9153  1.1884  0.3439
  148SAPE   C2416336   4.894   4.264   9.816  0.5144 -0.1520 -0.2675
  148SAPE   H4R16337   4.868   4.366   9.853 -2.6401 -0.7265 -0.5880
  148SAPE   H4S16338   4.799   4.209   9.797  0.0653  0.2281  0.8299
  148SAPE   C2516339   4.970   4.263   9.690 -0.4727  0.0800  0.1390
  148SAPE   H5R16340   4.958   4.172   9.629  1.6882 -0.1784  0.0087
  148SAPE   C2616341   5.040   4.370   9.639 -0.1768  0.2581  0.2377
  148SAPE   H6R16342   5.089   4.359   9.541  2.2130 -0.6136  1.4465
  148SAPE   C2716343   5.065   4.514   9.698  0.1161 -0.4912  0.6973
  148SAPE   H7R16344   5.174   4.532   9.693  0.1777 -1.1188 -1.6486
  148SAPE   H7S16345   5.042   4.517   9.807 -0.8399 -0.4085  0.5022
  148SAPE   C2816346   4.984   4.615   9.621 -0.1126 -0.7994  0.8529
  148SAPE   H8R16347   4.888   4.647   9.665 -1.3999 -1.6272 -1.2135
  148SAPE   C2916348   5.008   4.659   9.495  0.0369  0.5760 -0.3725
  148SAPE   H9R16349   4.939   4.728   9.444 -0.1816  1.6498  1.2931
  148SAPE  C21016350   5.124   4.610   9.406  0.5663 -0.4627  0.5029
  148SAPE  H10R16351   5.213   4.591   9.469  0.9094  3.1631  1.3247
  148SAPE  H10S16352   5.150   4.695   9.339 -2.5136 -0.5822 -1.0543
  148SAPE  C21116353   5.073   4.497   9.306 -0.6270 -0.3538 -0.7103
  148SAPE  H11R16354   5.039   4.404   9.352  4.5117 -1.1314  2.3695
  148SAPE  C21216355   5.070   4.505   9.171 -0.3168 -0.5970  0.0198
  148SAPE  H12R16356   5.050   4.419   9.105  2.8932 -0.8370 -0.7940
  148SAPE  C21316357   5.112   4.625   9.089  0.8140 -0.0766  0.0601
  148SAPE  H13R16358   5.223   4.616   9.088  0.7469 -0.9225 -0.2649
  148SAPE  H13S16359   5.106   4.717   9.151  1.3232 -0.9661  1.4954
  148SAPE  C21416360   5.050   4.622   8.953 -0.4156  0.5391 -0.8202
  148SAPE  H14R16361   4.941   4.613   8.946 -0.4715 -0.9080  1.2056
  148SAPE  C21516362   5.118   4.634   8.843  0.5650  0.4603  0.2322
  148SAPE  H15R16363   5.063   4.633   8.747 -1.1456  0.1169  1.1699
  148SAPE  C21616364   5.267   4.651   8.835 -0.3648 -0.8808 -1.3317
  148SAPE  H16R16365   5.310   4.557   8.794 -0.8892 -1.7790  0.1116
  148SAPE  H16S16366   5.328   4.666   8.927  1.2124 -2.3411 -2.0660
  148SAPE  C21716367   5.305   4.760   8.739 -0.0631  0.1738 -0.0417
  148SAPE  H17R16368   5.254   4.735   8.644  0.8625 -1.0299 -0.2484
  148SAPE  H17S16369   5.413   4.745   8.718 -0.1909 -0.9843  0.0576
  148SAPE  C21816370   5.278   4.905   8.792 -0.3010 -0.1094 -0.0879
  148SAPE  H18R16371   5.338   4.926   8.883  1.3362 -2.9976 -0.3429
  148SAPE  H18S16372   5.171   4.917   8.815 -0.5811 -0.1763 -1.2782
  148SAPE  C21916373   5.315   5.015   8.699 -0.0837 -0.1142  0.4380
  148SAPE  H19R16374   5.270   5.106   8.745  0.8549  0.5034  0.1611
  148SAPE  H19S16375   5.281   5.004   8.594  1.0024 -0.4068  0.1035
  148SAPE  C22016376   5.459   5.046   8.694 -0.9025  0.7561  0.4603
  148SAPE  H20R16377   5.517   4.960   8.655 -3.1420 -0.9176  0.6220
  148SAPE  H20S16378   5.514   5.070   8.787 -0.7410  1.0156  0.3018
  148SAPE  H20T16379   5.489   5.125   8.621  0.4049 -0.8227 -0.7931
  148SAPE   C3316380   4.767   4.905   9.893  0.4778  0.2016  0.8461
  148SAPE   H3X16381   4.845   4.875   9.820 -0.9952 -0.1552 -0.6338
  148SAPE   H3Y16382   4.793   5.011   9.917  3.8655 -0.7083  1.6943
  148SAPE   C3416383   4.636   4.899   9.806  0.3311  0.0056  0.3737
  148SAPE   H4X16384   4.558   4.960   9.858  0.4747 -0.4243  1.1022
  148SAPE   H4Y16385   4.606   4.792   9.809 -1.5086  0.4579 -0.0732
  148SAPE   C3516386   4.650   4.961   9.666 -0.0682  0.0549  0.4080
  148SAPE   H5X16387   4.752   4.932   9.634  0.5468  1.1893  1.2604
  148SAPE   H5Y16388   4.647   5.072   9.662  2.2652  0.1421 -2.9695
  148SAPE   C3616389   4.544   4.914   9.564 -0.1710  1.3503 -0.1627
  148SAPE   H6X16390   4.444   4.952   9.593  1.1872  2.0698  4.2556
  148SAPE   H6Y16391   4.557   4.805   9.577 -2.3524  0.9233 -1.1157
  148SAPE   C3716392   4.583   4.941   9.419  0.1855 -0.1073  0.5109
  148SAPE   H7X16393   4.670   4.878   9.392 -0.9581 -1.7606  0.4912
  148SAPE   H7Y16394   4.602   5.050   9.416 -0.7164  0.0398 -2.5987
  148SAPE   C3816395   4.467   4.907   9.323  0.1221 -0.3493 -0.1734
  148SAPE   H8X16396   4.386   4.978   9.351 -1.9373 -2.3326 -0.7770
  148SAPE   H8Y16397   4.422   4.806   9.338 -2.0003  0.6464  0.6371
  148SAPE   C3916398   4.499   4.925   9.178  0.0686  0.7071  0.3730
  148SAPE   H9X16399   4.581   4.858   9.146  0.1930 -0.6516  3.2228
  148SAPE   H9Y16400   4.534   5.028   9.157 -1.9138  1.5418  0.8911
  148SAPE  C31016401   4.373   4.905   9.093  0.0630 -0.9918  0.3328
  148SAPE  H10X16402   4.382   4.985   9.017  0.9768 -0.6709  0.7644
  148SAPE  H10Y16403   4.282   4.928   9.153  0.8562  4.4054 -0.0651
  148SAPE  C31116404   4.363   4.763   9.039 -0.1741 -0.8120 -0.1189
  148SAPE  H11X16405   4.399   4.689   9.113  2.2028 -0.0070 -0.3688
  148SAPE  H11Y16406   4.430   4.751   8.951 -0.8511  0.1072 -0.7774
  148SAPE  C31216407   4.220   4.727   8.982  0.0330  0.0735 -0.3729
  148SAPE  H12X16408   4.152   4.759   9.065  2.5853 -1.0450  2.3524
  148SAPE  H12Y16409   4.208   4.617   8.979  0.9367 -0.1190  1.3067
  148SAPE  C31316410   4.175   4.786   8.850  0.4167 -0.0641 -0.0863
  148SAPE  H13X16411   4.248   4.769   8.768 -0.7544 -2.4873 -0.7324
  148SAPE  H13Y16412   4.152   4.894   8.851 -0.6496 -0.2649  1.9557
  148SAPE  C31416413   4.044   4.719   8.803  0.2601 -0.2463  1.1584
  148SAPE  H14X16414   4.061   4.609   8.812 -2.6203 -0.9193 -0.4545
  148SAPE  H14Y16415   4.027   4.750   8.698 -0.6602 -0.5835  1.1977
  148SAPE  C31516416   3.922   4.751   8.887 -0.9449  0.2199  0.3444
  148SAPE  H15X16417   3.924   4.862   8.890 -2.1199  0.3833 -2.2486
  148SAPE  H15Y16418   3.933   4.707   8.988  0.6088  0.0144  0.1097
  148SAPE  C31616419   3.788   4.700   8.837  0.7424 -0.0803  0.5875
  148SAPE  H16X16420   3.704   4.726   8.905  1.3498 -0.3569  1.4667
  148SAPE  H16Y16421   3.786   4.590   8.846 -2.5013 -0.0189  1.9182
  148SAPE  C31716422   3.756   4.737   8.689 -0.6905  0.2213  0.3766
  148SAPE  H17X16423   3.675   4.669   8.654 -0.7142 -0.2932  1.4054
  148SAPE  H17Y16424   3.843   4.713   8.624 -0.6993 -0.7827  0.7170
  148SAPE  C31816425   3.713   4.886   8.679  0.6142  0.0294  0.2733
  148SAPE  H18X16426   3.608   4.902   8.710  0.0139 -3.2842  0.2850
  148SAPE  H18Y16427   3.712   4.915   8.572 -1.5616 -1.1199 -0.0777
  148SAPE  H18Z16428   3.786   4.948   8.736  0.8517  0.4837 -0.5168
  149SAPE     N16429   0.636   0.056  10.993 -0.4345  0.2366 -0.0765
  149SAPE   HN116430   0.669  -0.042  11.007  0.3496  0.8827  3.8801
  149SAPE   HN216431   0.724   0.112  10.986 -0.0243 -0.1090  1.7844
  149SAPE   HN316432   0.590   0.085  11.081  0.6384  2.4257 -0.1551
  149SAPE   C1216433   0.533   0.054  10.878 -0.7050  0.6019  0.9290
  149SAPE  H12A16434   0.437   0.020  10.923 -0.5193 -0.7885  0.3238
  149SAPE  H12B16435   0.576  -0.010  10.798 -1.8317  1.4497 -0.4234
  149SAPE   C1116436   0.527   0.186  10.803 -0.0515  0.3853 -0.0891
  149SAPE  H11A16437   0.463   0.169  10.714 -3.0241  1.2736  1.7277
  149SAPE  H11B16438   0.635   0.210  10.789  0.0899  1.0016  1.7447
  149SAPE     P16439   0.489   0.431  10.843 -0.2292  0.1719 -0.2034
  149SAPE   O1316440   0.410   0.516  10.939 -0.1858  0.8265 -0.2362
  149SAPE   O1416441   0.632   0.444  10.838  0.0906 -0.0612 -0.4293
  149SAPE   O1216442   0.461   0.285  10.886 -0.0946  0.0534  0.3812
  149SAPE   O1116443   0.431   0.439  10.696  0.0351 -0.0601 -0.4596
  149SAPE    C116444   0.290   0.450  10.663  0.5897 -0.5132  0.0254
  149SAPE    HA16445   0.213   0.432  10.742 -0.2059  1.4611 -0.2310
  149SAPE    HB16446   0.259   0.554  10.637  0.6025  0.5548  3.7577
  149SAPE    C216447   0.262   0.356  10.536 -0.0204 -1.2702 -0.0631
  149SAPE    HS16448   0.170   0.394  10.487 -0.6927 -1.2025  1.1930
  149SAPE   O2116449   0.249   0.218  10.574 -0.1587 -0.4117 -0.0315
  149SAPE   C2116450   0.121   0.185  10.609  0.1010 -0.3537 -0.3269
  149SAPE   O2216451   0.029   0.264  10.625  0.7063  0.5622 -0.4021
  149SAPE   C2216452   0.106   0.028  10.623 -0.6079  0.3021  0.3820
  149SAPE   H2R16453   0.171  -0.018  10.546  0.7481  2.5087  0.1280
  149SAPE   H2S16454   0.147   0.005  10.724 -0.4390  2.9979  1.0113
  149SAPE    C316455   0.379   0.372  10.439 -0.5247 -0.0034 -0.6824
  149SAPE    HX16456   0.455   0.297  10.469  1.4266  1.9139 -0.6189
  149SAPE    HY16457   0.424   0.473  10.431 -1.8855  0.7004  0.0953
  149SAPE   O3116458   0.321   0.342  10.309 -0.0651 -0.2355 -0.3442
  149SAPE   C3116459   0.408   0.308  10.219  0.1427 -0.2545  0.0297
  149SAPE   O3216460   0.526   0.311  10.231  0.5294  0.2054 -0.0831
  149SAPE   C3216461   0.339   0.260  10.093  1.2670 -0.0823  0.4243
  149SAPE   H2X16462   0.287   0.348  10.047  2.7996  0.6174 -0.0616
  149SAPE   H2Y16463   0.267   0.181  10.123  1.6865 -0.4082  0.5777
  149SAPE   C2316464  -0.036  -0.025  10.600  0.1288  0.1890 -0.0749
  149SAPE   H3R16465  -0.103   0.058  10.633  1.7593  1.9419 -0.9786
  149SAPE   H3S16466  -0.052  -0.116  10.662 -0.8319  0.9984  0.8933
  149SAPE   C2416467  -0.065  -0.049  10.455  0.3017  0.4931 -0.0379
  149SAPE   H4R16468  -0.022   0.039  10.403  1.5167  0.1603  0.3554
  149SAPE   H4S16469  -0.176  -0.052  10.459  0.3269 -2.2714  1.1276
  149SAPE   C2516470  -0.021  -0.185  10.419  0.8192  0.8711 -0.2068
  149SAPE   H5R16471  -0.019  -0.265  10.495  2.2578 -0.4456 -1.5457
  149SAPE   C2616472  -0.006  -0.219  10.293 -0.7470  0.5297  0.1812
  149SAPE   H6R16473   0.033  -0.319  10.270 -0.8460 -0.1131  2.6024
  149SAPE   C2716474  -0.011  -0.120  10.180 -0.1100  0.0674 -0.2363
  149SAPE   H7R16475   0.018  -0.017  10.213 -1.1111  0.0599  0.7258
  149SAPE   H7S16476  -0.119  -0.111  10.158 -0.7205 -1.5072  1.8272
  149SAPE   C2816477   0.077  -0.157  10.061 -0.3450 -0.8770  0.1931
  149SAPE   H8R16478   0.158  -0.228  10.084  1.5311  1.3641  0.8737
  149SAPE   C2916479   0.054  -0.121   9.929  0.7352 -0.2411 -0.1608
  149SAPE   H9R16480   0.118  -0.159   9.849  1.8187 -0.2827  0.7003
  149SAPE  C21016481  -0.065  -0.037   9.885  0.0573 -0.5942 -0.7607
  149SAPE  H10R16482  -0.042   0.007   9.786  0.1772  2.4802  0.5123
  149SAPE  H10S16483  -0.081   0.049   9.954 -0.0079 -0.9017 -0.3895
  149SAPE  C21116484  -0.197  -0.110   9.879 -0.7334  0.0190  0.4302
  149SAPE  H11R16485  -0.237  -0.133   9.979  0.3144  1.9002  1.3475
  149SAPE  C21216486  -0.275  -0.151   9.773 -0.8642 -0.2420  0.2678
  149SAPE  H12R16487  -0.351  -0.226   9.797 -1.1562 -1.2655 -3.2356
  149SAPE  C21316488  -0.244  -0.130   9.623 -0.0675  0.0348 -0.9284
  149SAPE  H13R16489  -0.172  -0.210   9.596 -0.4290 -0.2469 -1.0635
  149SAPE  H13S16490  -0.196  -0.032   9.602 -0.3605  0.2368 -0.6686
  149SAPE  C21416491  -0.374  -0.144   9.535 -0.3215 -0.3442 -0.3939
  149SAPE  H14R16492  -0.469  -0.143   9.590 -0.0448  2.0743  0.1475
  149SAPE  C21516493  -0.367  -0.140   9.403  0.5852 -0.0103  0.2402
  149SAPE  H15R16494  -0.468  -0.148   9.360  0.2109 -0.8126  1.2119
  149SAPE  C21616495  -0.245  -0.125   9.310 -0.5962 -0.3869 -0.2371
  149SAPE  H16R16496  -0.157  -0.102   9.375 -1.1614  1.1415  0.0349
  149SAPE  H16S16497  -0.262  -0.028   9.259 -0.5706 -0.6041 -0.6569
  149SAPE  C21716498  -0.219  -0.230   9.202 -0.3393  0.8956 -0.2407
  149SAPE  H17R16499  -0.314  -0.242   9.145  1.0665  1.4531 -2.8983
  149SAPE  H17S16500  -0.204  -0.329   9.248  0.2127  0.3223 -1.5950
  149SAPE  C21816501  -0.108  -0.208   9.098 -0.0213  0.4267  0.8084
  149SAPE  H18R16502  -0.120  -0.107   9.053  2.3339 -0.3754 -1.9192
  149SAPE  H18S16503  -0.115  -0.273   9.008 -1.6176  2.8183 -0.9108
  149SAPE  C21916504   0.038  -0.205   9.153  1.1658 -0.3475 -0.8111
  149SAPE  H19R16505   0.042  -0.146   9.247 -0.7857 -1.8464  0.2921
  149SAPE  H19S16506   0.100  -0.143   9.085  1.5090 -0.8760 -0.9833
  149SAPE  C22016507   0.083  -0.352   9.176  0.1751  0.1993  0.0266
  149SAPE  H20R16508   0.053  -0.412   9.087  0.2908  1.7518 -1.1150
  149SAPE  H20S16509   0.034  -0.386   9.269  0.4196  1.1085  0.5057
  149SAPE  H20T16510   0.190  -0.352   9.206 -0.9240 -2.1999  4.8617
  149SAPE   C3316511   0.442   0.200   9.986 -0.0977  0.0812  0.0094
  149SAPE   H3X16512   0.511   0.127  10.033 -0.1376  1.2009  1.9080
  149SAPE   H3Y16513   0.500   0.288   9.952 -0.2364  0.1020 -0.1748
  149SAPE   C3416514   0.363   0.127   9.864  0.4127 -0.0578 -0.0520
  149SAPE   H4X16515   0.269   0.185   9.856  0.7853  0.4334 -1.1581
  149SAPE   H4Y16516   0.344   0.022   9.893 -0.8760 -0.0744 -0.9147
  149SAPE   C3516517   0.426   0.135   9.728  0.3547 -0.6205 -0.2663
  149SAPE   H5X16518   0.520   0.076   9.738  0.6774  0.0473  0.8216
  149SAPE   H5Y16519   0.440   0.245   9.720  0.3336 -0.5310  0.7771
  149SAPE   C3616520   0.344   0.069   9.613 -0.0628 -0.2457 -0.4791
  149SAPE   H6X16521   0.246   0.115   9.589 -0.0644  0.1037  0.1518
  149SAPE   H6Y16522   0.320  -0.035   9.643  0.2450 -0.3032 -0.4206
  149SAPE   C3716523   0.431   0.065   9.486  0.3434  0.1280 -0.0396
  149SAPE   H7X16524   0.536   0.036   9.506 -0.1198 -0.7818  1.1919
  149SAPE   H7Y16525   0.424   0.163   9.434  0.3364 -0.0277 -0.3315
  149SAPE   C3816526   0.376  -0.042   9.385  0.5701 -0.3906 -0.5633
  149SAPE   H8X16527   0.267  -0.027   9.368  0.7144 -0.4324 -1.5871
  149SAPE   H8Y16528   0.377  -0.145   9.427  1.0173  0.2667  1.1560
  149SAPE   C3916529   0.454  -0.048   9.258  0.0389  0.0818  0.7451
  149SAPE   H9X16530   0.550  -0.100   9.273  0.1302  0.4654  1.4919
  149SAPE   H9Y16531   0.484   0.054   9.223  1.5169 -1.2122 -2.1341
  149SAPE  C31016532   0.374  -0.112   9.138  0.3231 -0.3023  0.1425
  149SAPE  H10X16533   0.278  -0.056   9.142  0.5295  0.0077  0.9560
  149SAPE  H10Y16534   0.347  -0.218   9.159 -0.6617 -0.1801 -0.4698
  149SAPE  C31116535   0.444  -0.117   9.002 -0.5105  0.1714 -0.5476
  149SAPE  H11X16536   0.496  -0.022   8.978  1.3847 -0.5950  0.3298
  149SAPE  H11Y16537   0.368  -0.133   8.922 -2.0785 -0.3751  0.9804
  149SAPE  C31216538   0.546  -0.236   8.990  0.1580  0.1884 -0.0833
  149SAPE  H12X16539   0.497  -0.336   8.984  2.4825 -0.9977 -0.2861
  149SAPE  H12Y16540   0.616  -0.229   9.076 -0.7147  1.3209  0.5554
  149SAPE  C31316541   0.637  -0.200   8.861  0.0748  0.4017 -0.7039
  149SAPE  H13X16542   0.683  -0.102   8.884 -1.4794  0.9038  0.5035
  149SAPE  H13Y16543   0.561  -0.197   8.779  0.4148  2.7365 -0.9868
  149SAPE  C31416544   0.742  -0.303   8.831 -0.0487  0.5683  0.4694
  149SAPE  H14X16545   0.822  -0.291   8.906  1.1175  0.6740 -0.7611
  149SAPE  H14Y16546   0.773  -0.304   8.724 -0.5491 -1.5417  0.2931
  149SAPE  C31516547   0.686  -0.448   8.840  0.6677 -0.3756  0.2201
  149SAPE  H15X16548   0.597  -0.465   8.774 -0.4810  2.3464  0.9598
  149SAPE  H15Y16549   0.656  -0.487   8.940  2.1195 -3.3324 -0.3666
  149SAPE  C31616550   0.795  -0.556   8.803  0.2635  0.9070 -0.6778
  149SAPE  H16X16551   0.884  -0.555   8.869 -0.6777  1.4245  0.6312
  149SAPE  H16Y16552   0.824  -0.533   8.698 -0.6680 -1.1576 -1.4414
  149SAPE  C31716553   0.746  -0.703   8.811 -0.3235  0.1747  0.6360
  149SAPE  H17X16554   0.796  -0.751   8.725 -1.5549  1.3081 -0.7728
  149SAPE  H17Y16555   0.638  -0.702   8.783  0.2905 -0.3140 -2.0795
  149SAPE  C31816556   0.786  -0.770   8.937 -0.0298  0.1941  0.3497
  149SAPE  H18X16557   0.894  -0.782   8.959 -0.2878 -1.0578  1.0039
  149SAPE  H18Y16558   0.753  -0.876   8.931 -1.6275  0.6568  0.4717
  149SAPE  H18Z16559   0.734  -0.731   9.027 -0.9591 -0.3907  0.0787
  150SAPE     N16560   2.315   5.286  10.751  0.0377  0.0903 -0.4903
  150SAPE   HN116561   2.385   5.319  10.821  0.0203  1.0325 -0.9026
  150SAPE   HN216562   2.270   5.195  10.776 -1.4726  1.1025  0.6914
  150SAPE   HN316563   2.349   5.273  10.654  0.7650 -0.9945 -0.1164
  150SAPE   C1216564   2.203   5.387  10.751  0.2875  0.0783  0.6689
  150SAPE  H12A16565   2.251   5.482  10.721  1.1867 -0.4309  0.4602
  150SAPE  H12B16566   2.160   5.399  10.852 -0.0713  0.2607  0.4959
  150SAPE   C1116567   2.089   5.340  10.658  0.0769  0.6713 -0.0892
  150SAPE  H11A16568   2.140   5.332  10.559  1.0336  0.6487  0.3885
  150SAPE  H11B16569   2.016   5.423  10.657 -1.4184 -0.4418 -3.9956
  150SAPE     P16570   1.901   5.176  10.732 -0.1845 -0.2564 -0.0213
  150SAPE   O1316571   1.885   5.034  10.779 -0.0623  0.0282  0.2718
  150SAPE   O1416572   1.856   5.287  10.824  0.6651  0.0652  0.0711
  150SAPE   O1216573   2.051   5.207  10.694  0.1030 -0.3802  0.5837
  150SAPE   O1116574   1.833   5.194  10.592  0.1748 -0.5054 -0.6055
  150SAPE    C116575   1.691   5.222  10.567 -0.0920 -0.0100 -0.4225
  150SAPE    HA16576   1.642   5.126  10.541  0.7444 -0.7835  0.7807
  150SAPE    HB16577   1.640   5.251  10.662  0.9757 -2.2105  0.9103
  150SAPE    C216578   1.665   5.330  10.451 -0.6818  0.0188  0.3120
  150SAPE    HS16579   1.556   5.345  10.432 -0.5092 -1.5959 -2.5538
  150SAPE   O2116580   1.733   5.278  10.334  0.3833 -0.3041 -0.0784
  150SAPE   C2116581   1.650   5.204  10.258  0.7258  0.5044  0.4225
  150SAPE   O2216582   1.538   5.174  10.284  0.4387  0.2270 -0.7483
  150SAPE   C2216583   1.720   5.179  10.120  0.1134 -0.2142 -0.3297
  150SAPE   H2R16584   1.718   5.277  10.068  0.6959 -0.9209 -1.7594
  150SAPE   H2S16585   1.821   5.134  10.121  0.2065 -0.0539 -1.1964
  150SAPE    C316586   1.722   5.473  10.477 -1.1004 -0.1839  0.3685
  150SAPE    HX16587   1.827   5.453  10.509 -0.2242  2.0089 -0.8758
  150SAPE    HY16588   1.668   5.511  10.567 -1.3961  4.4747 -1.4893
  150SAPE   O3116589   1.712   5.568  10.370  0.1794  0.4634  0.5187
  150SAPE   C3116590   1.590   5.623  10.352 -0.3492  0.1352  0.2619
  150SAPE   O3216591   1.493   5.603  10.426  0.6561  0.3590 -0.3143
  150SAPE   C3216592   1.596   5.708  10.226  0.4584 -0.6183  0.4235
  150SAPE   H2X16593   1.672   5.787  10.247 -1.5177  1.4845  0.0687
  150SAPE   H2Y16594   1.497   5.752  10.205  1.2945 -0.4468 -4.2631
  150SAPE   C2316595   1.649   5.077  10.030 -0.2989  0.0541 -0.1890
  150SAPE   H3R16596   1.543   5.106  10.015 -0.3629 -0.5688 -1.0246
  150SAPE   H3S16597   1.646   4.970  10.061 -2.0693 -0.5112 -2.0979
  150SAPE   C2416598   1.706   5.077   9.880  0.1129  0.8477 -0.3042
  150SAPE   H4R16599   1.666   5.168   9.831 -0.3466  0.8258  0.0263
  150SAPE   H4S16600   1.656   5.006   9.810 -0.6295  1.4986 -0.4465
  150SAPE   C2516601   1.855   5.051   9.845 -0.0677  0.0197 -0.5623
  150SAPE   H5R16602   1.895   4.950   9.862  1.8756  0.9418  0.7524
  150SAPE   C2616603   1.951   5.137   9.808 -0.1248 -0.2240 -0.2672
  150SAPE   H6R16604   2.052   5.094   9.795  0.7688  1.4263  0.8093
  150SAPE   C2716605   1.945   5.288   9.789 -0.1088 -0.5533 -0.0900
  150SAPE   H7R16606   1.848   5.317   9.744 -0.6579 -0.5090  1.0634
  150SAPE   H7S16607   2.011   5.322   9.707 -1.5413  1.1098 -0.6031
  150SAPE   C2816608   1.975   5.376   9.907 -0.5248  0.2403 -0.4744
  150SAPE   H8R16609   1.909   5.346   9.990  0.8367  2.4200  1.5176
  150SAPE   C2916610   2.056   5.476   9.930 -0.2955 -0.4125 -1.1072
  150SAPE   H9R16611   2.052   5.500  10.037 -0.9885 -0.6077 -1.0828
  150SAPE  C21016612   2.146   5.560   9.839 -0.0461  0.1898  0.3173
  150SAPE  H10R16613   2.088   5.644   9.796  0.0617 -1.3056 -3.0967
  150SAPE  H10S16614   2.173   5.498   9.750  0.5884  0.8305  0.0493
  150SAPE  C21116615   2.263   5.621   9.902  0.0952 -0.0119 -0.7474
  150SAPE  H11R16616   2.263   5.623  10.012  0.2804  0.5351 -0.7520
  150SAPE  C21216617   2.369   5.667   9.836 -0.5471  0.0162  0.7658
  150SAPE  H12R16618   2.459   5.713   9.880  0.6689 -1.5867  0.0281
  150SAPE  C21316619   2.386   5.658   9.691  0.0849 -0.2443  0.0777
  150SAPE  H13R16620   2.288   5.660   9.640  0.3118  0.1179 -0.3568
  150SAPE  H13S16621   2.421   5.557   9.659  0.6481  0.0023 -0.1104
  150SAPE  C21416622   2.476   5.765   9.623  0.0808 -0.0550  0.3054
  150SAPE  H14R16623   2.511   5.853   9.678  0.6078 -1.1360  1.7615
  150SAPE  C21516624   2.523   5.762   9.494  0.5962 -0.1012  0.1408
  150SAPE  H15R16625   2.583   5.844   9.453 -0.8480  0.6806 -0.4982
  150SAPE  C21616626   2.498   5.645   9.401 -0.2733 -0.6234  0.0510
  150SAPE  H16R16627   2.448   5.561   9.453 -0.8323 -1.1162 -1.2291
  150SAPE  H16S16628   2.599   5.611   9.372  0.8939 -0.1032  3.1842
  150SAPE  C21716629   2.413   5.688   9.277  1.5054 -0.4388  0.6231
  150SAPE  H17R16630   2.460   5.772   9.220  1.2217  0.3558  1.5427
  150SAPE  H17S16631   2.309   5.719   9.297  1.6870  0.4188  0.2830
  150SAPE  C21816632   2.395   5.565   9.188  0.2620  0.2275 -0.3313
  150SAPE  H18R16633   2.318   5.495   9.228 -0.1120 -0.4451 -2.1582
  150SAPE  H18S16634   2.490   5.509   9.180  0.7154  0.9795 -0.3205
  150SAPE  C21916635   2.345   5.601   9.039 -0.1549  0.1304  0.2376
  150SAPE  H19R16636   2.433   5.654   8.997  0.3909  1.0519  2.4446
  150SAPE  H19S16637   2.258   5.669   9.053  0.8127  0.8521  3.6091
  150SAPE  C22016638   2.308   5.475   8.955  0.0503 -0.2571 -0.1762
  150SAPE  H20R16639   2.288   5.502   8.849  3.0129 -0.8051 -0.9699
  150SAPE  H20S16640   2.213   5.438   8.997 -0.8141  1.6746 -0.3073
  150SAPE  H20T16641   2.388   5.399   8.967  0.5305 -0.1668 -2.3552
  150SAPE   C3316642   1.631   5.621  10.099  0.5787  0.4831 -0.7980
  150SAPE   H3X16643   1.565   5.531  10.103  1.7731 -0.3823  0.9050
  150SAPE   H3Y16644   1.732   5.574  10.095 -0.8674 -3.0460  0.0619
  150SAPE   C3416645   1.584   5.677   9.960 -0.3982 -0.4188 -0.0136
  150SAPE   H4X16646   1.615   5.784   9.957  1.8050 -1.0115  0.1370
  150SAPE   H4Y16647   1.473   5.684   9.955 -0.3603  0.9790  0.4600
  150SAPE   C3516648   1.629   5.595   9.833 -0.6554  0.1421  0.6716
  150SAPE   H5X16649   1.617   5.486   9.851  0.3705 -0.3226 -1.2423
  150SAPE   H5Y16650   1.738   5.613   9.821 -0.7644  0.6369  0.4078
  150SAPE   C3616651   1.564   5.644   9.705  0.5180  0.5412  0.2036
  150SAPE   H6X16652   1.575   5.754   9.708  0.5588  0.7549 -3.5830
  150SAPE   H6Y16653   1.457   5.614   9.706  0.2934  1.3297  1.1472
  150SAPE   C3716654   1.626   5.597   9.570  0.2976  0.4059  0.3653
  150SAPE   H7X16655   1.658   5.490   9.570 -2.3919 -0.4818 -0.6360
  150SAPE   H7Y16656   1.724   5.650   9.564  0.7803 -0.3550  1.2521
  150SAPE   C3816657   1.543   5.625   9.445  0.0700  0.9951 -0.5801
  150SAPE   H8X16658   1.508   5.731   9.441 -2.2019  0.3348 -0.0646
  150SAPE   H8Y16659   1.451   5.562   9.443 -0.2440  1.4251 -0.2146
  150SAPE   C3916660   1.635   5.586   9.324  1.2201 -0.4040  0.2872
  150SAPE   H9X16661   1.647   5.476   9.315  0.2514 -0.4194 -1.0584
  150SAPE   H9Y16662   1.730   5.644   9.330  0.1727  1.3969  0.0231
  150SAPE  C31016663   1.571   5.618   9.189  0.7717 -1.0085 -0.0050
  150SAPE  H10X16664   1.539   5.724   9.193  1.5112 -0.7915  0.3083
  150SAPE  H10Y16665   1.477   5.561   9.177 -0.2858  0.0043  2.6590
  150SAPE  C31116666   1.665   5.592   9.068 -0.3714 -0.3867 -0.1639
  150SAPE  H11X16667   1.600   5.595   8.978 -0.4916  0.7239 -0.0531
  150SAPE  H11Y16668   1.705   5.489   9.075 -0.0189 -0.2133  0.4538
  150SAPE  C31216669   1.772   5.696   9.057  0.0211  0.6690 -0.4815
  150SAPE  H12X16670   1.833   5.692   9.149 -0.7067  0.2112 -0.0020
  150SAPE  H12Y16671   1.735   5.800   9.052  1.0567  0.9772 -3.4802
  150SAPE  C31316672   1.868   5.674   8.947  0.6119 -0.6412 -0.1754
  150SAPE  H13X16673   1.903   5.569   8.948 -2.7656 -1.9984 -3.0134
  150SAPE  H13Y16674   1.954   5.739   8.975 -0.4111  1.3771 -1.4899
  150SAPE  C31416675   1.805   5.716   8.808 -0.4333  0.7974  0.2285
  150SAPE  H14X16676   1.778   5.823   8.823  0.5307  1.2477 -1.0155
  150SAPE  H14Y16677   1.714   5.658   8.779 -0.3999  1.4606 -1.3358
  150SAPE  C31516678   1.915   5.705   8.702  0.2570 -0.7303  0.1268
  150SAPE  H15X16679   1.963   5.606   8.712 -0.5806 -1.6677 -3.5469
  150SAPE  H15Y16680   1.977   5.797   8.705  2.6640 -2.0605 -2.9665
  150SAPE  C31616681   1.863   5.707   8.556  0.1384  0.1642  0.6467
  150SAPE  H16X16682   1.812   5.805   8.539  0.8927  0.2721 -1.2858
  150SAPE  H16Y16683   1.783   5.632   8.538 -0.5248  0.9716  0.0861
  150SAPE  C31716684   1.974   5.673   8.454  0.0235 -0.1598  0.3628
  150SAPE  H17X16685   2.021   5.575   8.478  2.7832  0.6570 -1.1949
  150SAPE  H17Y16686   2.052   5.752   8.453 -0.7701  0.6321  0.1981
  150SAPE  C31816687   1.917   5.671   8.319 -0.2283 -0.9175  0.3309
  150SAPE  H18X16688   1.991   5.637   8.242 -1.7858 -3.6542 -0.0951
  150SAPE  H18Y16689   1.870   5.768   8.293  0.0537 -1.6564 -3.5732
  150SAPE  H18Z16690   1.837   5.594   8.319  1.3392 -2.8580  4.7459
  151SAPE     N16691   6.340   1.861  10.585 -0.2270 -0.2477 -0.0047
  151SAPE   HN116692   6.315   1.871  10.685 -0.3863 -0.1710 -0.0513
  151SAPE   HN216693   6.266   1.810  10.532  0.5354 -0.2299 -1.1187
  151SAPE   HN316694   6.425   1.802  10.575 -0.5350 -0.8543  0.8402
  151SAPE   C1216695   6.365   1.993  10.526  0.1188  0.3585  0.4929
  151SAPE  H12A16696   6.438   2.040  10.595 -0.0560  1.4156 -0.0128
  151SAPE  H12B16697   6.274   2.057  10.519  1.0030  1.6892  0.7909
  151SAPE   C1116698   6.437   1.991  10.388 -0.0737 -1.1633 -0.0058
  151SAPE  H11A16699   6.456   2.099  10.367 -1.0668 -0.7503  1.1614
  151SAPE  H11B16700   6.366   1.954  10.311  0.5172 -0.0027 -1.1624
  151SAPE     P16701   6.701   1.967  10.411 -0.0801 -0.6863 -0.0360
  151SAPE   O1316702   6.693   2.098  10.473 -0.2434  0.1641 -0.6393
  151SAPE   O1416703   6.792   1.870  10.473  0.6838 -0.1860  0.0046
  151SAPE   O1216704   6.551   1.907  10.394  0.3336 -0.1020  0.1217
  151SAPE   O1116705   6.754   1.988  10.267  0.1310  0.0711  0.1942
  151SAPE    C116706   6.707   1.907  10.158  0.0063 -0.3977 -0.1795
  151SAPE    HA16707   6.598   1.898  10.144  0.1790 -0.6134 -1.5141
  151SAPE    HB16708   6.741   1.962  10.067  1.8981 -1.0734  0.0722
  151SAPE    C216709   6.778   1.772  10.153 -0.5492  0.2190 -0.2509
  151SAPE    HS16710   6.802   1.752  10.260 -0.7689 -1.4245 -0.4833
  151SAPE   O2116711   6.904   1.785  10.077 -0.1785 -0.2448  0.0162
  151SAPE   C2116712   6.996   1.699  10.108  0.2704 -0.0627  0.6827
  151SAPE   O2216713   6.989   1.619  10.200 -0.5880 -0.3321 -0.2621
  151SAPE   C2216714   7.128   1.737  10.028 -0.0858  0.6280 -0.3535
  151SAPE   H2R16715   7.090   1.788   9.936  0.6468 -2.3160 -2.4485
  151SAPE   H2S16716   7.187   1.808  10.089  1.0702 -0.3192 -0.3216
  151SAPE    C316717   6.679   1.662  10.108 -0.5921 -0.3356 -0.0006
  151SAPE    HX16718   6.605   1.663  10.192  0.0298  2.9385  0.6525
  151SAPE    HY16719   6.730   1.564  10.106 -0.1916 -0.1149 -0.5113
  151SAPE   O3116720   6.630   1.691   9.975  0.3545 -0.2218 -0.2384
  151SAPE   C3116721   6.501   1.678   9.954  0.4690  0.0529 -0.1070
  151SAPE   O3216722   6.419   1.654  10.045 -0.0346  0.3489  0.4313
  151SAPE   C3216723   6.471   1.711   9.811 -0.3499 -0.3798  0.3754
  151SAPE   H2X16724   6.505   1.639   9.733 -0.1870  0.0736  0.0250
  151SAPE   H2Y16725   6.541   1.794   9.786  0.1617 -1.3283 -1.5251
  151SAPE   C2316726   7.213   1.625   9.987  0.2438  0.4497 -0.5520
  151SAPE   H3R16727   7.195   1.540  10.056  2.4985  1.7493  1.8204
  151SAPE   H3S16728   7.320   1.653  10.001  1.0039 -1.4082 -2.2496
  151SAPE   C2416729   7.204   1.582   9.834  0.8526  0.2183 -0.6698
  151SAPE   H4R16730   7.278   1.503   9.810 -1.4288 -1.7972 -1.4429
  151SAPE   H4S16731   7.233   1.677   9.785  1.2162  0.0711 -0.7444
  151SAPE   C2516732   7.067   1.527   9.788  0.1202 -0.1485 -0.2004
  151SAPE   H5R16733   7.026   1.454   9.858  0.3179  0.3043  0.3955
  151SAPE   C2616734   6.991   1.562   9.680  0.2827  0.1210 -0.9104
  151SAPE   H6R16735   6.892   1.515   9.669 -0.0471  0.5503  0.1515
  151SAPE   C2716736   7.015   1.664   9.578  0.3205  0.3262  0.6651
  151SAPE   H7R16737   6.997   1.616   9.479 -0.3211  0.9401  0.4790
  151SAPE   H7S16738   7.117   1.708   9.588  0.4602 -0.0120  0.7653
  151SAPE   C2816739   6.917   1.779   9.589  0.3827  0.1287  0.2490
  151SAPE   H8R16740   6.957   1.875   9.625 -1.6282  0.9362  0.4504
  151SAPE   C2916741   6.796   1.789   9.536  0.4005  0.3183  0.1710
  151SAPE   H9R16742   6.734   1.876   9.562  0.9427  0.1821  2.0527
  151SAPE  C21016743   6.723   1.690   9.443 -0.4593 -0.4850 -0.5309
  151SAPE  H10R16744   6.643   1.648   9.508  0.1602 -1.0167 -0.0906
  151SAPE  H10S16745   6.788   1.602   9.423  0.1320 -0.3157  0.5405
  151SAPE  C21116746   6.673   1.775   9.330  0.4768  0.4711 -0.2216
  151SAPE  H11R16747   6.610   1.862   9.357 -2.6869 -1.8154  0.3347
  151SAPE  C21216748   6.697   1.758   9.201 -0.6130 -0.4546 -0.1604
  151SAPE  H12R16749   6.649   1.826   9.129 -0.4825 -0.2829 -0.0861
  151SAPE  C21316750   6.786   1.653   9.135  0.0344 -0.0675  1.0384
  151SAPE  H13R16751   6.729   1.564   9.102 -0.3500  0.5677 -0.0476
  151SAPE  H13S16752   6.867   1.621   9.204  0.7183  0.3299  0.4409
  151SAPE  C21416753   6.870   1.719   9.023  0.2824 -0.4091 -0.1291
  151SAPE  H14R16754   6.934   1.802   9.059 -1.0761  0.4537  0.4145
  151SAPE  C21516755   6.877   1.683   8.898 -0.3814 -0.1410  0.4859
  151SAPE  H15R16756   6.944   1.739   8.832 -0.3301 -0.6611  0.0886
  151SAPE  C21616757   6.792   1.578   8.833 -0.2675  0.1791  0.1627
  151SAPE  H16R16758   6.696   1.557   8.884 -1.6358  0.2648 -2.2104
  151SAPE  H16S16759   6.844   1.479   8.837  0.2056  0.4669  1.3073
  151SAPE  C21716760   6.761   1.616   8.684 -0.0500  0.7215 -0.3886
  151SAPE  H17R16761   6.857   1.614   8.629 -0.5334  2.1976 -1.3446
  151SAPE  H17S16762   6.736   1.724   8.695  0.2463  0.6174  1.8796
  151SAPE  C21816763   6.663   1.523   8.614 -0.2468  0.3323  0.5311
  151SAPE  H18R16764   6.559   1.530   8.652 -0.7751  2.8683 -1.1067
  151SAPE  H18S16765   6.694   1.417   8.628  0.3782  0.0097 -2.5413
  151SAPE  C21916766   6.657   1.548   8.464  0.1718  0.2858 -0.2347
  151SAPE  H19R16767   6.571   1.491   8.424 -0.0652  1.7687 -1.9596
  151SAPE  H19S16768   6.753   1.515   8.418 -1.7455 -2.3653 -2.6283
  151SAPE  C22016769   6.634   1.695   8.422  0.0916 -0.1423  1.1787
  151SAPE  H20R16770   6.534   1.734   8.450  0.0969  2.2287 -1.5927
  151SAPE  H20S16771   6.641   1.715   8.313 -3.1466 -2.1421  0.4569
  151SAPE  H20T16772   6.697   1.758   8.487  0.0577 -2.5071  3.6870
  151SAPE   C3316773   6.321   1.736   9.795  0.8216 -0.0998  0.1038
  151SAPE   H3X16774   6.288   1.807   9.874 -2.1488 -2.1740  0.9159
  151SAPE   H3Y16775   6.257   1.646   9.801  0.0655  0.3894 -0.4877
  151SAPE   C3416776   6.281   1.805   9.663 -0.2806  0.3208 -0.1448
  151SAPE   H4X16777   6.345   1.894   9.644 -0.6094  0.6267  0.1661
  151SAPE   H4Y16778   6.181   1.851   9.680 -0.8902 -0.9583 -0.1657
  151SAPE   C3516779   6.286   1.725   9.542 -1.0159 -0.3454 -0.6480
  151SAPE   H5X16780   6.226   1.635   9.567  1.9473 -2.0673  0.7542
  151SAPE   H5Y16781   6.390   1.694   9.521 -0.5182  0.3987  0.6523
  151SAPE   C3616782   6.257   1.795   9.410 -0.3937  0.3577 -0.1303
  151SAPE   H6X16783   6.304   1.896   9.409 -1.0523  0.6709 -0.4773
  151SAPE   H6Y16784   6.148   1.816   9.414 -0.5243 -0.2217 -0.5798
  151SAPE   C3716785   6.301   1.714   9.290  0.0625 -0.2153 -0.0688
  151SAPE   H7X16786   6.252   1.614   9.293  0.0475 -0.1820  1.2030
  151SAPE   H7Y16787   6.409   1.686   9.291  0.3122  0.6928 -0.4814
  151SAPE   C3816788   6.266   1.787   9.160  0.1166  0.1549 -0.1147
  151SAPE   H8X16789   6.312   1.887   9.164 -1.7024  0.9910  1.0005
  151SAPE   H8Y16790   6.155   1.788   9.149 -0.6111 -4.2957  3.6078
  151SAPE   C3916791   6.303   1.693   9.040 -0.7200 -0.0463 -0.2312
  151SAPE   H9X16792   6.247   1.598   9.053 -1.4240  0.4614  0.5846
  151SAPE   H9Y16793   6.413   1.680   9.042 -0.6417  0.6707  0.2905
  151SAPE  C31016794   6.278   1.753   8.896  0.4660  0.5852 -0.8124
  151SAPE  H10X16795   6.341   1.845   8.891 -2.3274  3.2195  4.3088
  151SAPE  H10Y16796   6.175   1.793   8.884  1.6520  3.4763 -2.5356
  151SAPE  C31116797   6.290   1.642   8.787  0.5569  0.2828 -0.2912
  151SAPE  H11X16798   6.227   1.558   8.825 -0.4645  1.0575 -0.2097
  151SAPE  H11Y16799   6.395   1.608   8.779  1.0106  1.7602 -0.7907
  151SAPE  C31216800   6.249   1.686   8.648  0.0984  0.1170 -0.0327
  151SAPE  H12X16801   6.311   1.774   8.622 -0.5179 -0.2503 -3.1807
  151SAPE  H12Y16802   6.147   1.729   8.658 -0.6268 -1.5913  0.3350
  151SAPE  C31316803   6.252   1.579   8.544 -0.1088  0.6495  0.0260
  151SAPE  H13X16804   6.241   1.480   8.594 -1.6473  1.2507  0.9608
  151SAPE  H13Y16805   6.352   1.576   8.496 -0.2240  0.3668 -0.2030
  151SAPE  C31416806   6.150   1.598   8.428  0.7494 -0.4914 -0.6565
  151SAPE  H14X16807   6.042   1.589   8.453  0.6501 -2.4883 -1.6194
  151SAPE  H14Y16808   6.158   1.515   8.355  0.7266 -1.4493  0.4139
  151SAPE  C31516809   6.174   1.723   8.349 -0.3098 -1.0629 -0.0896
  151SAPE  H15X16810   6.276   1.720   8.306 -0.4268 -0.7702 -0.3974
  151SAPE  H15Y16811   6.176   1.812   8.415  0.2872 -2.1204  1.3593
  151SAPE  C31616812   6.078   1.753   8.228 -0.1364  0.4274  0.4060
  151SAPE  H16X16813   5.997   1.818   8.268 -0.6260  0.8553 -1.2005
  151SAPE  H16Y16814   6.026   1.661   8.193 -3.6886  1.0384  3.3646
  151SAPE  C31716815   6.154   1.811   8.109 -0.4472 -0.1499 -0.1565
  151SAPE  H17X16816   6.229   1.741   8.067 -0.0630  0.9606 -1.3985
  151SAPE  H17Y16817   6.213   1.898   8.143  0.7308 -0.9974  0.0256
  151SAPE  C31816818   6.066   1.841   7.990  1.3741  0.1724 -0.1335
  151SAPE  H18X16819   6.057   1.767   7.907 -1.0583 -0.1262  0.3241
  151SAPE  H18Y16820   6.105   1.938   7.953  2.5790 -1.4436 -3.4948
  151SAPE  H18Z16821   5.964   1.870   8.024  1.5962  0.5270  0.2413
  152SAPE     N16822   0.774   2.999  10.639 -0.4197  0.6506 -0.3553
  152SAPE   HN116823   0.740   3.046  10.725  2.1548 -0.8236  1.5942
  152SAPE   HN216824   0.827   2.913  10.663  1.5459  1.6315 -1.0124
  152SAPE   HN316825   0.836   3.053  10.575 -1.9036 -0.2063 -2.6558
  152SAPE   C1216826   0.654   2.953  10.565  0.1441  0.0449 -0.2327
  152SAPE  H12A16827   0.580   3.034  10.584  0.9962  0.5820  0.9074
  152SAPE  H12B16828   0.610   2.858  10.604  3.9363 -1.1237  1.7188
  152SAPE   C1116829   0.699   2.916  10.424 -0.7397 -0.7631 -0.4233
  152SAPE  H11A16830   0.752   3.002  10.378 -0.7938 -0.9864 -0.9070
  152SAPE  H11B16831   0.600   2.913  10.374 -1.6568  0.3034  1.2408
  152SAPE     P16832   0.720   2.654  10.435  0.1030  0.2562  0.2064
  152SAPE   O1316833   0.811   2.578  10.533 -0.9909 -0.4831  0.4225
  152SAPE   O1416834   0.573   2.665  10.477 -0.0269  0.0554  0.7773
  152SAPE   O1216835   0.777   2.797  10.415  0.3654  0.7179 -0.1455
  152SAPE   O1116836   0.740   2.588  10.296 -0.4463  0.4166  0.0256
  152SAPE    C116837   0.859   2.610  10.225  0.2935  0.9847 -0.3116
  152SAPE    HA16838   0.915   2.701  10.254  0.7176  0.2160  1.3798
  152SAPE    HB16839   0.927   2.525  10.245 -1.0902  0.2061  1.2707
  152SAPE    C216840   0.838   2.629  10.065 -0.5215 -0.2642 -0.0764
  152SAPE    HS16841   0.938   2.648  10.021  0.1446 -0.0612  1.4766
  152SAPE   O2116842   0.744   2.739  10.043 -0.3708  0.2592  0.0202
  152SAPE   C2116843   0.807   2.856  10.038  0.3312 -0.5252  0.1499
  152SAPE   O2216844   0.915   2.877  10.082 -0.2069 -0.6959  0.4488
  152SAPE   C2216845   0.707   2.954   9.984  0.0758 -0.3891  0.0035
  152SAPE   H2R16846   0.615   2.950  10.046 -0.1441  2.1243 -0.0346
  152SAPE   H2S16847   0.755   3.054   9.996  1.4778 -0.9264 -0.9646
  152SAPE    C316848   0.790   2.503  10.001 -0.2450 -0.0439 -0.6866
  152SAPE    HX16849   0.695   2.473  10.050  0.5840 -0.2202  0.8726
  152SAPE    HY16850   0.868   2.428  10.027  0.5149  1.7219  2.7155
  152SAPE   O3116851   0.780   2.522   9.860 -0.0899  0.0603  0.5345
  152SAPE   C3116852   0.653   2.551   9.815  0.3078 -0.0743 -0.7323
  152SAPE   O3216853   0.566   2.579   9.896  0.4032  0.4157 -0.0242
  152SAPE   C3216854   0.636   2.531   9.670  0.5740 -0.2829 -0.5942
  152SAPE   H2X16855   0.652   2.422   9.658  0.7171 -0.4232  0.7038
  152SAPE   H2Y16856   0.719   2.584   9.617 -1.0045  2.5100 -0.4517
  152SAPE   C2316857   0.666   2.939   9.832 -0.0281  0.4995  0.3854
  152SAPE   H3R16858   0.623   2.842   9.798 -0.6309  0.8193  0.2247
  152SAPE   H3S16859   0.764   2.949   9.780 -1.1582 -1.4948 -2.3981
  152SAPE   C2416860   0.591   3.056   9.769  0.1960 -0.1591 -0.6680
  152SAPE   H4R16861   0.626   3.075   9.665  2.1384  2.2296  0.3137
  152SAPE   H4S16862   0.629   3.145   9.824 -0.7802 -0.7514  1.0655
  152SAPE   C2516863   0.445   3.048   9.788 -0.9852  0.4476  0.0149
  152SAPE   H5R16864   0.425   3.038   9.896  3.4162  1.7377  1.1637
  152SAPE   C2616865   0.359   3.038   9.679  0.9207 -0.5467 -0.5246
  152SAPE   H6R16866   0.251   3.027   9.697  0.4703  0.1039 -2.5490
  152SAPE   C2716867   0.397   3.032   9.533 -0.0780 -0.5813  0.0760
  152SAPE   H7R16868   0.303   2.997   9.485  0.5389  1.3369 -2.7754
  152SAPE   H7S16869   0.483   2.964   9.516  2.0464  1.5748  1.5144
  152SAPE   C2816870   0.447   3.172   9.480  0.7059 -0.4941 -0.8126
  152SAPE   H8R16871   0.474   3.241   9.562  0.5294 -1.1998 -0.1485
  152SAPE   C2916872   0.432   3.221   9.352 -0.3593 -0.2586 -0.0123
  152SAPE   H9R16873   0.484   3.315   9.329 -0.2818 -0.3239 -0.1071
  152SAPE  C21016874   0.382   3.140   9.228 -0.0262 -0.2426  0.7616
  152SAPE  H10R16875   0.281   3.175   9.201 -0.1432 -0.4357  0.9472
  152SAPE  H10S16876   0.384   3.031   9.251 -0.9346 -0.0559  1.8362
  152SAPE  C21116877   0.478   3.164   9.114 -0.3942 -0.3046 -1.0223
  152SAPE  H11R16878   0.584   3.179   9.141 -0.3082 -0.7138 -1.1198
  152SAPE  C21216879   0.447   3.180   8.984  0.4566  0.3413 -0.1953
  152SAPE  H12R16880   0.530   3.187   8.913 -1.2673  0.6067 -2.2822
  152SAPE  C21316881   0.311   3.165   8.926 -0.3181  0.0141  0.2240
  152SAPE  H13R16882   0.247   3.093   8.981 -0.3808 -1.5656 -1.8261
  152SAPE  H13S16883   0.316   3.121   8.825  0.9254  2.7275 -1.0085
  152SAPE  C21416884   0.230   3.289   8.916 -0.0796  0.2869  0.5436
  152SAPE  H14R16885   0.164   3.316   8.999 -0.4276  1.8288 -0.1986
  152SAPE  C21516886   0.205   3.376   8.815  0.9144  0.6142  0.0742
  152SAPE  H15R16887   0.130   3.457   8.820 -2.0289 -1.8602 -0.4910
  152SAPE  C21616888   0.277   3.360   8.682 -0.1887  0.2570 -0.3753
  152SAPE  H16R16889   0.332   3.264   8.672 -1.1711 -0.6768  2.2992
  152SAPE  H16S16890   0.340   3.449   8.663  0.0130 -0.2249 -2.1945
  152SAPE  C21716891   0.183   3.365   8.555 -0.0444 -0.3275  0.8563
  152SAPE  H17R16892   0.124   3.458   8.548 -0.7091 -0.8347 -0.9511
  152SAPE  H17S16893   0.122   3.272   8.552  0.3245 -0.5558 -0.5189
  152SAPE  C21816894   0.269   3.363   8.422  0.0357 -0.4900 -0.4240
  152SAPE  H18R16895   0.339   3.449   8.419  0.3642 -0.7690 -2.3621
  152SAPE  H18S16896   0.202   3.378   8.335  1.1678 -3.1935 -1.9019
  152SAPE  C21916897   0.360   3.243   8.409  0.0118  0.5680  0.1933
  152SAPE  H19R16898   0.292   3.156   8.391  1.7045 -0.7927  0.1769
  152SAPE  H19S16899   0.419   3.222   8.500 -0.7985  2.1165  1.1153
  152SAPE  C22016900   0.457   3.252   8.299 -0.9326 -0.8864  0.3396
  152SAPE  H20R16901   0.487   3.357   8.277 -1.7507 -0.3244  1.7510
  152SAPE  H20S16902   0.413   3.223   8.201  1.7808 -1.0056 -0.9267
  152SAPE  H20T16903   0.542   3.185   8.323  0.4828 -0.3768 -2.8233
  152SAPE   C3316904   0.502   2.598   9.625  0.7466 -0.0810 -0.3630
  152SAPE   H3X16905   0.510   2.702   9.664 -0.7836 -0.1977  0.3271
  152SAPE   H3Y16906   0.408   2.562   9.672 -1.0179  3.0164 -1.2152
  152SAPE   C3416907   0.493   2.605   9.479 -0.3648  0.2089  0.3164
  152SAPE   H4X16908   0.582   2.656   9.437  0.1984 -0.9641  0.0443
  152SAPE   H4Y16909   0.399   2.657   9.448 -0.0662  0.7663  0.3329
  152SAPE   C3516910   0.471   2.470   9.411 -0.8046  0.7767 -0.3493
  152SAPE   H5X16911   0.363   2.444   9.424 -0.3498 -0.2946  1.7257
  152SAPE   H5Y16912   0.520   2.394   9.475  1.7070  2.1299 -0.5369
  152SAPE   C3616913   0.528   2.467   9.271  0.0779 -0.3969 -0.2004
  152SAPE   H6X16914   0.639   2.477   9.274  0.1705 -1.2534 -0.5032
  152SAPE   H6Y16915   0.489   2.561   9.228  2.2335 -0.4136 -2.4470
  152SAPE   C3716916   0.485   2.337   9.198  0.0564  0.0565  0.1818
  152SAPE   H7X16917   0.378   2.320   9.223  0.2656 -1.0245  0.3851
  152SAPE   H7Y16918   0.543   2.251   9.238 -1.1801 -0.4573  0.9109
  152SAPE   C3816919   0.506   2.339   9.047  0.1190 -1.0061  0.9483
  152SAPE   H8X16920   0.523   2.240   9.000 -0.6836 -0.9567  0.5375
  152SAPE   H8Y16921   0.599   2.388   9.012  0.6607 -0.2944  3.2076
  152SAPE   C3916922   0.388   2.401   8.975  0.2080  0.5599 -1.1427
  152SAPE   H9X16923   0.373   2.511   8.985 -1.0628  0.4599 -1.7904
  152SAPE   H9Y16924   0.290   2.363   9.010 -0.3352  0.9596 -2.1693
  152SAPE  C31016925   0.382   2.371   8.824 -0.3672  0.0062 -0.2684
  152SAPE  H10X16926   0.411   2.264   8.817  1.9988  0.5506  0.3194
  152SAPE  H10Y16927   0.468   2.427   8.783  0.4684  0.8214  2.4100
  152SAPE  C31116928   0.247   2.416   8.772 -0.6415 -0.0586 -1.3031
  152SAPE  H11X16929   0.208   2.503   8.828 -1.5830 -0.4024 -1.4080
  152SAPE  H11Y16930   0.170   2.342   8.802 -0.8924  0.0701 -1.6289
  152SAPE  C31216931   0.240   2.421   8.623 -0.0249 -0.4674  0.1765
  152SAPE  H12X16932   0.319   2.487   8.583 -0.3234 -0.5946 -0.6664
  152SAPE  H12Y16933   0.142   2.458   8.587 -1.6125 -2.8285  1.7319
  152SAPE  C31316934   0.252   2.274   8.565 -0.3052  0.1166  0.1674
  152SAPE  H13X16935   0.179   2.207   8.615  0.1535 -0.5507 -0.0443
  152SAPE  H13Y16936   0.352   2.234   8.591 -1.4029 -0.7486  3.5020
  152SAPE  C31416937   0.222   2.276   8.412 -0.4410 -0.3313 -0.5977
  152SAPE  H14X16938   0.140   2.346   8.385 -0.2200 -0.2186 -0.9806
  152SAPE  H14Y16939   0.191   2.177   8.373  0.6785 -1.3091  0.8493
  152SAPE  C31516940   0.341   2.342   8.336  0.5512  0.4869 -0.4271
  152SAPE  H15X16941   0.422   2.265   8.346 -2.3760 -2.9007 -0.7994
  152SAPE  H15Y16942   0.381   2.433   8.385  0.9914  0.5009 -0.8114
  152SAPE  C31616943   0.310   2.358   8.182  0.1468  0.2638 -0.4025
  152SAPE  H16X16944   0.236   2.282   8.147 -0.3097  0.1427  0.7834
  152SAPE  H16Y16945   0.406   2.332   8.133  1.8532 -0.8853  3.2000
  152SAPE  C31716946   0.263   2.491   8.152 -0.1675  0.6927 -0.2251
  152SAPE  H17X16947   0.312   2.564   8.219  2.5142 -0.2659 -1.0028
  152SAPE  H17Y16948   0.152   2.483   8.158 -0.1419  1.3744  2.0818
  152SAPE  C31816949   0.303   2.530   8.017  0.1967 -0.6313  0.5429
  152SAPE  H18X16950   0.242   2.464   7.952 -3.3250 -2.4185  5.1217
  152SAPE  H18Y16951   0.413   2.519   8.003  0.3485  1.4834 -0.1986
  152SAPE  H18Z16952   0.279   2.637   7.998 -0.3418 -0.6546  1.0663
  153SAPE     N16953   1.840   3.060  10.402  0.1988 -0.1353  0.6929
  153SAPE   HN116954   1.841   2.976  10.463  3.0698 -0.0411  0.9352
  153SAPE   HN216955   1.744   3.085  10.373  0.7924  0.3489 -1.0256
  153SAPE   HN316956   1.898   3.046  10.316  1.6559  0.2023  1.5826
  153SAPE   C1216957   1.902   3.175  10.478  0.9785  0.6183  0.2490
  153SAPE  H12A16958   2.002   3.148  10.519  0.2733  0.6889  2.1059
  153SAPE  H12B16959   1.837   3.216  10.558 -0.2056  0.5813 -0.6770
  153SAPE   C1116960   1.915   3.302  10.385  0.3930  0.4494 -0.0299
  153SAPE  H11A16961   1.813   3.343  10.368  0.5068 -0.3344 -3.3060
  153SAPE  H11B16962   1.970   3.280  10.291 -0.2135 -2.2394  0.1546
  153SAPE     P16963   1.986   3.546  10.461  0.5223  0.2953 -0.0133
  153SAPE   O1316964   1.839   3.579  10.461  0.0535  0.2578  0.4657
  153SAPE   O1416965   2.066   3.607  10.570  0.4108 -0.8791  0.0627
  153SAPE   O1216966   2.006   3.386  10.453  0.1206 -0.4661  0.1414
  153SAPE   O1116967   2.043   3.597  10.330 -0.2924  1.0124  0.1080
  153SAPE    C116968   2.173   3.565  10.277  0.8360 -0.2877 -0.5330
  153SAPE    HA16969   2.254   3.606  10.341 -0.4573  1.5848 -0.0055
  153SAPE    HB16970   2.178   3.454  10.283 -1.0418 -0.3313  1.8379
  153SAPE    C216971   2.189   3.602  10.123  0.8217  0.4934 -0.3434
  153SAPE    HS16972   2.269   3.531  10.091  0.0436  0.4747 -2.3755
  153SAPE   O2116973   2.225   3.731  10.092 -0.4990 -0.4234  0.3475
  153SAPE   C2116974   2.333   3.786  10.148 -0.7919  0.4341 -0.6790
  153SAPE   O2216975   2.419   3.721  10.206  0.1875  0.1079 -0.2673
  153SAPE   C2216976   2.336   3.933  10.108  0.5185  0.8747  0.8001
  153SAPE   H2R16977   2.276   3.940  10.015  2.0834  0.8522 -0.2551
  153SAPE   H2S16978   2.301   3.998  10.191  0.8881  0.4624  1.2840
  153SAPE    C316979   2.050   3.559  10.056  0.6733  0.3440  0.7243
  153SAPE    HX16980   1.979   3.643  10.076  1.2505  1.6899 -2.3754
  153SAPE    HY16981   2.020   3.469  10.114  0.0600  0.9047  1.2987
  153SAPE   O3116982   2.055   3.531   9.911  0.4031 -0.5138 -0.0984
  153SAPE   C3116983   2.018   3.410   9.870  0.0605 -0.2799  0.5202
  153SAPE   O3216984   1.959   3.326   9.938  1.0808 -0.1387 -0.2140
  153SAPE   C3216985   2.061   3.388   9.734 -0.4333  0.1185 -0.0983
  153SAPE   H2X16986   2.161   3.341   9.726 -0.5871 -0.0265 -1.4705
  153SAPE   H2Y16987   2.057   3.488   9.685 -1.0875 -0.0043 -0.3108
  153SAPE   C2316988   2.470   3.969  10.051  0.0737 -0.7624  0.3049
  153SAPE   H3R16989   2.552   3.968  10.126  0.7091 -1.9367 -0.3740
  153SAPE   H3S16990   2.467   4.077  10.028  0.1997 -0.7807  0.2005
  153SAPE   C2416991   2.505   3.895   9.922 -0.1783  0.0239 -0.5915
  153SAPE   H4R16992   2.592   3.947   9.877 -1.7156  2.3975 -0.9617
  153SAPE   H4S16993   2.419   3.897   9.853 -0.4392  1.6591 -0.2532
  153SAPE   C2516994   2.556   3.751   9.934  0.3602  0.2646  0.5024
  153SAPE   H5R16995   2.627   3.733  10.016 -0.1450  0.2184  0.9338
  153SAPE   C2616996   2.533   3.655   9.847 -0.0859 -0.1905 -0.4322
  153SAPE   H6R16997   2.571   3.555   9.872 -0.4517  0.1227  1.5295
  153SAPE   C2716998   2.441   3.672   9.731  0.5804 -0.8482  0.0443
  153SAPE   H7R16999   2.347   3.726   9.756  1.2112 -0.2233  1.0937
  153SAPE   H7S17000   2.411   3.571   9.694 -1.5938  0.0629 -0.8811
  153SAPE   C2817001   2.516   3.728   9.608 -0.3874 -0.0010 -0.6178
  153SAPE   H8R17002   2.623   3.705   9.594 -0.7947 -1.3176 -1.7969
  153SAPE   C2917003   2.466   3.818   9.514 -0.8760  0.5165  0.0408
  153SAPE   H9R17004   2.533   3.858   9.436  0.7277 -0.9314  0.5983
  153SAPE  C21017005   2.328   3.880   9.517 -0.3129  0.0847  0.0201
  153SAPE  H10R17006   2.337   3.985   9.554 -1.4233 -0.1272  0.9610
  153SAPE  H10S17007   2.263   3.833   9.594  0.3592  0.1127  0.6152
  153SAPE  C21117008   2.252   3.882   9.387 -0.1426  0.2683 -0.1113
  153SAPE  H11R17009   2.239   3.981   9.340 -0.4700  0.5422  0.5525
  153SAPE  C21217010   2.187   3.778   9.332 -0.0432 -0.7594 -0.7554
  153SAPE  H12R17011   2.132   3.788   9.237 -2.3003 -0.5354  0.4971
  153SAPE  C21317012   2.191   3.637   9.386 -0.0499  0.1298  0.0166
  153SAPE  H13R17013   2.092   3.604   9.425  1.2974  0.1656  3.9076
  153SAPE  H13S17014   2.249   3.641   9.480 -0.9841  1.4760  0.5703
  153SAPE  C21417015   2.269   3.536   9.310  0.2849 -0.1781  0.0601
  153SAPE  H14R17016   2.373   3.539   9.347  0.5245  3.0771 -0.5134
  153SAPE  C21517017   2.222   3.455   9.216 -0.0606 -0.3849  0.8808
  153SAPE  H15R17018   2.289   3.384   9.166 -0.0600 -0.8467  1.5202
  153SAPE  C21617019   2.078   3.455   9.166 -1.1897 -0.2031 -0.1872
  153SAPE  H16R17020   2.034   3.557   9.171  0.4583  0.7528 -3.0525
  153SAPE  H16S17021   2.021   3.375   9.217 -3.0440  0.5891 -0.9193
  153SAPE  C21717022   2.073   3.413   9.018  0.1814  0.1596  0.0433
  153SAPE  H17R17023   2.121   3.316   8.991 -2.0026 -0.2951 -2.7130
  153SAPE  H17S17024   2.128   3.495   8.968 -0.2377  0.9665  0.8673
  153SAPE  C21817025   1.922   3.417   8.962 -0.3949  1.1759  0.3584
  153SAPE  H18R17026   1.875   3.508   9.004  0.0499  1.8332 -0.5273
  153SAPE  H18S17027   1.874   3.327   9.007 -0.2345 -0.3179 -2.2445
  153SAPE  C21917028   1.910   3.405   8.810  0.1953  0.3428 -0.1210
  153SAPE  H19R17029   1.927   3.296   8.796  2.5875  0.5927  0.4664
  153SAPE  H19S17030   1.998   3.457   8.766 -0.2850  1.6812  0.4555
  153SAPE  C22017031   1.782   3.463   8.750  0.1132  0.2581 -0.0457
  153SAPE  H20R17032   1.780   3.451   8.639  0.6884 -1.4799  0.1021
  153SAPE  H20S17033   1.765   3.569   8.778 -0.5777  0.4209 -1.0007
  153SAPE  H20T17034   1.691   3.420   8.798  1.6701 -2.3832  0.7881
  153SAPE   C3317035   1.955   3.319   9.648  0.5127  0.3314 -0.3624
  153SAPE   H3X17036   1.954   3.351   9.542 -1.5306  0.9269 -0.2077
  153SAPE   H3Y17037   1.850   3.341   9.678  0.7723  1.4203 -0.2082
  153SAPE   C3417038   1.981   3.163   9.642  0.9859  0.4699 -0.4225
  153SAPE   H4X17039   1.995   3.133   9.748  1.8464  1.6859 -0.1666
  153SAPE   H4Y17040   2.083   3.148   9.600  0.8876 -1.7345  0.0313
  153SAPE   C3517041   1.874   3.081   9.567 -0.2697  0.0255  0.8036
  153SAPE   H5X17042   1.769   3.096   9.599 -1.1659 -0.7056 -1.5393
  153SAPE   H5Y17043   1.891   2.972   9.581  0.6605 -0.2646 -1.9460
  153SAPE   C3617044   1.884   3.117   9.411 -0.1789 -0.2482 -1.1278
  153SAPE   H6X17045   1.977   3.073   9.368  2.0093  3.0824 -0.2254
  153SAPE   H6Y17046   1.881   3.227   9.402 -1.2443 -0.1324  0.2969
  153SAPE   C3717047   1.757   3.070   9.337 -0.2842 -0.1829  0.4261
  153SAPE   H7X17048   1.673   3.119   9.389 -0.9573  0.7752 -1.4876
  153SAPE   H7Y17049   1.742   2.960   9.348  1.4690 -0.4152  0.9169
  153SAPE   C3817050   1.748   3.122   9.187  0.1074  0.9364  0.0311
  153SAPE   H8X17051   1.848   3.110   9.140 -0.5841 -0.8625 -1.0877
  153SAPE   H8Y17052   1.735   3.232   9.193  1.6705  1.1117  0.6932
  153SAPE   C3917053   1.632   3.071   9.110 -0.1669  0.1659  0.2309
  153SAPE   H9X17054   1.543   3.065   9.177 -1.0945 -0.5032 -1.0292
  153SAPE   H9Y17055   1.659   2.968   9.078  2.6694  1.7382 -3.0126
  153SAPE  C31017056   1.601   3.147   8.978 -0.0895  1.1666  0.4558
  153SAPE  H10X17057   1.692   3.140   8.915 -0.6162 -3.4473 -0.1300
  153SAPE  H10Y17058   1.579   3.255   8.995  1.4753  1.8788 -1.6395
  153SAPE  C31117059   1.486   3.082   8.902  0.1054  0.4736  0.2435
  153SAPE  H11X17060   1.454   3.136   8.810  0.3796  0.4744  0.1467
  153SAPE  H11Y17061   1.396   3.071   8.966 -0.3842 -0.9155 -0.6314
  153SAPE  C31217062   1.524   2.942   8.844 -0.2339 -0.0350  0.7362
  153SAPE  H12X17063   1.436   2.906   8.786 -0.6486 -1.0352  1.9361
  153SAPE  H12Y17064   1.533   2.863   8.922 -3.1564 -2.4787 -1.1615
  153SAPE  C31317065   1.643   2.935   8.756 -0.5256 -0.4173 -0.1947
  153SAPE  H13X17066   1.655   2.832   8.714  3.2096  0.3156 -1.2939
  153SAPE  H13Y17067   1.738   2.947   8.813 -0.8794 -0.8092  0.5002
  153SAPE  C31417068   1.635   3.046   8.646  0.5277 -0.0242 -0.6189
  153SAPE  H14X17069   1.652   3.143   8.697 -2.5336  0.7994 -0.9730
  153SAPE  H14Y17070   1.530   3.046   8.612 -0.0557 -1.6955  0.9994
  153SAPE  C31517071   1.748   3.041   8.544 -0.9439  0.0256 -0.2879
  153SAPE  H15X17072   1.739   2.950   8.481 -1.2944 -1.2507  1.5422
  153SAPE  H15Y17073   1.842   3.035   8.603 -1.3939  1.9919  0.7203
  153SAPE  C31617074   1.763   3.159   8.455  0.2070  0.0467  0.1532
  153SAPE  H16X17075   1.849   3.147   8.387 -1.8094 -2.5807 -2.1660
  153SAPE  H16Y17076   1.793   3.255   8.502  0.3658  1.1011 -2.0016
  153SAPE  C31717077   1.641   3.189   8.360  0.1837  0.8364  0.7876
  153SAPE  H17X17078   1.664   3.280   8.301  0.2404 -0.5842 -1.4917
  153SAPE  H17Y17079   1.547   3.205   8.418  0.3236  0.1209  1.2288
  153SAPE  C31817080   1.602   3.066   8.264  0.1278  0.1851  0.0823
  153SAPE  H18X17081   1.538   3.002   8.328  0.1737  0.6401  0.5908
  153SAPE  H18Y17082   1.692   3.016   8.222  0.7125  0.4327  1.0119
  153SAPE  H18Z17083   1.540   3.117   8.187  1.0957 -0.4612 -1.1659
  154SAPE     N17084   2.487   3.761  10.480  0.4498  0.0202 -0.6222
  154SAPE   HN117085   2.584   3.742  10.509  0.1032  0.0667  0.6178
  154SAPE   HN217086   2.464   3.729  10.384 -1.4233 -0.5182 -0.0471
  154SAPE   HN317087   2.465   3.863  10.477 -1.6217 -0.3617 -0.0937
  154SAPE   C1217088   2.394   3.694  10.567  0.3375  0.9208  0.8479
  154SAPE  H12A17089   2.297   3.710  10.515  1.7662 -0.4836 -2.5751
  154SAPE  H12B17090   2.407   3.739  10.668  0.2232 -1.6165  2.0601
  154SAPE   C1117091   2.429   3.546  10.592  0.6072  0.1215  0.1748
  154SAPE  H11A17092   2.391   3.492  10.503  0.2300 -1.4627  1.2565
  154SAPE  H11B17093   2.368   3.517  10.680 -1.2314  0.6537 -0.8696
  154SAPE     P17094   2.626   3.393  10.659 -0.0927 -0.4766 -0.4721
  154SAPE   O1317095   2.724   3.407  10.770 -0.3008 -0.3712  0.6748
  154SAPE   O1417096   2.508   3.305  10.685 -0.6161 -0.3670 -0.2623
  154SAPE   O1217097   2.567   3.531  10.620 -0.0636  0.2359  0.5233
  154SAPE   O1117098   2.690   3.330  10.522  0.2926  0.7711 -0.4109
  154SAPE    C117099   2.730   3.422  10.417 -0.7814  0.1849 -0.1345
  154SAPE    HA17100   2.746   3.525  10.456 -1.2290  0.0200  0.5133
  154SAPE    HB17101   2.831   3.401  10.377 -1.2759 -2.5922 -0.1492
  154SAPE    C217102   2.629   3.424  10.298 -0.7889  0.3022  0.3930
  154SAPE    HS17103   2.529   3.447  10.339 -2.0486 -0.1440 -2.2256
  154SAPE   O2117104   2.646   3.288  10.242 -0.2722 -0.1213  0.3310
  154SAPE   C2117105   2.552   3.257  10.163  0.2649 -0.4329 -0.1208
  154SAPE   O2217106   2.446   3.318  10.151  0.0133  0.2308  0.1890
  154SAPE   C2217107   2.580   3.125  10.095 -1.1080  0.0709 -0.0512
  154SAPE   H2R17108   2.682   3.116  10.053 -0.5503 -2.6568  1.5872
  154SAPE   H2S17109   2.571   3.056  10.182 -0.1659 -1.2902 -0.9993
  154SAPE    C317110   2.675   3.538  10.195 -0.2338  0.1451  0.4661
  154SAPE    HX17111   2.656   3.635  10.246  1.9958  1.4613 -1.0489
  154SAPE    HY17112   2.609   3.529  10.106  2.4838  1.3834 -1.8375
  154SAPE   O3117113   2.815   3.522  10.157  0.1919 -0.3394 -0.3286
  154SAPE   C3117114   2.846   3.448  10.052 -0.5042 -0.0058  0.7158
  154SAPE   O3217115   2.771   3.403   9.969  0.4154  0.3059  0.0618
  154SAPE   C3217116   3.001   3.418  10.042  0.3567  0.0564 -0.0243
  154SAPE   H2X17117   3.020   3.346  10.124  2.2931 -0.8357 -1.1786
  154SAPE   H2Y17118   3.045   3.517  10.069 -3.3964  1.3045  2.2120
  154SAPE   C2317119   2.470   3.097   9.992  0.6576  0.4349 -0.1831
  154SAPE   H3R17120   2.375   3.098  10.050  1.6032  3.8887  1.5693
  154SAPE   H3S17121   2.479   2.989   9.965  0.8141  0.0026  1.4998
  154SAPE   C2417122   2.466   3.192   9.871  0.2885  0.2157 -0.0086
  154SAPE   H4R17123   2.565   3.202   9.821 -0.2207  0.8804 -0.9116
  154SAPE   H4S17124   2.443   3.297   9.901  0.1299 -0.0326  0.7571
  154SAPE   C2517125   2.367   3.130   9.774  0.8457  0.4041  0.2671
  154SAPE   H5R17126   2.272   3.107   9.823 -0.1111  0.5657 -1.4346
  154SAPE   C2617127   2.372   3.106   9.643  0.2519  0.1557  0.0887
  154SAPE   H6R17128   2.291   3.061   9.584  3.0251 -1.6262 -2.6813
  154SAPE   C2717129   2.488   3.141   9.545 -0.0538 -0.0842 -0.7767
  154SAPE   H7R17130   2.573   3.189   9.599  1.6052 -0.8743 -2.5357
  154SAPE   H7S17131   2.457   3.219   9.472 -0.3637  1.0614  0.5406
  154SAPE   C2817132   2.532   3.019   9.469  0.3660  0.4193 -0.0491
  154SAPE   H8R17133   2.630   2.980   9.501  0.7153  0.5005 -0.9877
  154SAPE   C2917134   2.485   2.965   9.359  1.4730 -0.0289 -0.6109
  154SAPE   H9R17135   2.515   2.866   9.323  2.0922 -0.7756  1.8264
  154SAPE  C21017136   2.361   3.007   9.283 -0.7894 -0.2164 -0.4286
  154SAPE  H10R17137   2.307   3.062   9.363  3.0240  2.3593  0.6938
  154SAPE  H10S17138   2.308   2.914   9.255 -0.6445 -0.3088 -0.3982
  154SAPE  C21117139   2.391   3.102   9.173 -0.2258  0.2547  1.0035
  154SAPE  H11R17140   2.418   3.203   9.209 -0.2438  0.5228  0.2928
  154SAPE  C21217141   2.371   3.085   9.045 -0.2188  0.1658  0.3051
  154SAPE  H12R17142   2.398   3.166   8.975  1.9919 -1.7550 -1.2275
  154SAPE  C21317143   2.310   2.966   8.973 -0.6998 -0.0042 -0.4949
  154SAPE  H13R17144   2.320   2.875   9.036 -0.6764  0.8387  0.7512
  154SAPE  H13S17145   2.374   2.943   8.885 -0.3585 -1.5686  0.1318
  154SAPE  C21417146   2.170   2.997   8.930 -0.1018 -0.0800  0.5253
  154SAPE  H14R17147   2.158   3.057   8.838 -0.8172 -1.4867 -0.3300
  154SAPE  C21517148   2.048   2.968   8.991 -0.1332  0.4377 -0.2208
  154SAPE  H15R17149   1.956   2.989   8.935 -0.7210 -1.6274 -0.1151
  154SAPE  C21617150   2.019   2.890   9.119  0.1724  0.1253 -0.3554
  154SAPE  H16R17151   1.944   2.937   9.186 -1.5367 -0.6436 -1.6473
  154SAPE  H16S17152   2.106   2.872   9.185 -1.1411 -2.6737  0.7795
  154SAPE  C21717153   1.971   2.747   9.076 -0.1072 -0.4120 -0.3990
  154SAPE  H17R17154   1.936   2.693   9.167 -0.6410  0.8743  0.1844
  154SAPE  H17S17155   2.046   2.688   9.020 -0.2939 -2.0872  1.0125
  154SAPE  C21817156   1.864   2.742   8.966 -0.6693  0.0192  0.1854
  154SAPE  H18R17157   1.904   2.796   8.877 -0.7519 -1.4375 -0.7726
  154SAPE  H18S17158   1.776   2.801   9.000 -0.4917  0.4842 -0.1434
  154SAPE  C21917159   1.826   2.594   8.933 -0.3245 -0.9454 -0.5331
  154SAPE  H19R17160   1.916   2.536   8.964  0.8755 -0.4729 -2.8421
  154SAPE  H19S17161   1.813   2.582   8.823 -0.8633 -1.1302 -0.4507
  154SAPE  C22017162   1.698   2.549   9.002 -0.1562 -0.0214 -0.8406
  154SAPE  H20R17163   1.724   2.512   9.104  1.2322  0.0087 -1.1582
  154SAPE  H20S17164   1.648   2.474   8.937 -1.5970  1.8025 -1.9196
  154SAPE  H20T17165   1.633   2.639   9.005 -0.1410 -0.0297  0.1764
  154SAPE   C3317166   3.042   3.363   9.911  0.0028  0.6161  0.4234
  154SAPE   H3X17167   3.152   3.365   9.893 -0.3375  0.4846 -1.8421
  154SAPE   H3Y17168   2.989   3.418   9.831 -2.5125 -0.7755  1.0385
  154SAPE   C3417169   3.017   3.212   9.903  0.9611 -0.4351  0.0306
  154SAPE   H4X17170   2.918   3.190   9.948  0.0853  0.2151 -1.4722
  154SAPE   H4Y17171   3.103   3.165   9.954  0.2993 -0.2492  1.3617
  154SAPE   C3517172   3.007   3.146   9.759  0.4102 -0.1239 -0.5416
  154SAPE   H5X17173   2.918   3.181   9.702  0.2025  0.3875  0.0828
  154SAPE   H5Y17174   2.995   3.038   9.782  3.0970 -0.2029  0.9246
  154SAPE   C3617175   3.132   3.169   9.669  0.0698  0.4641 -0.2168
  154SAPE   H6X17176   3.218   3.146   9.736 -1.1989 -3.2163  0.4218
  154SAPE   H6Y17177   3.134   3.270   9.625  0.1139 -0.0637 -1.4681
  154SAPE   C3717178   3.150   3.054   9.565 -0.0178 -0.1680  0.2678
  154SAPE   H7X17179   3.111   2.956   9.601  1.0874 -0.3106  1.1024
  154SAPE   H7Y17180   3.257   3.036   9.544 -0.1892 -0.4030 -0.4411
  154SAPE   C3817181   3.078   3.082   9.429 -0.1246 -0.0476 -0.4145
  154SAPE   H8X17182   2.972   3.114   9.442 -0.4352 -0.8332 -0.9141
  154SAPE   H8Y17183   3.070   2.981   9.384 -0.1677 -0.6960  1.0216
  154SAPE   C3917184   3.155   3.177   9.332 -0.1888 -0.1071 -0.8279
  154SAPE   H9X17185   3.264   3.186   9.346 -0.4859  0.0667  2.1573
  154SAPE   H9Y17186   3.125   3.284   9.340  2.6464  0.6156  1.6205
  154SAPE  C31017187   3.150   3.122   9.187 -0.1762  0.0610 -0.5100
  154SAPE  H10X17188   3.040   3.119   9.169  0.1453 -0.7322 -2.7878
  154SAPE  H10Y17189   3.184   3.016   9.188 -0.2226  0.0507 -0.1017
  154SAPE  C31117190   3.214   3.201   9.071 -0.5540  0.1025  0.2129
  154SAPE  H11X17191   3.324   3.203   9.083 -0.4955 -0.6796 -0.1646
  154SAPE  H11Y17192   3.175   3.305   9.059  1.1663  0.8328  0.6101
  154SAPE  C31217193   3.179   3.143   8.936 -0.3796  0.0213 -0.1781
  154SAPE  H12X17194   3.198   3.218   8.856  3.2098  0.0982  0.5855
  154SAPE  H12Y17195   3.073   3.110   8.928 -0.0005 -1.5310  0.8397
  154SAPE  C31317196   3.253   3.014   8.913 -0.0590  0.2248 -0.1770
  154SAPE  H13X17197   3.246   2.946   9.000 -1.8316 -0.3832 -0.7447
  154SAPE  H13Y17198   3.356   3.047   8.887 -1.4339  3.7297 -1.8679
  154SAPE  C31417199   3.198   2.926   8.799 -0.3401  0.3303  0.2214
  154SAPE  H14X17200   3.152   3.000   8.729 -0.9288  0.4142  0.6892
  154SAPE  H14Y17201   3.112   2.861   8.829 -1.9196  2.5678  0.7674
  154SAPE  C31517202   3.302   2.837   8.734 -0.3072 -0.8593  0.7203
  154SAPE  H15X17203   3.325   2.755   8.806  1.2912  0.6161  1.9814
  154SAPE  H15Y17204   3.398   2.890   8.720 -1.5311  1.0886 -0.7890
  154SAPE  C31617205   3.264   2.763   8.600  0.2244 -0.3812 -0.3448
  154SAPE  H16X17206   3.346   2.697   8.564 -1.8722 -1.8552 -2.8073
  154SAPE  H16Y17207   3.252   2.848   8.529  0.0620 -0.6728 -0.6710
  154SAPE  C31717208   3.140   2.670   8.608 -0.0960  0.2099 -0.7746
  154SAPE  H17X17209   3.126   2.613   8.514 -0.1225 -1.1707  0.0279
  154SAPE  H17Y17210   3.060   2.747   8.615  0.6836  0.8634  2.1847
  154SAPE  C31817211   3.137   2.570   8.721 -0.2589 -0.7026 -0.5686
  154SAPE  H18X17212   3.199   2.480   8.700  0.0328 -0.3211 -1.3819
  154SAPE  H18Y17213   3.034   2.532   8.741 -0.0493  0.7819  4.6862
  154SAPE  H18Z17214   3.165   2.623   8.814 -0.2313 -0.5757 -0.6490
  155SAPE     N17215   1.800   4.603  10.824 -0.1999  0.4186 -0.1047
  155SAPE   HN117216   1.811   4.704  10.843  0.7120  0.0161  1.8691
  155SAPE   HN217217   1.755   4.588  10.732 -0.5737 -1.9550  0.3936
  155SAPE   HN317218   1.738   4.559  10.896  0.8623  0.3453  0.8041
  155SAPE   C1217219   1.933   4.527  10.811 -0.3107 -0.4663  1.0263
  155SAPE  H12A17220   1.913   4.419  10.828 -1.1979 -0.4644  0.0884
  155SAPE  H12B17221   2.002   4.570  10.887  1.5017 -2.1968  0.4309
  155SAPE   C1117222   2.000   4.540  10.669 -0.4289  0.1719  0.1963
  155SAPE  H11A17223   1.966   4.456  10.605 -2.0685  0.1361  1.0571
  155SAPE  H11B17224   2.110   4.542  10.686 -0.0907  1.2223 -1.8201
  155SAPE     P17225   2.042   4.715  10.476  0.1682 -0.3649 -0.3267
  155SAPE   O1317226   2.177   4.768  10.515  0.7012  0.0318  0.2159
  155SAPE   O1417227   2.028   4.620  10.367 -0.2597 -0.0622  0.4158
  155SAPE   O1217228   1.963   4.659  10.600  0.0640 -0.3093  0.3447
  155SAPE   O1117229   1.945   4.839  10.455 -0.2373  0.1846  0.4485
  155SAPE    C117230   2.000   4.976  10.441  0.1478  0.0081 -0.0112
  155SAPE    HA17231   1.918   5.051  10.445  0.4976  0.5561 -2.1197
  155SAPE    HB17232   2.072   4.996  10.524 -1.6959 -2.2915  2.2906
  155SAPE    C217233   2.040   5.027  10.293  0.0032  0.0495 -0.0059
  155SAPE    HS17234   1.947   5.052  10.239  0.0019 -2.1925 -1.1400
  155SAPE   O2117235   2.127   4.915  10.240  0.1209 -0.7649 -0.1557
  155SAPE   C2117236   2.062   4.853  10.143 -0.5387 -0.1658  0.1262
  155SAPE   O2217237   1.954   4.885  10.096  0.2870 -0.2196  0.1213
  155SAPE   C2217238   2.145   4.736  10.088 -0.3808  0.2977 -0.5269
  155SAPE   H2R17239   2.239   4.726  10.145 -0.6589  0.9160  0.0540
  155SAPE   H2S17240   2.077   4.649  10.102 -0.4267  0.4843  0.4782
  155SAPE    C317241   2.118   5.156  10.307  0.3354  0.6577 -0.5320
  155SAPE    HX17242   2.203   5.137  10.376 -1.3108 -0.8971  1.1888
  155SAPE    HY17243   2.061   5.235  10.361 -0.1832  1.8187 -2.6816
  155SAPE   O3117244   2.143   5.203  10.178  0.1499 -0.6050  0.1176
  155SAPE   C3117245   2.264   5.162  10.139  0.3813  0.0392  0.3303
  155SAPE   O3217246   2.347   5.103  10.207 -0.4369 -0.3889  0.2719
  155SAPE   C3217247   2.299   5.213  10.009 -0.3525  0.3122 -0.1942
  155SAPE   H2X17248   2.327   5.321  10.008  1.2626 -0.0647  0.6680
  155SAPE   H2Y17249   2.211   5.210   9.941 -1.7871  3.7623  1.2854
  155SAPE   C2317250   2.173   4.735   9.941 -0.2301 -0.1111 -0.5130
  155SAPE   H3R17251   2.218   4.827   9.898  2.2527 -0.2141  1.5921
  155SAPE   H3S17252   2.083   4.722   9.878 -1.7557  0.5154  1.4407
  155SAPE   C2417253   2.284   4.629   9.891 -0.5460  0.7327 -0.2595
  155SAPE   H4R17254   2.382   4.651   9.940 -0.1977  0.4494 -0.8208
  155SAPE   H4S17255   2.289   4.640   9.781  0.7489  2.4764 -0.0715
  155SAPE   C2517256   2.263   4.487   9.923 -0.4033  0.6815  0.6064
  155SAPE   H5R17257   2.200   4.450  10.005 -1.3312 -0.7117 -0.6672
  155SAPE   C2617258   2.326   4.381   9.863 -0.1669 -0.0928  0.2133
  155SAPE   H6R17259   2.305   4.279   9.898  0.8258 -0.3542  0.0905
  155SAPE   C2717260   2.431   4.387   9.753 -0.5719 -0.6106 -0.5604
  155SAPE   H7R17261   2.516   4.344   9.810 -2.1358 -0.4130  2.0657
  155SAPE   H7S17262   2.458   4.486   9.712 -1.3213 -0.8280 -1.6237
  155SAPE   C2817263   2.395   4.298   9.641 -0.1400 -0.5042 -0.2167
  155SAPE   H8R17264   2.424   4.193   9.654  0.4688 -0.2300  0.7761
  155SAPE   C2917265   2.314   4.330   9.536 -0.6542  0.6302 -0.0103
  155SAPE   H9R17266   2.308   4.257   9.454  1.6420  1.3612 -0.9259
  155SAPE  C21017267   2.258   4.467   9.503  1.1517 -0.2367 -0.2819
  155SAPE  H10R17268   2.313   4.505   9.415 -1.2705  1.8401 -0.9946
  155SAPE  H10S17269   2.265   4.541   9.585 -1.3057 -0.7222  0.4626
  155SAPE  C21117270   2.110   4.452   9.460 -0.1829 -0.0465 -0.3193
  155SAPE  H11R17271   2.044   4.440   9.547 -1.5840 -1.0762 -1.4802
  155SAPE  C21217272   2.065   4.428   9.338  0.3938  0.1143  0.3747
  155SAPE  H12R17273   1.957   4.417   9.321  0.4154 -0.4719  0.5669
  155SAPE  C21317274   2.144   4.403   9.209 -0.0489  0.4313 -0.4314
  155SAPE  H13R17275   2.253   4.402   9.231  0.1069 -0.3915 -1.1694
  155SAPE  H13S17276   2.130   4.490   9.142 -1.9076  0.7970  0.3791
  155SAPE  C21417277   2.114   4.270   9.141 -0.2422  0.3631  0.4410
  155SAPE  H14R17278   2.006   4.259   9.123 -0.2468  0.2289  0.5445
  155SAPE  C21517279   2.190   4.174   9.093 -0.0498 -0.2377  0.1849
  155SAPE  H15R17280   2.135   4.101   9.033  0.8511  0.2918 -1.3616
  155SAPE  C21617281   2.335   4.154   9.092 -0.2788  0.1538  0.5457
  155SAPE  H16R17282   2.370   4.059   9.138 -0.9800  0.5002  1.8402
  155SAPE  H16S17283   2.393   4.213   9.167 -1.5081  0.3146  1.3983
  155SAPE  C21717284   2.406   4.165   8.959 -0.1174 -0.8010  0.2403
  155SAPE  H17R17285   2.514   4.158   8.983  0.2483 -0.2027 -1.1861
  155SAPE  H17S17286   2.398   4.262   8.906 -1.4787 -1.9190 -1.7279
  155SAPE  C21817287   2.384   4.055   8.853  0.6135 -0.3585  0.2744
  155SAPE  H18R17288   2.276   4.042   8.831  0.4685  1.5944 -0.3567
  155SAPE  H18S17289   2.415   3.960   8.903 -1.3720 -1.4531 -0.4570
  155SAPE  C21917290   2.461   4.075   8.725 -0.1469  0.0463 -0.1420
  155SAPE  H19R17291   2.570   4.070   8.749  0.5801 -0.1262 -3.0981
  155SAPE  H19S17292   2.449   4.181   8.694  1.2182 -0.0690 -1.1738
  155SAPE  C22017293   2.447   3.981   8.600 -1.0507  0.4334 -0.3749
  155SAPE  H20R17294   2.353   3.977   8.541 -1.1928  0.4885 -0.1525
  155SAPE  H20S17295   2.487   3.884   8.637 -1.6576 -0.0926 -1.0578
  155SAPE  H20T17296   2.523   4.015   8.526  2.4376 -1.6194  1.9830
  155SAPE   C3317297   2.424   5.133   9.947  0.1591 -0.1606 -0.0941
  155SAPE   H3X17298   2.415   5.023   9.940  2.4554 -0.4425  0.6125
  155SAPE   H3Y17299   2.509   5.152  10.016 -0.3550  0.1474  0.4678
  155SAPE   C3417300   2.449   5.184   9.800  0.5974 -0.1986 -0.0833
  155SAPE   H4X17301   2.557   5.159   9.795  0.2590 -2.1226  1.1192
  155SAPE   H4Y17302   2.433   5.292   9.781 -1.6994 -0.1145  1.9246
  155SAPE   C3517303   2.376   5.095   9.693  0.2483 -0.8937  0.8058
  155SAPE   H5X17304   2.271   5.091   9.727  0.5763 -2.6421  1.7206
  155SAPE   H5Y17305   2.414   4.991   9.704  0.2254 -1.0267 -0.2893
  155SAPE   C3617306   2.390   5.143   9.550 -0.2082  0.1546  0.0752
  155SAPE   H6X17307   2.494   5.123   9.517 -0.8262 -1.5589 -1.0069
  155SAPE   H6Y17308   2.374   5.253   9.550 -0.2826  0.1538  1.1636
  155SAPE   C3717309   2.304   5.062   9.453 -0.2562  0.7984  0.5641
  155SAPE   H7X17310   2.307   5.110   9.353  0.8662  0.5519  0.4632
  155SAPE   H7Y17311   2.197   5.059   9.481 -0.1390  0.3671  0.9705
  155SAPE   C3817312   2.354   4.919   9.440 -0.3923 -0.4862 -0.1516
  155SAPE   H8X17313   2.363   4.864   9.536  1.9588 -0.2495 -0.1665
  155SAPE   H8Y17314   2.458   4.918   9.401  0.2229  0.5602  1.3646
  155SAPE   C3917315   2.273   4.834   9.348  0.3706  0.6291  0.7995
  155SAPE   H9X17316   2.165   4.845   9.371  0.1104  0.6104 -0.3824
  155SAPE   H9Y17317   2.305   4.727   9.351  0.7369  0.6154 -1.6158
  155SAPE  C31017318   2.290   4.883   9.207  0.0437 -0.6253 -0.4760
  155SAPE  H10X17319   2.396   4.917   9.203  0.2704  0.7431  6.3007
  155SAPE  H10Y17320   2.224   4.971   9.194 -0.1154 -0.6346  0.2718
  155SAPE  C31117321   2.259   4.783   9.103  0.4330  0.2328 -0.3966
  155SAPE  H11X17322   2.149   4.776   9.088  0.3761  0.8816 -0.3419
  155SAPE  H11Y17323   2.305   4.686   9.130  0.3744  0.2117 -0.3734
  155SAPE  C31217324   2.319   4.823   8.966  1.0814 -0.0973 -0.6311
  155SAPE  H12X17325   2.429   4.803   8.964  1.0122 -0.7510  0.7986
  155SAPE  H12Y17326   2.291   4.930   8.955 -0.8906 -0.7293 -2.3372
  155SAPE  C31317327   2.246   4.761   8.848  0.3504  0.1586 -0.4771
  155SAPE  H13X17328   2.285   4.786   8.747 -2.0559  0.5510 -1.3748
  155SAPE  H13Y17329   2.140   4.789   8.865 -0.4700 -1.2852 -2.7207
  155SAPE  C31417330   2.269   4.610   8.837  0.7779 -0.6932 -0.8134
  155SAPE  H14X17331   2.255   4.553   8.931  3.5952  1.3424  0.9786
  155SAPE  H14Y17332   2.373   4.598   8.799  1.4836  2.3913 -0.1045
  155SAPE  C31517333   2.172   4.542   8.734 -0.5725  0.0431  0.1622
  155SAPE  H15X17334   2.195   4.589   8.636 -1.8799 -0.4386 -0.3939
  155SAPE  H15Y17335   2.066   4.557   8.765 -0.9973 -1.5135 -0.4751
  155SAPE  C31617336   2.197   4.392   8.729 -0.2711  0.5915 -0.7618
  155SAPE  H16X17337   2.190   4.350   8.831 -1.1706  1.3611 -0.4910
  155SAPE  H16Y17338   2.303   4.382   8.699  0.4838  0.3271  1.8297
  155SAPE  C31717339   2.105   4.320   8.637  0.5951  0.3864 -0.3497
  155SAPE  H17X17340   2.137   4.222   8.596  1.3121  1.3835 -2.3162
  155SAPE  H17Y17341   2.078   4.380   8.548 -1.0722 -1.5455 -1.2418
  155SAPE  C31817342   1.985   4.305   8.737  0.3545  0.0636 -0.3051
  155SAPE  H18X17343   1.995   4.222   8.810 -1.7931  0.5980  0.7014
  155SAPE  H18Y17344   1.901   4.267   8.675 -0.9015  0.7692  0.9093
  155SAPE  H18Z17345   1.943   4.399   8.779 -1.0356 -0.2855 -0.8588
  156SAPE     N17346   0.490   2.634  10.179 -0.2163  0.3034 -0.6570
  156SAPE   HN117347   0.555   2.598  10.252  0.1315  1.6737 -0.2525
  156SAPE   HN217348   0.554   2.659  10.101  0.4714 -0.6124 -0.4033
  156SAPE   HN317349   0.457   2.728  10.210  3.1379  1.3251  0.2517
  156SAPE   C1217350   0.389   2.534  10.137  0.4583 -0.2086 -0.7625
  156SAPE  H12A17351   0.373   2.560  10.030  2.4226 -0.7291 -1.2213
  156SAPE  H12B17352   0.304   2.546  10.207  1.0251 -1.8575  0.2480
  156SAPE   C1117353   0.451   2.390  10.150  0.4171  0.2780 -0.3071
  156SAPE  H11A17354   0.504   2.377  10.054 -0.9437 -0.1495 -1.0332
  156SAPE  H11B17355   0.366   2.319  10.161  0.0896  0.8150  0.7913
  156SAPE     P17356   0.617   2.238  10.287 -0.2110 -0.6012 -0.5053
  156SAPE   O1317357   0.754   2.275  10.261  0.3349 -0.0421 -0.4781
  156SAPE   O1417358   0.580   2.188  10.420  0.9897  0.4699 -0.2515
  156SAPE   O1217359   0.530   2.373  10.268 -0.2312  0.3269 -0.3077
  156SAPE   O1117360   0.568   2.144  10.172  1.2252  0.4774  0.1954
  156SAPE    C117361   0.649   2.034  10.128 -0.2456  0.5713  0.8570
  156SAPE    HA17362   0.724   1.990  10.196 -1.7462  0.1381  2.2874
  156SAPE    HB17363   0.581   1.953  10.094 -1.4066  2.4049 -1.5766
  156SAPE    C217364   0.714   2.076   9.991  0.1852  0.4134 -0.2322
  156SAPE    HS17365   0.792   2.154  10.003  0.9176 -0.4361  0.6306
  156SAPE   O2117366   0.606   2.107   9.900 -0.4988 -0.0280 -0.4726
  156SAPE   C2117367   0.653   2.157   9.782  0.3406  0.1952 -0.5626
  156SAPE   O2217368   0.763   2.201   9.771 -0.5817 -0.8390 -0.2183
  156SAPE   C2217369   0.548   2.167   9.684  0.2049  0.1243  0.2437
  156SAPE   H2R17370   0.462   2.212   9.738  0.8663  1.2894  0.3577
  156SAPE   H2S17371   0.575   2.237   9.602 -2.1265  1.9512  0.9489
  156SAPE    C317372   0.812   1.953   9.958 -0.6141 -0.2933  0.8460
  156SAPE    HX17373   0.746   1.872   9.921  0.9258 -0.9626 -0.5168
  156SAPE    HY17374   0.865   1.917  10.049  1.4755 -2.4919 -1.1076
  156SAPE   O3117375   0.904   1.980   9.850 -0.4833 -0.5186  0.5011
  156SAPE   C3117376   1.004   2.068   9.860 -0.0034 -0.2059  0.5104
  156SAPE   O3217377   1.038   2.119   9.967  0.1224  0.1465 -0.1509
  156SAPE   C3217378   1.055   2.117   9.721 -0.0284  0.2730 -0.4340
  156SAPE   H2X17379   0.975   2.085   9.650 -1.5407 -1.3027  1.7991
  156SAPE   H2Y17380   1.142   2.051   9.703 -0.7790 -0.8714 -0.0141
  156SAPE   C2317381   0.506   2.029   9.626 -0.3279  0.5729  0.6372
  156SAPE   H3R17382   0.420   2.034   9.557  0.6198 -1.0454 -0.7319
  156SAPE   H3S17383   0.458   1.972   9.708 -1.3912 -1.7102 -1.4688
  156SAPE   C2417384   0.612   1.936   9.562 -0.0017  0.5774 -0.2476
  156SAPE   H4R17385   0.573   1.838   9.527  1.7063  0.4257 -1.9241
  156SAPE   H4S17386   0.687   1.902   9.636 -0.6214 -3.4371 -1.1874
  156SAPE   C2517387   0.676   2.019   9.448  0.0574 -0.3423 -0.0026
  156SAPE   H5R17388   0.741   2.104   9.476 -0.3404 -0.0614  0.0763
  156SAPE   C2617389   0.661   1.999   9.315  0.1181  0.2616 -0.0019
  156SAPE   H6R17390   0.719   2.064   9.248  1.5455 -0.6600  0.2826
  156SAPE   C2717391   0.570   1.887   9.256 -0.3316 -0.1008  0.3704
  156SAPE   H7R17392   0.590   1.784   9.292 -0.8867 -0.0160  0.9379
  156SAPE   H7S17393   0.598   1.886   9.148 -0.3768  1.7015  0.3163
  156SAPE   C2817394   0.429   1.926   9.263 -0.2137  0.3075 -1.0448
  156SAPE   H8R17395   0.384   1.920   9.363  0.8827 -2.0445 -0.6367
  156SAPE   C2917396   0.353   1.961   9.157 -0.8673 -0.4294 -0.1296
  156SAPE   H9R17397   0.253   2.004   9.176 -0.6815  0.8218 -1.7878
  156SAPE  C21017398   0.398   1.978   9.011  0.4544  0.3357  0.2113
  156SAPE  H10R17399   0.497   2.027   9.012  1.1706 -0.9918 -1.0801
  156SAPE  H10S17400   0.322   2.038   8.955  0.1641  0.5660  0.8478
  156SAPE  C21117401   0.412   1.840   8.948 -0.6045 -0.5664  0.5581
  156SAPE  H11R17402   0.459   1.765   9.013  1.5843  0.1723 -0.0777
  156SAPE  C21217403   0.419   1.818   8.810  1.0532 -0.4559  0.5083
  156SAPE  H12R17404   0.441   1.718   8.768 -2.5936 -1.4556  0.6563
  156SAPE  C21317405   0.392   1.920   8.704 -0.2263 -0.1112  1.0058
  156SAPE  H13R17406   0.441   2.015   8.735  2.9226 -1.5236  0.7703
  156SAPE  H13S17407   0.285   1.941   8.685  0.2936  0.8286 -1.3046
  156SAPE  C21417408   0.458   1.876   8.574  0.3798  0.1070  0.0134
  156SAPE  H14R17409   0.568   1.868   8.576  0.5814  2.0269 -0.5451
  156SAPE  C21517410   0.399   1.841   8.458  0.2929 -0.5285  0.0919
  156SAPE  H15R17411   0.457   1.813   8.369 -0.5560  2.1951 -1.4438
  156SAPE  C21617412   0.245   1.845   8.434  0.6694  0.0739 -0.5385
  156SAPE  H16R17413   0.201   1.946   8.443 -0.2198 -0.4744  1.9401
  156SAPE  H16S17414   0.189   1.775   8.499 -0.0150  0.1269 -1.0637
  156SAPE  C21717415   0.214   1.789   8.293  0.1160 -0.6740 -0.3434
  156SAPE  H17R17416   0.104   1.801   8.287  0.1432 -0.2644 -0.0799
  156SAPE  H17S17417   0.254   1.686   8.280  1.3901 -0.1616 -0.7002
  156SAPE  C21817418   0.268   1.884   8.183  0.4384  0.6779  0.2067
  156SAPE  H18R17419   0.376   1.872   8.160  0.6271  2.3568  0.0474
  156SAPE  H18S17420   0.257   1.988   8.219 -0.1585  1.5012 -2.1422
  156SAPE  C21917421   0.192   1.867   8.046 -0.1703 -0.3284 -0.5033
  156SAPE  H19R17422   0.090   1.898   8.078  1.6815  2.3108  3.8402
  156SAPE  H19S17423   0.201   1.764   8.005  3.1381 -0.6119  0.6032
  156SAPE  C22017424   0.241   1.962   7.939 -0.0068 -0.0469 -1.0411
  156SAPE  H20R17425   0.160   2.006   7.877  0.0729  0.1823 -0.9796
  156SAPE  H20S17426   0.315   1.904   7.879 -0.5691 -0.4902 -1.3249
  156SAPE  H20T17427   0.296   2.044   7.989 -2.3556  1.1963 -0.3542
  156SAPE   C3317428   1.081   2.273   9.721 -0.2852  0.2881 -0.0411
  156SAPE   H3X17429   1.157   2.308   9.794 -1.6716 -0.6491  1.9601
  156SAPE   H3Y17430   0.988   2.317   9.764 -0.6242  0.2199 -0.6861
  156SAPE   C3417431   1.107   2.333   9.581  0.2671 -0.4737 -0.2560
  156SAPE   H4X17432   1.208   2.303   9.545  1.0281  0.5683  0.9603
  156SAPE   H4Y17433   1.109   2.441   9.605 -0.8707 -0.3909 -0.4900
  156SAPE   C3517434   0.991   2.315   9.477  0.2179  0.0091 -0.3914
  156SAPE   H5X17435   0.892   2.343   9.519 -1.0454  0.3205 -3.3834
  156SAPE   H5Y17436   0.983   2.209   9.446  1.1403  0.1863 -1.2844
  156SAPE   C3617437   1.009   2.398   9.346 -0.4281  0.1855 -0.7516
  156SAPE   H6X17438   1.110   2.377   9.305 -1.5485 -1.9891 -2.6761
  156SAPE   H6Y17439   0.995   2.505   9.372 -1.4028 -0.1374  0.1348
  156SAPE   C3717440   0.909   2.359   9.230 -0.6454  0.0145 -0.1705
  156SAPE   H7X17441   0.883   2.451   9.173 -2.9179 -1.6709 -2.0517
  156SAPE   H7Y17442   0.814   2.333   9.281 -1.6048 -0.5723 -2.1745
  156SAPE   C3817443   0.956   2.245   9.141  0.1500 -0.1497 -0.4321
  156SAPE   H8X17444   0.963   2.154   9.204 -0.7674 -0.3340 -0.5818
  156SAPE   H8Y17445   1.058   2.274   9.106  1.0511  1.0721  2.8931
  156SAPE   C3917446   0.848   2.212   9.034 -0.6356 -0.6460  0.8738
  156SAPE   H9X17447   0.823   2.304   8.978  1.6970  0.2342  1.1662
  156SAPE   H9Y17448   0.760   2.165   9.082 -0.1579 -1.3471  1.0870
  156SAPE  C31017449   0.904   2.104   8.941 -0.1580  0.0821 -0.1170
  156SAPE  H10X17450   0.929   2.006   8.987  2.2698  0.2806 -0.8641
  156SAPE  H10Y17451   0.998   2.147   8.902 -1.5496  0.8202 -2.9415
  156SAPE  C31117452   0.812   2.067   8.823  0.1901  0.0917  0.7080
  156SAPE  H11X17453   0.809   2.162   8.767  0.5928  1.2667  2.5855
  156SAPE  H11Y17454   0.709   2.038   8.854  0.3707  1.1341  2.4329
  156SAPE  C31217455   0.867   1.944   8.749 -0.7198 -0.1957 -0.7792
  156SAPE  H12X17456   0.795   1.915   8.670 -0.1929 -1.3469 -0.8688
  156SAPE  H12Y17457   0.861   1.855   8.816 -0.2336 -0.2209 -0.7640
  156SAPE  C31317458   1.007   1.959   8.688  0.5991 -0.5046  0.1529
  156SAPE  H13X17459   1.050   1.870   8.635 -0.7910 -0.1812 -1.6270
  156SAPE  H13Y17460   1.074   1.965   8.776 -2.9538  0.2380  3.0553
  156SAPE  C31417461   1.018   2.081   8.592  0.0537  0.6047  0.2235
  156SAPE  H14X17462   1.114   2.068   8.537  1.2925 -1.7112  2.6571
  156SAPE  H14Y17463   1.030   2.171   8.655 -0.0907  1.7729 -1.3510
  156SAPE  C31517464   0.899   2.097   8.497  0.4353 -0.4177 -0.2213
  156SAPE  H15X17465   0.807   2.128   8.551  1.4547  2.6721 -0.0403
  156SAPE  H15Y17466   0.873   1.996   8.459 -0.1939 -0.6959  0.9080
  156SAPE  C31617467   0.908   2.198   8.378  0.4461 -0.1094  0.3643
  156SAPE  H16X17468   0.937   2.156   8.279  1.5901  1.2692  0.0773
  156SAPE  H16Y17469   0.982   2.279   8.397  0.3196 -0.2144  1.3647
  156SAPE  C31717470   0.761   2.250   8.345  0.3541  0.5428  0.0896
  156SAPE  H17X17471   0.720   2.273   8.446 -0.9112 -1.9337  0.2061
  156SAPE  H17Y17472   0.703   2.170   8.294  0.6313  0.3326  0.0997
  156SAPE  C31817473   0.751   2.380   8.252  0.2130 -0.6072  0.3536
  156SAPE  H18X17474   0.644   2.412   8.246  0.1451 -1.0100 -0.6786
  156SAPE  H18Y17475   0.788   2.357   8.150 -1.8062  1.8676 -1.0475
  156SAPE  H18Z17476   0.807   2.469   8.289 -1.7352 -0.1662  2.5284
  157SAPE     N17477   5.905   1.982  10.787  0.3625  0.2977 -0.2570
  157SAPE   HN117478   6.009   1.989  10.781  0.4340 -0.6021 -0.1813
  157SAPE   HN217479   5.872   1.922  10.709 -0.9243 -0.8752  1.1371
  157SAPE   HN317480   5.852   2.071  10.780  0.9375  1.0114  3.0004
  157SAPE   C1217481   5.847   1.915  10.908  0.6097 -0.5368 -1.2887
  157SAPE  H12A17482   5.910   1.960  10.988 -0.2245 -1.5534 -0.0180
  157SAPE  H12B17483   5.869   1.806  10.912 -1.2651 -1.0889 -3.8789
  157SAPE   C1117484   5.696   1.941  10.931  0.1232 -0.6881 -0.4180
  157SAPE  H11A17485   5.678   2.050  10.941  3.2514 -0.0572 -0.5891
  157SAPE  H11B17486   5.684   1.907  11.036  2.4427  2.1810  0.9174
  157SAPE     P17487   5.482   1.954  10.768 -0.2026 -0.0107  0.1253
  157SAPE   O1317488   5.418   1.853  10.684 -0.0393  0.0790  0.3223
  157SAPE   O1417489   5.409   2.002  10.886 -0.6056 -0.5080  0.6647
  157SAPE   O1217490   5.615   1.890  10.821 -0.2062 -0.3508 -0.0881
  157SAPE   O1117491   5.528   2.069  10.679 -0.1134  0.2940 -0.3097
  157SAPE    C117492   5.522   2.056  10.535  0.4170  0.2050 -0.0731
  157SAPE    HA17493   5.490   1.958  10.494  2.2957 -0.6795  0.4737
  157SAPE    HB17494   5.452   2.130  10.491  0.6395  0.1715 -0.4859
  157SAPE    C217495   5.662   2.080  10.469 -0.0873  0.3916 -0.9807
  157SAPE    HS17496   5.732   2.041  10.546 -0.9171  2.0752  0.7142
  157SAPE   O2117497   5.675   2.223  10.446 -0.0600  0.1740 -0.3143
  157SAPE   C2117498   5.808   2.261  10.433  0.1854 -0.4891  0.0436
  157SAPE   O2217499   5.900   2.185  10.440 -0.7397  0.3419  0.2238
  157SAPE   C2217500   5.833   2.411  10.410  0.5093 -0.5119  0.3968
  157SAPE   H2R17501   5.742   2.441  10.354 -1.9440 -4.3184  1.9437
  157SAPE   H2S17502   5.837   2.448  10.515  0.9358 -0.7268  0.4586
  157SAPE    C317503   5.679   1.985  10.345 -0.3098  0.0432 -0.5553
  157SAPE    HX17504   5.639   1.884  10.367  0.2389 -0.0532  0.0330
  157SAPE    HY17505   5.789   1.974  10.339 -0.4724 -1.8940 -0.7121
  157SAPE   O3117506   5.625   2.051  10.232  0.5139 -0.1973 -0.8182
  157SAPE   C3117507   5.513   1.989  10.192 -0.6671  0.3330  0.1810
  157SAPE   O3217508   5.455   1.898  10.245  0.2635  0.2836 -0.9471
  157SAPE   C3217509   5.442   2.074  10.088 -0.4557 -0.3045  0.3454
  157SAPE   H2X17510   5.518   2.095  10.009 -1.5017  0.7873 -0.4088
  157SAPE   H2Y17511   5.424   2.178  10.123 -1.7382 -0.3916 -0.0123
  157SAPE   C2317512   5.965   2.444  10.329 -1.1751  0.2255  0.2138
  157SAPE   H3R17513   6.044   2.386  10.382  0.7677  1.2236 -1.4848
  157SAPE   H3S17514   5.986   2.551  10.349 -0.3474  0.0226  0.4838
  157SAPE   C2417515   5.958   2.407  10.175 -0.7348  0.1706 -0.9854
  157SAPE   H4R17516   6.059   2.436  10.137  0.4267 -0.2172  1.6211
  157SAPE   H4S17517   5.881   2.481  10.144  0.2209  1.4296 -0.4659
  157SAPE   C2517518   5.925   2.267  10.133 -0.3956 -0.5601  0.1672
  157SAPE   H5R17519   5.992   2.199  10.188  0.3795  1.6660  2.1458
  157SAPE   C2617520   5.836   2.218  10.042 -0.2079 -0.2346  0.5192
  157SAPE   H6R17521   5.834   2.109  10.048 -0.6660 -0.1530  2.8879
  157SAPE   C2717522   5.735   2.307   9.969 -0.2863  0.1386 -0.3448
  157SAPE   H7R17523   5.677   2.255   9.889 -4.3500  1.5572  1.4223
  157SAPE   H7S17524   5.794   2.388   9.921  0.0410  0.3692  0.4438
  157SAPE   C2817525   5.642   2.376  10.067 -0.5398 -0.6954  0.2132
  157SAPE   H8R17526   5.656   2.358  10.175  1.8886  0.4255  0.1550
  157SAPE   C2917527   5.549   2.467  10.031 -0.0988  0.7661  0.3259
  157SAPE   H9R17528   5.486   2.513  10.109 -2.6220 -0.2188 -1.0063
  157SAPE  C21017529   5.513   2.508   9.889 -0.6867  0.6539  0.0797
  157SAPE  H10R17530   5.563   2.451   9.807 -0.3481  1.0110  0.0329
  157SAPE  H10S17531   5.556   2.609   9.871  0.4920 -0.2031 -2.4098
  157SAPE  C21117532   5.362   2.510   9.870 -0.0249  0.9031  0.8123
  157SAPE  H11R17533   5.294   2.494   9.955 -1.7140 -0.5444 -0.7031
  157SAPE  C21217534   5.301   2.513   9.743  0.7354  0.3106 -0.0840
  157SAPE  H12R17535   5.192   2.514   9.740  0.7484  2.3115 -2.0707
  157SAPE  C21317536   5.375   2.521   9.612  0.0833  0.6756  0.2807
  157SAPE  H13R17537   5.473   2.470   9.622  0.3600  0.8670 -1.1897
  157SAPE  H13S17538   5.397   2.628   9.592  1.6075  0.1947 -0.7359
  157SAPE  C21417539   5.297   2.468   9.495 -0.6324 -0.5016  0.0120
  157SAPE  H14R17540   5.188   2.458   9.504 -0.5287 -2.4432 -0.5092
  157SAPE  C21517541   5.347   2.430   9.381 -0.3894  0.2120 -0.1709
  157SAPE  H15R17542   5.278   2.409   9.298  0.5781  0.5129 -1.0803
  157SAPE  C21617543   5.494   2.426   9.348  0.3961 -0.0204  0.3258
  157SAPE  H16R17544   5.564   2.466   9.425 -1.1960  0.5143  1.5362
  157SAPE  H16S17545   5.523   2.494   9.265  0.6822 -0.2130  0.2632
  157SAPE  C21717546   5.536   2.288   9.305  0.2329  0.5455  0.6993
  157SAPE  H17R17547   5.503   2.212   9.379  0.6687 -1.3147 -0.9374
  157SAPE  H17S17548   5.646   2.278   9.295  0.2669 -0.1196  1.5690
  157SAPE  C21817549   5.471   2.237   9.170  0.0080 -0.2105 -0.0896
  157SAPE  H18R17550   5.363   2.225   9.192  0.2097  0.8169  1.6151
  157SAPE  H18S17551   5.514   2.135   9.155 -1.3060 -1.0532  1.5489
  157SAPE  C21917552   5.499   2.320   9.047 -0.1205 -0.3152 -0.3317
  157SAPE  H19R17553   5.457   2.422   9.065  0.4470 -0.4770  2.3837
  157SAPE  H19S17554   5.451   2.270   8.960  0.4119 -0.1369 -0.7375
  157SAPE  C22017555   5.650   2.339   9.013  0.2651 -0.2718 -0.5700
  157SAPE  H20R17556   5.698   2.244   9.046  0.1756  0.4111  1.7449
  157SAPE  H20S17557   5.680   2.425   9.077 -0.1699 -0.8480  0.4427
  157SAPE  H20T17558   5.652   2.371   8.907  1.4611  0.6318 -0.3017
  157SAPE   C3317559   5.324   2.004  10.022  0.8900 -0.2780  0.2452
  157SAPE   H3X17560   5.229   2.025  10.076  0.9408  0.9536 -0.1052
  157SAPE   H3Y17561   5.338   1.894  10.032  2.5062 -0.0275  0.9877
  157SAPE   C3417562   5.306   2.038   9.874  0.7009 -0.4714  0.0932
  157SAPE   H4X17563   5.405   2.041   9.825  0.0287 -0.6659 -1.3316
  157SAPE   H4Y17564   5.264   2.141   9.869 -0.1099 -0.7345  1.1424
  157SAPE   C3517565   5.211   1.938   9.799 -0.2496 -0.1764  0.3239
  157SAPE   H5X17566   5.115   1.934   9.856 -1.8815  0.0967 -2.2460
  157SAPE   H5Y17567   5.249   1.834   9.800  1.2320  0.3026  2.5875
  157SAPE   C3617568   5.178   1.968   9.650 -0.0117 -0.7743  0.8686
  157SAPE   H6X17569   5.122   2.064   9.653  0.9678 -0.2072  1.7551
  157SAPE   H6Y17570   5.101   1.900   9.608 -2.3932  2.1020  0.2195
  157SAPE   C3717571   5.294   1.974   9.557  0.1782  0.1559 -0.8230
  157SAPE   H7X17572   5.336   1.872   9.547 -1.4018 -0.4879 -1.0568
  157SAPE   H7Y17573   5.376   2.034   9.603  0.3771  0.3157 -1.3748
  157SAPE   C3817574   5.265   2.022   9.412  0.7253  0.4097  0.2602
  157SAPE   H8X17575   5.366   2.038   9.369  2.3886 -2.8140  2.5154
  157SAPE   H8Y17576   5.207   2.117   9.409 -3.9346 -2.1767  0.3020
  157SAPE   C3917577   5.201   1.903   9.332 -0.5335  0.3210  0.5308
  157SAPE   H9X17578   5.097   1.892   9.369 -0.3790  0.6240  1.0650
  157SAPE   H9Y17579   5.265   1.816   9.359  2.5686  2.5405  0.9625
  157SAPE  C31017580   5.198   1.939   9.178 -0.1279  0.3009 -0.7792
  157SAPE  H10X17581   5.301   1.978   9.161 -0.6947  1.2261 -2.2709
  157SAPE  H10Y17582   5.130   2.027   9.173 -1.2164 -0.2971  2.0509
  157SAPE  C31117583   5.155   1.826   9.084 -0.7908  0.1098 -0.4262
  157SAPE  H11X17584   5.050   1.803   9.111 -0.1642 -0.9742  1.2528
  157SAPE  H11Y17585   5.226   1.741   9.081  0.3037  1.0295 -1.3843
  157SAPE  C31217586   5.124   1.871   8.944 -0.1749  0.7721  0.1998
  157SAPE  H12X17587   5.061   1.962   8.941 -1.2091  0.0673  0.0999
  157SAPE  H12Y17588   5.075   1.786   8.892 -0.6127  1.2136 -0.1166
  157SAPE  C31317589   5.255   1.911   8.873  0.4844  0.3026 -0.4770
  157SAPE  H13X17590   5.328   1.835   8.909 -0.2457  0.1009  0.6225
  157SAPE  H13Y17591   5.304   2.002   8.916  1.6873 -0.1611 -0.8218
  157SAPE  C31417592   5.247   1.929   8.723  0.7052  0.0036 -0.4848
  157SAPE  H14X17593   5.139   1.942   8.700  0.6421 -1.1231 -0.8891
  157SAPE  H14Y17594   5.268   1.833   8.671 -0.4417  0.0502 -1.0725
  157SAPE  C31517595   5.328   2.049   8.661 -0.0307  0.1040 -0.3374
  157SAPE  H15X17596   5.435   2.036   8.685 -0.4480  1.1044  2.4114
  157SAPE  H15Y17597   5.301   2.146   8.709  0.9857  0.4382 -0.4258
  157SAPE  C31617598   5.312   2.064   8.510  0.1544  1.3107  0.3072
  157SAPE  H16X17599   5.333   1.967   8.460  1.5817  2.4144 -1.3639
  157SAPE  H16Y17600   5.393   2.129   8.472  0.9024  0.2263  0.0270
  157SAPE  C31717601   5.187   2.134   8.456  0.4327  0.0264 -0.0146
  157SAPE  H17X17602   5.164   2.225   8.516 -0.5295  0.0599 -0.4185
  157SAPE  H17Y17603   5.096   2.070   8.464  0.8780 -0.5342  0.6994
  157SAPE  C31817604   5.219   2.179   8.320  0.0130  0.0215 -0.2539
  157SAPE  H18X17605   5.227   2.088   8.257 -0.3354 -0.7054  0.7278
  157SAPE  H18Y17606   5.321   2.223   8.313  0.1457 -0.1406  0.5806
  157SAPE  H18Z17607   5.154   2.258   8.276  0.7563  1.0451  0.4413
  158SAPE     N17608   0.347   2.577  10.673  0.1407  0.3200 -0.9607
  158SAPE   HN117609   0.368   2.596  10.573  0.4446 -0.0435 -0.9694
  158SAPE   HN217610   0.433   2.583  10.732 -0.5333 -3.7933  0.7586
  158SAPE   HN317611   0.316   2.478  10.676 -0.2277  0.4455  2.0525
  158SAPE   C1217612   0.255   2.675  10.716  0.8905  0.2958  0.3437
  158SAPE  H12A17613   0.309   2.759  10.765  1.1198 -0.3111  1.1492
  158SAPE  H12B17614   0.194   2.637  10.800  0.8946  0.3332  0.3632
  158SAPE   C1117615   0.176   2.736  10.595 -0.3165  0.1427  0.3679
  158SAPE  H11A17616   0.120   2.826  10.629 -3.1605 -2.0224  1.8505
  158SAPE  H11B17617   0.098   2.661  10.570  0.8703 -0.6694 -1.0483
  158SAPE     P17618   0.276   2.870  10.401  0.1182 -0.0047  0.0911
  158SAPE   O1317619   0.353   2.950  10.497  0.1540  0.7213 -0.0591
  158SAPE   O1417620   0.336   2.842  10.265 -0.3058 -1.1724  0.1926
  158SAPE   O1217621   0.254   2.730  10.474  0.6175  0.1423  0.4115
  158SAPE   O1117622   0.130   2.922  10.383  0.0586 -0.3635  0.0475
  158SAPE    C117623   0.035   2.852  10.304 -0.8233 -0.6040 -0.6182
  158SAPE    HA17624   0.049   2.743  10.322  1.8921 -0.0725  1.0305
  158SAPE    HB17625  -0.063   2.881  10.349 -1.5720  0.1829 -2.6527
  158SAPE    C217626   0.042   2.897  10.158 -0.7301 -0.3146  0.4995
  158SAPE    HS17627   0.132   2.845  10.118 -1.2130 -0.3046 -0.6477
  158SAPE   O2117628   0.053   3.042  10.160  0.0239 -0.4084 -0.5000
  158SAPE   C2117629   0.127   3.094  10.060 -0.4369  0.3308 -0.0228
  158SAPE   O2217630   0.171   3.035   9.967 -0.2897  0.7904  0.3963
  158SAPE   C2217631   0.127   3.245  10.081  0.0219  0.0094  0.0532
  158SAPE   H2R17632   0.038   3.274  10.140 -0.6850  0.4488 -1.2073
  158SAPE   H2S17633   0.219   3.260  10.141  1.1069 -1.6090 -1.1036
  158SAPE    C317634  -0.079   2.860  10.081  0.9916  0.3983 -0.2717
  158SAPE    HX17635  -0.169   2.903  10.130 -0.6022 -1.3260 -1.5498
  158SAPE    HY17636  -0.091   2.751  10.096  0.2117  0.2623 -1.7012
  158SAPE   O3117637  -0.072   2.887   9.936 -0.2640  0.1104  0.0726
  158SAPE   C3117638   0.002   2.809   9.862  0.5786 -0.1363  0.6697
  158SAPE   O3217639   0.068   2.715   9.903  0.4118 -0.1077  0.2896
  158SAPE   C3217640  -0.006   2.853   9.717  0.0171 -0.5952 -0.1035
  158SAPE   H2X17641   0.079   2.923   9.700  0.3422 -1.0161 -0.2170
  158SAPE   H2Y17642  -0.092   2.920   9.697 -0.1344 -0.4667  0.9057
  158SAPE   C2317643   0.132   3.318   9.941  0.7877  0.1137  0.7584
  158SAPE   H3R17644   0.203   3.272   9.869 -1.7614 -0.1421 -1.7857
  158SAPE   H3S17645   0.160   3.425   9.948  0.6000  0.4723 -2.4667
  158SAPE   C2417646  -0.010   3.325   9.884  0.2648 -0.6220  0.2964
  158SAPE   H4R17647  -0.084   3.355   9.962  0.1219  3.1409 -1.0450
  158SAPE   H4S17648  -0.033   3.222   9.850  1.4375 -1.2069  1.2248
  158SAPE   C2517649  -0.019   3.433   9.781 -0.3651 -0.5686  0.3765
  158SAPE   H5R17650   0.011   3.533   9.817 -1.5064 -0.3026  0.6177
  158SAPE   C2617651  -0.068   3.433   9.652  0.1914  0.2366  0.5299
  158SAPE   H6R17652  -0.069   3.511   9.574  0.8354 -0.0372  0.2382
  158SAPE   C2717653  -0.114   3.302   9.596  0.1459 -0.0485  1.2331
  158SAPE   H7R17654  -0.192   3.318   9.519  2.3925 -1.6643 -1.5710
  158SAPE   H7S17655  -0.154   3.241   9.680  0.9364  1.3563  2.6832
  158SAPE   C2817656   0.010   3.234   9.532 -0.2187 -0.4520  0.3007
  158SAPE   H8R17657   0.094   3.241   9.601  0.2811  0.7491 -0.4093
  158SAPE   C2917658   0.029   3.170   9.415  0.1243  0.5656  0.3972
  158SAPE   H9R17659   0.134   3.146   9.392  0.7061  2.7953  0.5309
  158SAPE  C21017660  -0.072   3.146   9.309  0.3622  0.1765 -0.7874
  158SAPE  H10R17661  -0.167   3.100   9.342  0.2507  0.1721 -1.1067
  158SAPE  H10S17662  -0.040   3.059   9.249 -0.3838 -1.3349  0.9260
  158SAPE  C21117663  -0.107   3.262   9.221  0.0976  1.1619 -0.4712
  158SAPE  H11R17664  -0.109   3.355   9.280  0.2071  1.2200 -0.5564
  158SAPE  C21217665  -0.127   3.267   9.087 -0.2488 -0.8309  0.2329
  158SAPE  H12R17666  -0.135   3.369   9.046  2.5389 -1.1796 -1.3485
  158SAPE  C21317667  -0.117   3.156   8.991  0.2500 -0.2009  0.6864
  158SAPE  H13R17668  -0.200   3.093   9.029 -1.9335  2.3181  0.4322
  158SAPE  H13S17669  -0.019   3.108   9.008  0.3518 -0.7013 -1.1228
  158SAPE  C21417670  -0.149   3.180   8.842 -0.2559  0.9098  0.3117
  158SAPE  H14R17671  -0.100   3.271   8.806 -0.3093  0.3059 -1.3664
  158SAPE  C21517672  -0.209   3.105   8.753 -0.1346 -0.5227  0.7053
  158SAPE  H15R17673  -0.230   3.147   8.654  2.8649  2.0429  1.0010
  158SAPE  C21617674  -0.268   2.965   8.768  0.6573 -0.4572 -0.4673
  158SAPE  H16R17675  -0.305   2.950   8.872  2.0509  2.9220  0.6360
  158SAPE  H16S17676  -0.189   2.889   8.750  2.2665  1.3392 -1.3548
  158SAPE  C21717677  -0.393   2.933   8.675  0.1985 -0.7686  0.1855
  158SAPE  H17R17678  -0.357   2.961   8.574 -1.0737 -2.5985 -0.8317
  158SAPE  H17S17679  -0.470   3.007   8.703  0.0357 -0.6180 -0.6348
  158SAPE  C21817680  -0.431   2.785   8.689 -0.0830  0.3845 -0.2820
  158SAPE  H18R17681  -0.443   2.761   8.797  1.3002 -0.6429 -0.3242
  158SAPE  H18S17682  -0.345   2.727   8.649  0.7199  0.5304  1.1319
  158SAPE  C21917683  -0.564   2.744   8.613 -0.6618  0.4104 -0.2866
  158SAPE  H19R17684  -0.545   2.739   8.504 -0.1835  0.2981 -0.2041
  158SAPE  H19S17685  -0.636   2.828   8.625  1.5583  2.5207 -0.8078
  158SAPE  C22017686  -0.621   2.609   8.664 -0.2672 -0.5214 -0.0517
  158SAPE  H20R17687  -0.667   2.605   8.765  0.9637  0.4842  0.5719
  158SAPE  H20S17688  -0.553   2.521   8.665 -2.0630 -1.9822  2.2401
  158SAPE  H20T17689  -0.689   2.574   8.583 -0.1188 -0.7990 -0.0583
  158SAPE   C3317690  -0.001   2.733   9.620  0.4345  0.4030 -0.1314
  158SAPE   H3X17691  -0.070   2.649   9.641  3.1029 -1.8069  0.3542
  158SAPE   H3Y17692   0.102   2.695   9.635  0.7616  1.9238  1.9799
  158SAPE   C3417693  -0.019   2.778   9.476 -0.3224 -0.1808  0.0608
  158SAPE   H4X17694   0.037   2.872   9.460  0.7404 -1.0048 -1.3238
  158SAPE   H4Y17695  -0.129   2.792   9.462 -1.1435 -0.9897  4.2149
  158SAPE   C3517696   0.011   2.663   9.383  0.1024  0.5441  0.5749
  158SAPE   H5X17697  -0.061   2.579   9.390 -1.3154  1.6902  0.2184
  158SAPE   H5Y17698   0.109   2.621   9.417 -0.2203 -1.6817 -1.0137
  158SAPE   C3617699   0.025   2.705   9.237 -0.7619 -0.2369 -0.3957
  158SAPE   H6X17700   0.083   2.624   9.188  2.0592  2.1557 -1.3482
  158SAPE   H6Y17701   0.085   2.796   9.219  0.5649 -0.9820  0.1066
  158SAPE   C3717702  -0.102   2.725   9.151  0.8299  0.3027 -0.2575
  158SAPE   H7X17703  -0.180   2.797   9.185  0.6061 -0.7213  1.5522
  158SAPE   H7Y17704  -0.160   2.631   9.142 -0.5098  1.2663 -2.7024
  158SAPE   C3817705  -0.075   2.763   9.004 -0.3734  0.4344 -1.0182
  158SAPE   H8X17706   0.013   2.830   9.006  0.8524 -1.1245 -1.4259
  158SAPE   H8Y17707  -0.157   2.816   8.951 -0.3823  0.1515 -1.2861
  158SAPE   C3917708  -0.020   2.639   8.927 -0.6441 -0.1841  0.4739
  158SAPE   H9X17709  -0.081   2.549   8.953 -0.1111 -0.5830  0.3551
  158SAPE   H9Y17710   0.081   2.605   8.960 -0.2382 -0.7883 -1.2810
  158SAPE  C31017711  -0.018   2.659   8.778 -0.2286 -0.1085  0.3027
  158SAPE  H10X17712  -0.111   2.708   8.744 -0.1732  0.0593  0.3899
  158SAPE  H10Y17713  -0.002   2.563   8.726  2.2409  0.3129  0.1447
  158SAPE  C31117714   0.107   2.744   8.736 -0.6241 -0.6381 -0.1435
  158SAPE  H11X17715   0.198   2.699   8.779 -1.6259 -0.5913  2.1622
  158SAPE  H11Y17716   0.094   2.845   8.780 -0.8398 -0.9369  0.4894
  158SAPE  C31217717   0.090   2.775   8.589 -0.1695 -0.1619 -0.3291
  158SAPE  H12X17718   0.016   2.854   8.562 -2.0901 -1.2171  1.4860
  158SAPE  H12Y17719   0.045   2.685   8.541  0.3575 -0.5562 -0.0975
  158SAPE  C31317720   0.230   2.792   8.522 -0.4644 -0.2417  0.6152
  158SAPE  H13X17721   0.278   2.692   8.530 -1.3149 -0.7880 -0.7300
  158SAPE  H13Y17722   0.293   2.860   8.584  0.0167 -2.4525  2.7302
  158SAPE  C31417723   0.227   2.832   8.378 -0.0942 -0.1731 -0.7391
  158SAPE  H14X17724   0.178   2.931   8.372 -1.4799 -0.8449 -1.0188
  158SAPE  H14Y17725   0.161   2.770   8.313 -1.4439  0.2090  0.2133
  158SAPE  C31517726   0.367   2.833   8.315  0.1051  0.1981 -0.5977
  158SAPE  H15X17727   0.400   2.727   8.308 -0.6983 -0.1461  0.4890
  158SAPE  H15Y17728   0.437   2.890   8.380  0.0835 -1.9838  1.4780
  158SAPE  C31617729   0.371   2.891   8.175  0.2140 -0.4283  1.3710
  158SAPE  H16X17730   0.358   3.001   8.187 -0.0118  0.2044 -3.0619
  158SAPE  H16Y17731   0.287   2.855   8.112 -0.4262  1.0099  1.3578
  158SAPE  C31717732   0.494   2.852   8.092 -0.1462  0.2001 -0.1527
  158SAPE  H17X17733   0.488   2.918   8.003  1.5245  1.9465  0.9465
  158SAPE  H17Y17734   0.503   2.743   8.069 -0.0672  0.2987 -0.6013
  158SAPE  C31817735   0.624   2.891   8.154 -0.0116  0.0791 -0.4071
  158SAPE  H18X17736   0.619   2.901   8.264  2.0272  3.3595 -0.4962
  158SAPE  H18Y17737   0.651   2.993   8.121 -0.7285  0.1927 -0.6695
  158SAPE  H18Z17738   0.704   2.819   8.127 -1.0351 -0.9829 -0.7038
  159SAPE     N17739   0.744   6.439   6.191 -0.4166 -0.2001 -0.0420
  159SAPE   HN117740   0.648   6.403   6.206 -0.5089  0.3407  0.6945
  159SAPE   HN217741   0.742   6.423   6.088 -0.0904  0.0927 -0.0970
  159SAPE   HN317742   0.823   6.385   6.232  0.1630 -0.0423 -0.9026
  159SAPE   C1217743   0.755   6.589   6.213 -0.1069 -0.1646  0.1017
  159SAPE  H12A17744   0.670   6.634   6.158  1.2876  1.3843 -0.8632
  159SAPE  H12B17745   0.856   6.628   6.191 -0.0692  1.2965  2.4608
  159SAPE   C1117746   0.740   6.630   6.361 -0.3524 -0.0772  0.4731
  159SAPE  H11A17747   0.758   6.739   6.373 -0.1434 -0.0015 -0.4716
  159SAPE  H11B17748   0.827   6.592   6.419  0.9687  0.2463 -1.2249
  159SAPE     P17749   0.486   6.685   6.396 -0.1228 -0.0837  0.2329
  159SAPE   O1317750   0.510   6.779   6.287  0.2586 -0.6596 -0.0824
  159SAPE   O1417751   0.369   6.599   6.382  0.0523  0.9340  0.0176
  159SAPE   O1217752   0.615   6.586   6.412  0.0528 -0.0544  0.3379
  159SAPE   O1117753   0.487   6.770   6.531 -0.2132 -0.6375 -0.4941
  159SAPE    C117754   0.552   6.720   6.655 -0.1175 -0.2368 -0.0640
  159SAPE    HA17755   0.624   6.637   6.639 -0.2548 -1.1465  3.3734
  159SAPE    HB17756   0.605   6.807   6.701 -1.3164  0.8423 -0.6552
  159SAPE    C217757   0.454   6.663   6.754  0.6221  0.0635 -0.6662
  159SAPE    HS17758   0.405   6.568   6.722 -4.5256  0.7741  3.6045
  159SAPE   O2117759   0.354   6.761   6.781 -0.1948  0.3086  0.0485
  159SAPE   C2117760   0.233   6.735   6.807  0.1233  0.4676 -0.7461
  159SAPE   O2217761   0.179   6.626   6.819  0.3223 -0.5910  0.0380
  159SAPE   C2217762   0.153   6.866   6.850 -0.6370 -0.2926  0.4858
  159SAPE   H2R17763   0.203   6.952   6.802 -2.0785  1.0144  1.2296
  159SAPE   H2S17764   0.051   6.846   6.810 -1.3602  2.1751  0.9534
  159SAPE    C317765   0.519   6.625   6.890  0.8494 -0.1260 -0.3637
  159SAPE    HX17766   0.526   6.723   6.943  1.2773  0.4683 -1.4940
  159SAPE    HY17767   0.623   6.595   6.866  1.1340  1.5653 -1.4221
  159SAPE   O3117768   0.446   6.534   6.970 -0.1566  0.7092  0.1333
  159SAPE   C3117769   0.439   6.405   6.931 -0.4869 -0.3347 -0.3574
  159SAPE   O3217770   0.470   6.370   6.819 -0.2024  0.1210  0.3823
  159SAPE   C3217771   0.376   6.311   7.029 -0.5966  0.3095  0.3339
  159SAPE   H2X17772   0.416   6.208   7.031 -0.0973  0.5025  0.4085
  159SAPE   H2Y17773   0.267   6.309   7.008 -1.2213  1.6503  2.9078
  159SAPE   C2317774   0.148   6.878   7.004 -0.2470 -0.5923 -0.2862
  159SAPE   H3R17775   0.117   6.782   7.050  1.3777  0.3096  2.9651
  159SAPE   H3S17776   0.065   6.946   7.034 -0.8750 -1.2045 -0.6041
  159SAPE   C2417777   0.273   6.928   7.076  0.2072  0.6310  0.5050
  159SAPE   H4R17778   0.367   6.879   7.043  0.1998  0.4702  0.7180
  159SAPE   H4S17779   0.272   6.914   7.187  0.4065  0.5684  0.4990
  159SAPE   C2517780   0.300   7.073   7.053 -0.2247 -0.6189  0.2812
  159SAPE   H5R17781   0.300   7.098   6.946  2.6461 -0.4117  0.2455
  159SAPE   C2617782   0.348   7.167   7.136 -0.1063 -0.4016 -0.9856
  159SAPE   H6R17783   0.368   7.270   7.105  1.3933  0.2246  1.7239
  159SAPE   C2717784   0.378   7.148   7.285 -0.9997  0.4168  0.1705
  159SAPE   H7R17785   0.479   7.188   7.307 -0.4495 -1.0690  0.4376
  159SAPE   H7S17786   0.380   7.044   7.323  0.1186  0.3347 -0.0723
  159SAPE   C2817787   0.267   7.218   7.363 -0.1858 -0.2494 -0.0363
  159SAPE   H8R17788   0.194   7.282   7.312 -0.8200 -0.7165  0.2649
  159SAPE   C2917789   0.245   7.206   7.494 -0.0228  0.0752 -0.6124
  159SAPE   H9R17790   0.160   7.261   7.536 -0.1476 -0.8239  0.3691
  159SAPE  C21017791   0.325   7.120   7.591 -0.1738  0.6126  0.1991
  159SAPE  H10R17792   0.370   7.181   7.672  1.2339  2.2476 -1.7195
  159SAPE  H10S17793   0.416   7.070   7.551  0.9289 -0.2257  3.4493
  159SAPE  C21117794   0.231   7.028   7.672 -0.0053 -0.6373  0.0912
  159SAPE  H11R17795   0.150   7.088   7.714 -0.0342 -1.0747  0.6794
  159SAPE  C21217796   0.247   6.894   7.688  0.7469 -0.1848 -0.1687
  159SAPE  H12R17797   0.181   6.846   7.761 -1.8997 -1.6187 -3.2797
  159SAPE  C21317798   0.344   6.795   7.624  0.4346  0.0260  0.2153
  159SAPE  H13R17799   0.442   6.810   7.675  0.8391 -0.9011 -0.2708
  159SAPE  H13S17800   0.357   6.816   7.516 -1.3933  2.9400  0.4374
  159SAPE  C21417801   0.299   6.648   7.637 -1.0689 -0.4734  0.2196
  159SAPE  H14R17802   0.223   6.614   7.565 -0.9066 -0.3909  0.0074
  159SAPE  C21517803   0.346   6.566   7.732 -0.1167 -0.4703  0.7837
  159SAPE  H15R17804   0.279   6.483   7.759  0.0880 -0.3616  1.6300
  159SAPE  C21617805   0.455   6.589   7.836 -0.4354  0.3711  0.4278
  159SAPE  H16R17806   0.530   6.663   7.802 -0.6316 -0.7255 -2.7424
  159SAPE  H16S17807   0.503   6.489   7.845 -1.5594 -0.1643  0.6904
  159SAPE  C21717808   0.402   6.627   7.979  0.0066 -0.5599  0.2025
  159SAPE  H17R17809   0.339   6.718   7.968  1.3422  0.5027  1.0372
  159SAPE  H17S17810   0.488   6.662   8.041  0.3161 -1.3105  0.2105
  159SAPE  C21817811   0.329   6.511   8.037 -0.3496 -0.3128 -0.1694
  159SAPE  H18R17812   0.379   6.412   8.023  0.1133 -0.1337  0.1772
  159SAPE  H18S17813   0.234   6.496   7.982 -0.0339 -1.1301 -0.5138
  159SAPE  C21917814   0.308   6.519   8.189 -0.2812  0.1966 -0.4836
  159SAPE  H19R17815   0.402   6.503   8.248 -0.2665 -1.0109 -0.7996
  159SAPE  H19S17816   0.243   6.434   8.221  0.8160  0.1634  1.8979
  159SAPE  C22017817   0.250   6.657   8.230  0.4584  0.9163 -0.2446
  159SAPE  H20R17818   0.326   6.738   8.228  0.0376  1.3030 -1.7823
  159SAPE  H20S17819   0.219   6.637   8.335  0.7164 -2.2424 -0.6731
  159SAPE  H20T17820   0.167   6.688   8.163  1.0268  0.0968 -1.3589
  159SAPE   C3317821   0.389   6.359   7.174  0.1614  0.0614  0.6756
  159SAPE   H3X17822   0.327   6.450   7.192  1.4516  1.0346  0.3591
  159SAPE   H3Y17823   0.494   6.391   7.185  0.5847 -1.1967  0.4103
  159SAPE   C3417824   0.359   6.264   7.287 -0.3258  0.1561  0.1700
  159SAPE   H4X17825   0.439   6.188   7.303  0.2756  0.8660  0.6238
  159SAPE   H4Y17826   0.267   6.207   7.264 -0.7091  1.6261 -2.2233
  159SAPE   C3517827   0.364   6.330   7.422 -0.1781 -0.2053 -0.4205
  159SAPE   H5X17828   0.283   6.406   7.420  0.5062  0.6587  1.7921
  159SAPE   H5Y17829   0.456   6.388   7.442 -0.9756  0.6247  1.0816
  159SAPE   C3617830   0.337   6.238   7.542 -0.1549  0.3897  0.8908
  159SAPE   H6X17831   0.268   6.153   7.522  0.2799  0.2372 -0.0111
  159SAPE   H6Y17832   0.282   6.307   7.609 -1.1978  3.6884 -2.9465
  159SAPE   C3717833   0.470   6.192   7.607 -0.0688 -0.2666 -0.1217
  159SAPE   H7X17834   0.538   6.278   7.624  0.0277 -0.4909  0.6729
  159SAPE   H7Y17835   0.523   6.117   7.545  1.2867 -0.7100  1.5259
  159SAPE   C3817836   0.435   6.118   7.737  0.5642  0.0776 -0.3004
  159SAPE   H8X17837   0.356   6.043   7.717 -3.0595  2.6600  2.8511
  159SAPE   H8Y17838   0.386   6.193   7.802 -1.5579  2.9252 -4.7253
  159SAPE   C3917839   0.557   6.056   7.809 -0.2090 -0.7725 -0.2016
  159SAPE   H9X17840   0.643   6.126   7.812  1.2191 -2.4523  0.3812
  159SAPE   H9Y17841   0.587   5.966   7.750 -2.4782 -2.6570  1.3339
  159SAPE  C31017842   0.542   6.013   7.957  0.5132 -0.3843  0.2252
  159SAPE  H10X17843   0.637   5.967   7.992 -0.6502 -1.5543  1.9926
  159SAPE  H10Y17844   0.455   5.945   7.962  0.0951  0.1253  0.0154
  159SAPE  C31117845   0.516   6.138   8.048  1.3392 -0.4413  0.3041
  159SAPE  H11X17846   0.443   6.209   8.003  0.3639 -0.0511  2.3599
  159SAPE  H11Y17847   0.612   6.192   8.062  0.3742  1.8579 -1.3312
  159SAPE  C31217848   0.477   6.107   8.199 -0.1664 -0.2917 -0.0156
  159SAPE  H12X17849   0.527   6.186   8.260  0.6420  0.7733 -1.9795
  159SAPE  H12Y17850   0.512   6.006   8.231 -0.5861 -0.5931 -0.4993
  159SAPE  C31317851   0.324   6.120   8.222 -0.3211  0.4948 -0.3308
  159SAPE  H13X17852   0.268   6.055   8.152 -0.2420 -0.9703  0.9166
  159SAPE  H13Y17853   0.300   6.220   8.180  0.4510  0.2160 -1.4899
  159SAPE  C31417854   0.270   6.096   8.364  0.4573  0.0347  0.7645
  159SAPE  H14X17855   0.299   5.997   8.406  1.1019  0.5313  1.5113
  159SAPE  H14Y17856   0.159   6.084   8.364  0.5297 -1.3558 -1.8905
  159SAPE  C31517857   0.313   6.198   8.476 -0.4153 -0.5690  0.7715
  159SAPE  H15X17858   0.311   6.304   8.442 -1.4979 -0.5961  0.7291
  159SAPE  H15Y17859   0.422   6.183   8.494 -0.6665  0.3988  3.4798
  159SAPE  C31617860   0.255   6.183   8.624  0.3131  0.3119  0.6281
  159SAPE  H16X17861   0.250   6.074   8.641 -2.1142 -0.0648 -1.7728
  159SAPE  H16Y17862   0.147   6.210   8.626 -0.4821 -2.3764 -1.3780
  159SAPE  C31717863   0.340   6.247   8.731  0.5948 -0.5163 -0.7123
  159SAPE  H17X17864   0.309   6.354   8.739 -1.9216 -1.1929 -0.5442
  159SAPE  H17Y17865   0.446   6.231   8.702  0.5535  1.2723 -1.9978
  159SAPE  C31817866   0.323   6.185   8.868 -0.4108 -0.6661 -0.7287
  159SAPE  H18X17867   0.384   6.239   8.944 -2.1253 -0.1464  0.3278
  159SAPE  H18Y17868   0.352   6.078   8.867  2.0179 -0.0673 -1.8224
  159SAPE  H18Z17869   0.218   6.192   8.902  0.2252  0.6322  1.1104
  160SAPE     N17870   4.983   0.619   6.345  0.4913  0.5527 -0.8548
  160SAPE   HN117871   5.014   0.670   6.431 -0.7863  0.4667 -0.3249
  160SAPE   HN217872   4.887   0.584   6.363 -0.4289  2.9542 -0.7759
  160SAPE   HN317873   5.048   0.540   6.326 -0.3290 -0.9820  2.0598
  160SAPE   C1217874   4.985   0.705   6.227 -0.5451  0.3973 -0.0304
  160SAPE  H12A17875   4.912   0.785   6.251 -1.5062 -0.6042  0.4601
  160SAPE  H12B17876   4.955   0.651   6.134 -1.2352 -0.4039  0.6446
  160SAPE   C1117877   5.132   0.755   6.199 -0.0365  0.5485 -0.0120
  160SAPE  H11A17878   5.116   0.835   6.124  0.0185  0.5626 -0.0089
  160SAPE  H11B17879   5.195   0.685   6.140 -0.0113  0.3488  0.2483
  160SAPE     P17880   5.183   0.959   6.349 -0.2768  0.0549  0.3003
  160SAPE   O1317881   5.260   1.030   6.241  0.5593 -0.7388 -0.2697
  160SAPE   O1417882   5.037   0.998   6.355  0.2883  1.0487  0.2396
  160SAPE   O1217883   5.193   0.804   6.320  0.0634 -0.7774 -0.2900
  160SAPE   O1117884   5.254   0.974   6.493 -0.7682 -0.3446  0.7086
  160SAPE    C117885   5.388   0.919   6.510  0.2274 -0.2234 -0.7137
  160SAPE    HA17886   5.409   0.842   6.433  1.0234 -2.0594  1.2700
  160SAPE    HB17887   5.463   1.000   6.503  0.1560 -0.2221 -1.6238
  160SAPE    C217888   5.398   0.840   6.642  0.3399 -0.0054  0.0925
  160SAPE    HS17889   5.427   0.736   6.616  0.2242 -0.0713  0.2230
  160SAPE   O2117890   5.271   0.825   6.718 -0.6362  0.0776 -0.3703
  160SAPE   C2117891   5.181   0.738   6.685  0.7372 -0.2388 -0.3694
  160SAPE   O2217892   5.172   0.677   6.581 -0.6692 -0.4500 -0.0355
  160SAPE   C2217893   5.074   0.720   6.795 -0.0983  0.1464  0.0364
  160SAPE   H2R17894   5.120   0.710   6.896 -0.2613 -0.5406  0.0515
  160SAPE   H2S17895   5.001   0.802   6.784 -2.9198 -1.7834  2.6589
  160SAPE    C317896   5.517   0.886   6.731  0.2249  0.6094 -0.3737
  160SAPE    HX17897   5.609   0.900   6.670  0.7536 -1.7031 -0.2237
  160SAPE    HY17898   5.541   0.801   6.799 -1.6309  0.0072 -0.4158
  160SAPE   O3117899   5.493   1.010   6.803  0.6119 -0.2532 -0.0839
  160SAPE   C3117900   5.427   0.978   6.915  0.0406 -0.2039 -0.1221
  160SAPE   O3217901   5.414   0.866   6.958  0.6863  0.0673 -0.4628
  160SAPE   C3217902   5.391   1.102   6.996  0.1369  0.1620  0.0339
  160SAPE   H2X17903   5.281   1.103   7.009 -0.0859 -0.2174 -1.5518
  160SAPE   H2Y17904   5.437   1.185   6.938  0.8899  0.5753  1.1922
  160SAPE   C2317905   5.006   0.577   6.767  0.1737 -0.2071 -0.6068
  160SAPE   H3R17906   5.082   0.498   6.746  0.4245 -0.5426  1.3915
  160SAPE   H3S17907   4.946   0.587   6.674 -0.5419 -2.1694 -0.3937
  160SAPE   C2417908   4.937   0.536   6.897  0.1398 -0.9357 -0.7767
  160SAPE   H4R17909   5.021   0.491   6.955  0.8052  2.3342  1.0790
  160SAPE   H4S17910   4.870   0.452   6.870  0.0754 -1.9374  2.1070
  160SAPE   C2517911   4.870   0.648   6.976 -0.1175  0.0029  0.4721
  160SAPE   H5R17912   4.768   0.679   6.948  0.5432  3.8275  1.6816
  160SAPE   C2617913   4.925   0.708   7.083 -0.0532  0.8853 -0.3959
  160SAPE   H6R17914   4.863   0.790   7.123 -3.3645  0.2874 -3.8242
  160SAPE   C2717915   5.057   0.679   7.156  0.1176 -0.4449  0.0545
  160SAPE   H7R17916   5.120   0.770   7.168  0.2913 -0.6142  0.4503
  160SAPE   H7S17917   5.126   0.608   7.106  0.7713  0.6795 -0.6859
  160SAPE   C2817918   5.033   0.631   7.296  1.4085  0.2188 -0.0320
  160SAPE   H8R17919   4.994   0.528   7.303 -3.9187  2.0401  1.6133
  160SAPE   C2917920   5.063   0.689   7.415  0.3524  1.2708 -0.0428
  160SAPE   H9R17921   5.055   0.628   7.506 -1.5968 -1.4597 -1.8507
  160SAPE  C21017922   5.132   0.821   7.441  0.9345 -0.4590  0.2542
  160SAPE  H10R17923   5.107   0.888   7.356 -1.8618 -0.1069  1.2630
  160SAPE  H10S17924   5.240   0.798   7.449  1.1521  0.6511  0.5573
  160SAPE  C21117925   5.071   0.902   7.559 -0.3514 -0.0314 -0.6871
  160SAPE  H11R17926   4.967   0.931   7.540 -0.6381 -0.9153 -0.4941
  160SAPE  C21217927   5.115   0.919   7.683  0.8852  0.6639 -0.5507
  160SAPE  H12R17928   5.063   0.979   7.759  0.5504  0.4066 -0.5738
  160SAPE  C21317929   5.245   0.862   7.736  0.0035  0.3890 -0.3023
  160SAPE  H13R17930   5.310   0.945   7.770  0.5146 -0.5923  1.2478
  160SAPE  H13S17931   5.312   0.809   7.664  1.1501 -1.0133  1.6692
  160SAPE  C21417932   5.224   0.755   7.844  0.1911 -0.2806  0.3178
  160SAPE  H14R17933   5.234   0.655   7.801  1.3278  0.6198 -1.6262
  160SAPE  C21517934   5.197   0.764   7.975 -0.7690 -0.2933  0.3644
  160SAPE  H15R17935   5.170   0.675   8.034 -0.3501 -0.0583  0.9282
  160SAPE  C21617936   5.180   0.893   8.050 -0.4712 -0.1300  0.0575
  160SAPE  H16R17937   5.129   0.979   8.001  2.5425  0.9565 -1.4249
  160SAPE  H16S17938   5.282   0.934   8.070 -0.7822 -0.3175  2.2342
  160SAPE  C21717939   5.123   0.885   8.195 -0.4402 -0.1876  0.2623
  160SAPE  H17R17940   5.018   0.848   8.194  0.1333 -1.9531 -1.7024
  160SAPE  H17S17941   5.133   0.989   8.232  1.6790 -0.4249  0.4608
  160SAPE  C21817942   5.213   0.803   8.286 -0.0335 -0.3756  0.8772
  160SAPE  H18R17943   5.315   0.840   8.263  0.0735 -1.8351 -1.3597
  160SAPE  H18S17944   5.217   0.696   8.253  1.3630 -0.0637 -0.0961
  160SAPE  C21917945   5.180   0.806   8.436 -1.2421 -0.0615 -0.5299
  160SAPE  H19R17946   5.070   0.788   8.438 -1.2092 -0.3327 -1.0132
  160SAPE  H19S17947   5.193   0.914   8.459  0.3011  0.0075 -1.6188
  160SAPE  C22017948   5.274   0.721   8.525 -0.9436  0.1278 -0.1251
  160SAPE  H20R17949   5.236   0.617   8.522  0.0126 -0.2399 -3.1932
  160SAPE  H20S17950   5.273   0.764   8.627 -2.1097  0.8457 -0.4258
  160SAPE  H20T17951   5.379   0.724   8.488  0.2402  0.8430  2.9929
  160SAPE   C3317952   5.461   1.095   7.130  0.4500  0.1119 -0.0963
  160SAPE   H3X17953   5.476   1.201   7.161 -0.7784  0.7053 -1.4157
  160SAPE   H3Y17954   5.559   1.044   7.120  0.4736  0.3363 -1.0801
  160SAPE   C3417955   5.394   1.008   7.239 -0.1026 -0.9491  0.1185
  160SAPE   H4X17956   5.375   0.906   7.198  0.9930 -0.8646 -0.6496
  160SAPE   H4Y17957   5.297   1.051   7.271  0.1414 -0.2840 -0.0370
  160SAPE   C3517958   5.482   0.980   7.362 -0.4618 -0.7826 -0.3172
  160SAPE   H5X17959   5.572   0.922   7.335  0.9969  0.2469  2.0015
  160SAPE   H5Y17960   5.434   0.915   7.439 -2.5702  2.3083  1.2216
  160SAPE   C3617961   5.538   1.102   7.426 -0.6161  0.0173 -0.1210
  160SAPE   H6X17962   5.608   1.150   7.354 -0.4451 -1.0280 -0.6650
  160SAPE   H6Y17963   5.600   1.075   7.515  1.1232  0.8309 -1.0308
  160SAPE   C3717964   5.432   1.201   7.465  1.2618  0.1642  0.5475
  160SAPE   H7X17965   5.361   1.141   7.527  0.4548 -1.0967 -1.4990
  160SAPE   H7Y17966   5.381   1.241   7.375  0.3189  0.9639  1.4078
  160SAPE   C3817967   5.478   1.330   7.545  0.1609  0.0223  0.5969
  160SAPE   H8X17968   5.393   1.401   7.553  0.1493  0.0362  0.3514
  160SAPE   H8Y17969   5.556   1.378   7.483  0.9866  0.5598  1.9996
  160SAPE   C3917970   5.543   1.312   7.679 -0.4161  0.6982  1.0074
  160SAPE   H9X17971   5.581   1.411   7.711  0.5919  1.4409 -2.1303
  160SAPE   H9Y17972   5.634   1.247   7.671 -0.7069 -0.1842  3.8334
  160SAPE  C31017973   5.444   1.267   7.792 -0.1439 -0.0979  0.1159
  160SAPE  H10X17974   5.507   1.247   7.881 -0.5484  0.4374  0.5303
  160SAPE  H10Y17975   5.387   1.175   7.765 -0.2943 -0.4723  1.6152
  160SAPE  C31117976   5.357   1.386   7.833  0.1222 -0.2958 -0.0646
  160SAPE  H11X17977   5.288   1.433   7.759  0.1226 -0.2581 -0.0414
  160SAPE  H11Y17978   5.417   1.473   7.869 -1.2581  0.8174 -0.3522
  160SAPE  C31217979   5.263   1.356   7.955 -0.1720 -0.1412 -0.0160
  160SAPE  H12X17980   5.315   1.299   8.035 -1.4175  0.0921  0.9965
  160SAPE  H12Y17981   5.186   1.284   7.921 -0.2908 -0.3477  0.6712
  160SAPE  C31317982   5.200   1.480   8.029  1.0832  0.6387  0.4828
  160SAPE  H13X17983   5.149   1.539   7.949  1.9246  1.0979  0.2679
  160SAPE  H13Y17984   5.281   1.531   8.084  1.4545  2.3117 -1.4750
  160SAPE  C31417985   5.082   1.440   8.128 -0.1556  0.5093  0.2701
  160SAPE  H14X17986   5.118   1.365   8.202 -2.8003 -3.1388 -1.7973
  160SAPE  H14Y17987   5.000   1.387   8.075  0.7862 -0.4451 -0.2889
  160SAPE  C31517988   5.031   1.570   8.185 -0.7523  0.2889  0.4016
  160SAPE  H15X17989   4.938   1.538   8.236 -1.6284  2.1740  0.0749
  160SAPE  H15Y17990   5.006   1.641   8.103 -0.8932 -0.2652 -0.0449
  160SAPE  C31617991   5.123   1.635   8.287 -0.0593  0.1324 -0.5063
  160SAPE  H16X17992   5.221   1.669   8.247 -0.6078 -0.0955 -2.1138
  160SAPE  H16Y17993   5.146   1.556   8.362  0.5268  0.6265 -0.1479
  160SAPE  C31717994   5.053   1.749   8.354 -0.7168 -0.2640 -0.9629
  160SAPE  H17X17995   5.013   1.817   8.276 -0.2191  1.1091 -0.0447
  160SAPE  H17Y17996   5.130   1.801   8.414 -0.3050  1.6736 -3.0364
  160SAPE  C31817997   4.927   1.715   8.438 -0.6793  0.2517 -0.2453
  160SAPE  H18X17998   4.840   1.676   8.381 -0.7542 -0.6669  0.4728
  160SAPE  H18Y17999   4.884   1.803   8.491 -0.0299 -0.0454  0.7972
  160SAPE  H18Z18000   4.953   1.639   8.514 -0.1862 -0.3315 -0.9846
  161SAPE     N18001   2.593   3.906   6.148 -0.3631 -0.5372 -0.0753
  161SAPE   HN118002   2.666   3.882   6.078 -1.9560 -1.9690 -1.3490
  161SAPE   HN218003   2.594   3.837   6.226  0.9265  0.2575  0.6458
  161SAPE   HN318004   2.499   3.916   6.105  1.0952  2.0749 -3.0822
  161SAPE   C1218005   2.628   4.043   6.197 -0.2701 -0.5069  0.3616
  161SAPE  H12A18006   2.563   4.117   6.146  2.5062  1.0888 -1.0562
  161SAPE  H12B18007   2.727   4.074   6.158 -0.6035 -0.4421 -0.4550
  161SAPE   C1118008   2.613   4.060   6.357 -0.1916  0.5754  0.1471
  161SAPE  H11A18009   2.643   4.165   6.377  0.6469  0.6779 -1.4418
  161SAPE  H11B18010   2.687   3.993   6.405 -1.6110  0.8137  2.8608
  161SAPE     P18011   2.370   4.124   6.413 -0.0970 -0.0445 -0.2613
  161SAPE   O1318012   2.400   4.247   6.325  0.4627  0.3402  0.4403
  161SAPE   O1418013   2.240   4.056   6.393 -0.7779  0.3672  0.7441
  161SAPE   O1218014   2.491   4.020   6.403 -0.0801  0.1531 -0.2118
  161SAPE   O1118015   2.373   4.175   6.563 -0.3425  0.1010  0.7176
  161SAPE    C118016   2.459   4.132   6.668 -0.6844  0.6015 -1.0236
  161SAPE    HA18017   2.436   4.024   6.685  0.1627  0.1752 -2.4438
  161SAPE    HB18018   2.566   4.135   6.638  0.0788 -1.6706  1.0768
  161SAPE    C218019   2.436   4.216   6.794  0.6513 -0.6705  0.0441
  161SAPE    HS18020   2.494   4.189   6.885  0.5284  0.1604  0.3773
  161SAPE   O2118021   2.293   4.236   6.818 -0.1478 -0.1833  0.5375
  161SAPE   C2118022   2.232   4.130   6.871 -0.5274 -0.2621  0.3537
  161SAPE   O2218023   2.295   4.027   6.904 -0.0127  0.1943  0.7751
  161SAPE   C2218024   2.091   4.160   6.903  0.6901  0.0859 -0.3082
  161SAPE   H2R18025   2.043   4.189   6.807  2.4026  1.9830 -0.6491
  161SAPE   H2S18026   2.041   4.065   6.932 -0.7387  0.2391 -2.0362
  161SAPE    C318027   2.494   4.354   6.761  0.1499 -0.4105 -0.2533
  161SAPE    HX18028   2.428   4.384   6.678  2.3498  0.2429 -1.8464
  161SAPE    HY18029   2.591   4.350   6.708  0.3766 -3.5181  0.1886
  161SAPE   O3118030   2.509   4.442   6.876  0.8140  0.3900  0.7202
  161SAPE   C3118031   2.407   4.530   6.896 -0.3901  1.5655 -0.0820
  161SAPE   O3218032   2.312   4.547   6.823  0.2207 -0.1091  0.4211
  161SAPE   C3218033   2.431   4.595   7.033 -0.1633 -0.1812 -0.0802
  161SAPE   H2X18034   2.412   4.704   7.027  0.9482  0.0772  0.8347
  161SAPE   H2Y18035   2.534   4.579   7.071  0.7274 -0.6063 -2.5321
  161SAPE   C2318036   2.073   4.274   7.000  0.3512 -0.2021  0.1057
  161SAPE   H3R18037   1.977   4.325   6.979  1.0653  0.3974 -2.0348
  161SAPE   H3S18038   2.152   4.352   6.996 -0.0925  0.3017  1.0599
  161SAPE   C2418039   2.066   4.226   7.146  0.8130  0.2365 -0.3905
  161SAPE   H4R18040   2.113   4.305   7.208  0.8442  0.4270 -0.6557
  161SAPE   H4S18041   2.140   4.144   7.160  0.8058 -0.0096 -1.6824
  161SAPE   C2518042   1.934   4.188   7.211 -0.1450  0.1089  0.2916
  161SAPE   H5R18043   1.853   4.160   7.142 -0.4089  3.6156 -1.0502
  161SAPE   C2618044   1.911   4.182   7.344 -0.5041  0.1913  1.0965
  161SAPE   H6R18045   1.818   4.136   7.382 -1.3837  0.3169 -0.8078
  161SAPE   C2718046   1.997   4.218   7.456 -0.7417  0.0803  0.0500
  161SAPE   H7R18047   1.965   4.310   7.510  0.9398  1.5227 -1.3192
  161SAPE   H7S18048   2.102   4.232   7.425 -0.5766  0.6230  0.8429
  161SAPE   C2818049   1.998   4.109   7.559  0.5844  1.0648  0.1333
  161SAPE   H8R18050   1.974   4.007   7.526  1.0951  0.0031  2.7771
  161SAPE   C2918051   2.041   4.117   7.691  0.3867 -0.2738  0.4596
  161SAPE   H9R18052   2.043   4.026   7.752 -2.0786 -1.2776 -0.8146
  161SAPE  C21018053   2.081   4.244   7.762 -0.0708  0.1967  0.7390
  161SAPE  H10R18054   2.051   4.324   7.691  1.8868  0.8993  0.6448
  161SAPE  H10S18055   2.191   4.244   7.781  0.4219 -1.9190 -1.6288
  161SAPE  C21118056   1.995   4.266   7.883  0.6293  0.3769 -0.5157
  161SAPE  H11R18057   1.893   4.299   7.862 -0.8634 -2.9233  0.8162
  161SAPE  C21218058   2.017   4.242   8.012  0.4183 -0.3504 -0.4541
  161SAPE  H12R18059   1.935   4.265   8.081  0.1666 -0.1514 -0.8125
  161SAPE  C21318060   2.143   4.193   8.076  0.5118  0.8396  0.3860
  161SAPE  H13R18061   2.163   4.233   8.178 -1.3016 -0.4027  1.2864
  161SAPE  H13S18062   2.231   4.226   8.015 -0.0910  1.3324 -0.2385
  161SAPE  C21418063   2.137   4.049   8.084  0.5932 -0.1420  0.4932
  161SAPE  H14R18064   2.139   4.002   7.984  0.5381  1.8394 -0.5019
  161SAPE  C21518065   2.119   3.968   8.194 -0.1326 -0.0049 -0.1251
  161SAPE  H15R18066   2.126   3.859   8.180  2.2786 -0.1058  1.2410
  161SAPE  C21618067   2.115   4.023   8.334 -0.1521  0.3826  0.3904
  161SAPE  H16R18068   2.037   4.102   8.343  1.1969  1.9578 -0.9980
  161SAPE  H16S18069   2.203   4.082   8.368 -1.4332  2.6191  0.0090
  161SAPE  C21718070   2.091   3.918   8.442 -0.3666 -0.4046 -0.3113
  161SAPE  H17R18071   2.174   3.845   8.447  0.6035  0.5976 -1.2376
  161SAPE  H17S18072   1.999   3.862   8.412  0.4575 -1.6262 -0.6501
  161SAPE  C21818073   2.065   3.971   8.583  0.0794 -0.6710  0.6733
  161SAPE  H18R18074   1.983   4.046   8.575  1.3214  0.6187 -0.7146
  161SAPE  H18S18075   2.153   4.024   8.626 -0.7190  0.4628  0.9692
  161SAPE  C21918076   2.029   3.872   8.699  1.0266 -0.8338  0.1380
  161SAPE  H19R18077   1.933   3.825   8.668  0.3440  1.9165 -2.4855
  161SAPE  H19S18078   2.010   3.931   8.791  0.9578 -0.3009 -0.2069
  161SAPE  C22018079   2.135   3.763   8.718 -0.2397 -0.6309 -0.2231
  161SAPE  H20R18080   2.235   3.807   8.734  0.2841 -0.3366 -3.5696
  161SAPE  H20S18081   2.144   3.691   8.634  1.8059 -0.7944  0.0805
  161SAPE  H20T18082   2.110   3.697   8.804 -0.0280  0.3389  0.6002
  161SAPE   C3318083   2.332   4.530   7.136  0.4861 -0.1130  0.5832
  161SAPE   H3X18084   2.338   4.419   7.129  2.1286 -0.0590  0.8607
  161SAPE   H3Y18085   2.230   4.556   7.101  0.4153 -2.0046 -0.7589
  161SAPE   C3418086   2.361   4.563   7.280 -0.7636  0.7256 -0.0191
  161SAPE   H4X18087   2.358   4.673   7.289 -0.0618  0.8202 -0.7898
  161SAPE   H4Y18088   2.464   4.529   7.306 -1.9050 -3.0557  0.1567
  161SAPE   C3518089   2.268   4.488   7.379 -0.4094 -0.1913  0.3161
  161SAPE   H5X18090   2.281   4.380   7.354 -1.6097 -0.0085 -1.2064
  161SAPE   H5Y18091   2.161   4.499   7.355 -0.1610 -1.5696 -1.6872
  161SAPE   C3618092   2.300   4.524   7.529  0.5160 -0.0001  0.7993
  161SAPE   H6X18093   2.403   4.567   7.533 -0.1970  2.0352 -0.7582
  161SAPE   H6Y18094   2.293   4.433   7.591 -0.1164 -2.8115 -3.0001
  161SAPE   C3718095   2.223   4.627   7.609  0.4560 -0.7052  0.4017
  161SAPE   H7X18096   2.114   4.615   7.595  0.3439  1.7852 -1.5982
  161SAPE   H7Y18097   2.254   4.730   7.582 -2.1319 -0.1553 -0.7962
  161SAPE   C3818098   2.239   4.630   7.759 -0.6449  0.1893  0.2055
  161SAPE   H8X18099   2.185   4.540   7.796 -1.1810  0.0644 -0.8292
  161SAPE   H8Y18100   2.192   4.715   7.812 -0.7003  0.8691 -0.8959
  161SAPE   C3918101   2.386   4.615   7.796 -0.5054 -0.4171 -0.3487
  161SAPE   H9X18102   2.446   4.695   7.748  1.7179 -2.6825 -1.5761
  161SAPE   H9Y18103   2.418   4.518   7.751 -0.1484  0.1366 -1.3296
  161SAPE  C31018104   2.410   4.619   7.946  0.3208 -0.9675 -0.4031
  161SAPE  H10X18105   2.518   4.633   7.970  0.0613 -0.1996  0.3675
  161SAPE  H10Y18106   2.380   4.524   7.994  0.4514 -0.8625 -0.1110
  161SAPE  C31118107   2.329   4.729   8.026 -0.1853 -0.4971 -0.2188
  161SAPE  H11X18108   2.221   4.711   8.045 -0.4075  1.0033  0.0914
  161SAPE  H11Y18109   2.329   4.828   7.976  0.8474  0.6490  1.8799
  161SAPE  C31218110   2.404   4.759   8.159 -0.1922 -0.6126  0.8826
  161SAPE  H12X18111   2.514   4.754   8.140 -0.4611  2.4628 -2.6489
  161SAPE  H12Y18112   2.373   4.679   8.229  0.6105  0.0532  2.0278
  161SAPE  C31318113   2.369   4.896   8.222  0.8222 -0.0753  0.2079
  161SAPE  H13X18114   2.259   4.902   8.236  1.0040  1.8140  1.1588
  161SAPE  H13Y18115   2.389   4.981   8.153  1.6020 -0.9892 -0.7337
  161SAPE  C31418116   2.431   4.923   8.356 -0.1502 -0.6786 -0.1461
  161SAPE  H14X18117   2.541   4.937   8.347 -0.3180  1.0283  0.1210
  161SAPE  H14Y18118   2.413   4.834   8.419  0.1660  0.3203  1.4386
  161SAPE  C31518119   2.373   5.041   8.433 -0.5940 -0.1804  0.1000
  161SAPE  H15X18120   2.265   5.047   8.458 -1.2769 -2.0973 -2.0655
  161SAPE  H15Y18121   2.395   5.138   8.384  2.0388  0.9597  3.2279
  161SAPE  C31618122   2.441   5.045   8.574 -0.1466  0.1176  0.4109
  161SAPE  H16X18123   2.551   5.041   8.564 -0.2206 -1.6032 -0.0388
  161SAPE  H16Y18124   2.418   4.957   8.639  2.0417 -0.2129  0.8027
  161SAPE  C31718125   2.400   5.174   8.656  0.6204  1.1674  0.1162
  161SAPE  H17X18126   2.450   5.164   8.755  1.3748  1.0952 -0.2612
  161SAPE  H17Y18127   2.292   5.169   8.679  0.0064  1.3012 -2.4558
  161SAPE  C31818128   2.434   5.305   8.588  0.2327 -0.2646  0.2994
  161SAPE  H18X18129   2.517   5.295   8.516 -0.2037 -2.2131  0.0084
  161SAPE  H18Y18130   2.461   5.383   8.662 -1.9157  3.0162 -2.1028
  161SAPE  H18Z18131   2.345   5.343   8.534  0.5667 -1.5160 -1.2213
  162SAPE     N18132   0.023   2.063   5.915 -0.1023 -0.8761  0.4895
  162SAPE   HN118133   0.032   1.998   5.834  1.4693  0.7827 -0.7544
  162SAPE   HN218134  -0.043   2.141   5.893  0.1549 -1.3471 -2.4199
  162SAPE   HN318135   0.108   2.094   5.966  0.3576  0.9799 -1.2695
  162SAPE   C1218136  -0.059   1.979   6.012  0.2380  0.0888  0.0708
  162SAPE  H12A18137  -0.127   1.916   5.950 -1.4428  1.4615  0.4694
  162SAPE  H12B18138  -0.112   2.051   6.077  0.1933  1.5536 -1.5065
  162SAPE   C1118139   0.029   1.900   6.111  0.3941  0.3096  0.0085
  162SAPE  H11A18140  -0.029   1.859   6.197 -0.1952  1.6873  0.3043
  162SAPE  H11B18141   0.097   1.967   6.168 -0.7123  0.9994  0.5602
  162SAPE     P18142   0.064   1.652   6.039 -0.0121 -0.0510  0.0972
  162SAPE   O1318143  -0.082   1.634   6.061  0.4440 -0.0033  0.1812
  162SAPE   O1418144   0.118   1.592   5.915 -0.4326  0.2189 -0.6444
  162SAPE   O1218145   0.104   1.810   6.042  0.1232 -0.5252  0.2532
  162SAPE   O1118146   0.139   1.587   6.167  0.5553 -0.2161 -0.6728
  162SAPE    C118147   0.140   1.448   6.188  0.5400 -0.0604  0.5612
  162SAPE    HA18148   0.041   1.401   6.173  1.2246 -0.9585 -1.6178
  162SAPE    HB18149   0.205   1.401   6.111  0.3256  2.1402 -1.0614
  162SAPE    C218150   0.178   1.416   6.335  0.6800 -0.6812  0.1536
  162SAPE    HS18151   0.147   1.315   6.368 -2.6244  1.2932  3.8504
  162SAPE   O2118152   0.122   1.518   6.422  0.4275 -0.2886 -0.2586
  162SAPE   C2118153  -0.004   1.499   6.449 -0.4309  0.6846  0.1308
  162SAPE   O2218154  -0.064   1.399   6.411  0.3688 -0.5482 -0.0673
  162SAPE   C2218155  -0.058   1.613   6.541 -0.1449 -0.2624  0.7709
  162SAPE   H2R18156   0.026   1.685   6.548  2.2102 -2.4289 -2.3497
  162SAPE   H2S18157  -0.134   1.673   6.487  0.9549 -0.8567 -1.5652
  162SAPE    C318158   0.328   1.425   6.345 -0.8510  0.4567 -0.6134
  162SAPE    HX18159   0.355   1.529   6.317 -1.1868  0.7259  0.0261
  162SAPE    HY18160   0.374   1.344   6.284  0.3006 -0.8847  1.8899
  162SAPE   O3118161   0.381   1.412   6.478 -0.5090  0.1293  0.0023
  162SAPE   C3118162   0.496   1.477   6.503 -0.3721 -0.4691 -0.7684
  162SAPE   O3218163   0.570   1.523   6.419 -0.2440 -0.0366  0.2119
  162SAPE   C3218164   0.532   1.471   6.659  0.6371 -0.5866  0.1824
  162SAPE   H2X18165   0.563   1.370   6.690  1.0983 -2.0692 -4.3855
  162SAPE   H2Y18166   0.436   1.509   6.701 -0.6763 -0.1761 -2.8994
  162SAPE   C2318167  -0.099   1.554   6.675  0.2785  0.4649  0.4434
  162SAPE   H3R18168  -0.171   1.472   6.652  0.0599  1.0798 -1.1447
  162SAPE   H3S18169  -0.162   1.624   6.733 -0.3453 -0.7307  1.2717
  162SAPE   C2418170   0.017   1.520   6.763 -0.1608  0.6904  0.3413
  162SAPE   H4R18171   0.078   1.450   6.702  2.0162  1.1212  1.9063
  162SAPE   H4S18172  -0.012   1.461   6.852 -0.4077  0.2889  0.0009
  162SAPE   C2518173   0.107   1.633   6.787  0.4515  0.1967 -0.1616
  162SAPE   H5R18174   0.106   1.717   6.716  1.6959  0.5158  0.1770
  162SAPE   C2618175   0.175   1.641   6.903  0.2923  0.0796 -0.4054
  162SAPE   H6R18176   0.245   1.724   6.916  1.3248 -0.8776  0.3238
  162SAPE   C2718177   0.173   1.550   7.024 -1.0308  0.3868  0.7152
  162SAPE   H7R18178   0.122   1.454   7.002 -0.2945 -0.0550  0.8903
  162SAPE   H7S18179   0.131   1.598   7.115  2.0137 -0.6234  2.8152
  162SAPE   C2818180   0.310   1.508   7.060  0.1231 -0.3684  0.5095
  162SAPE   H8R18181   0.349   1.425   6.999  1.8323  0.6982  0.0705
  162SAPE   C2918182   0.392   1.583   7.125  0.2092  0.0649 -0.4167
  162SAPE   H9R18183   0.485   1.534   7.157 -0.3854 -0.9393 -0.1733
  162SAPE  C21018184   0.366   1.713   7.192 -0.1632 -1.8496  0.5211
  162SAPE  H10R18185   0.286   1.771   7.141 -0.1102 -0.6530  1.7454
  162SAPE  H10S18186   0.449   1.784   7.172 -1.5408 -0.7003 -1.5349
  162SAPE  C21118187   0.326   1.707   7.336  0.3284  0.3539 -0.1023
  162SAPE  H11R18188   0.222   1.676   7.354  1.1698 -2.2254  0.5970
  162SAPE  C21218189   0.408   1.709   7.438 -0.1934  0.5551 -0.1585
  162SAPE  H12R18190   0.371   1.711   7.541  0.2291  0.0694  0.0089
  162SAPE  C21318191   0.559   1.726   7.442  0.4824 -0.4427 -0.2469
  162SAPE  H13R18192   0.608   1.738   7.343  0.8784  0.9523  0.0951
  162SAPE  H13S18193   0.604   1.632   7.481  0.4519  0.5576  2.4072
  162SAPE  C21418194   0.605   1.839   7.519 -0.1885 -0.3983 -0.1918
  162SAPE  H14R18195   0.589   1.935   7.467 -1.7037 -0.3955  0.2086
  162SAPE  C21518196   0.669   1.838   7.640 -1.0616 -0.1912 -0.6388
  162SAPE  H15R18197   0.712   1.923   7.693 -0.4797 -0.9998  0.2178
  162SAPE  C21618198   0.711   1.714   7.711  0.4977  0.4952 -0.0651
  162SAPE  H16R18199   0.777   1.656   7.643 -1.0305  3.3061 -4.3564
  162SAPE  H16S18200   0.626   1.645   7.729  1.2282 -0.3004  0.3991
  162SAPE  C21718201   0.793   1.732   7.841 -0.1057  0.5942  0.0154
  162SAPE  H17R18202   0.895   1.765   7.810 -0.7936  1.0141 -1.8847
  162SAPE  H17S18203   0.810   1.635   7.893  0.3309 -0.1415 -1.4457
  162SAPE  C21818204   0.732   1.841   7.939  0.1666 -0.2413 -0.3262
  162SAPE  H18R18205   0.622   1.844   7.930  0.2360  2.1060 -1.1172
  162SAPE  H18S18206   0.773   1.943   7.921 -0.8300  0.2721  0.2032
  162SAPE  C21918207   0.759   1.788   8.079 -0.0559  0.1189 -0.3604
  162SAPE  H19R18208   0.868   1.767   8.091 -0.1428 -0.8672 -1.1918
  162SAPE  H19S18209   0.707   1.694   8.106 -0.5161  1.4163  3.9944
  162SAPE  C22018210   0.714   1.894   8.190  0.3498 -0.2791 -0.5294
  162SAPE  H20R18211   0.707   1.852   8.293 -0.5337 -0.2113 -0.5470
  162SAPE  H20S18212   0.611   1.929   8.165  0.0776 -1.1417 -0.6699
  162SAPE  H20T18213   0.780   1.982   8.187 -1.4144  1.1432  0.4243
  162SAPE   C3318214   0.632   1.586   6.688 -0.0546  0.0488  0.1664
  162SAPE   H3X18215   0.595   1.680   6.642 -1.6633 -1.1511 -1.0952
  162SAPE   H3Y18216   0.729   1.548   6.648  0.2227  0.6458  0.2619
  162SAPE   C3418217   0.664   1.605   6.833  0.1162  0.1408  0.5186
  162SAPE   H4X18218   0.733   1.523   6.861 -0.8728 -1.1712 -0.7526
  162SAPE   H4Y18219   0.573   1.604   6.897  0.8337  0.9052  1.5710
  162SAPE   C3518220   0.738   1.744   6.848 -0.0852 -0.3953 -0.1860
  162SAPE   H5X18221   0.682   1.822   6.792  0.7936  0.1253 -0.3604
  162SAPE   H5Y18222   0.839   1.729   6.802  0.2831  0.2745  0.3869
  162SAPE   C3618223   0.750   1.786   6.992 -0.6930  0.2185  0.8017
  162SAPE   H6X18224   0.664   1.740   7.045 -1.9411  1.2850 -0.2371
  162SAPE   H6Y18225   0.744   1.897   6.993 -3.2325  0.1678 -1.1519
  162SAPE   C3718226   0.889   1.736   7.053  0.7264 -0.1910  0.4517
  162SAPE   H7X18227   0.964   1.804   7.009  0.0314 -0.9511 -2.0584
  162SAPE   H7Y18228   0.912   1.633   7.018  0.2177  0.0525 -0.6350
  162SAPE   C3818229   0.893   1.732   7.211 -0.1013 -0.4174  0.4721
  162SAPE   H8X18230   0.817   1.658   7.243 -1.5197  0.0466 -1.6425
  162SAPE   H8Y18231   0.865   1.826   7.263  0.0480 -2.1979  4.0895
  162SAPE   C3918232   1.035   1.701   7.264  0.1521 -0.1823  0.7845
  162SAPE   H9X18233   1.105   1.775   7.220 -1.2828 -0.4569 -2.1969
  162SAPE   H9Y18234   1.076   1.608   7.220 -0.9500  0.0573 -0.8287
  162SAPE  C31018235   1.048   1.727   7.416  0.5692  0.1004  0.6566
  162SAPE  H10X18236   1.010   1.634   7.463  0.0573  0.2607  0.5579
  162SAPE  H10Y18237   0.966   1.795   7.445 -0.2732 -0.5778 -0.0786
  162SAPE  C31118238   1.190   1.757   7.468 -0.3518  0.0374  0.0534
  162SAPE  H11X18239   1.239   1.833   7.404 -0.0797  0.4181  0.6947
  162SAPE  H11Y18240   1.254   1.670   7.444 -1.2194 -0.3516 -0.9014
  162SAPE  C31218241   1.193   1.800   7.621 -0.9575  0.1890  0.3397
  162SAPE  H12X18242   1.159   1.708   7.672  1.7405 -1.2980 -0.3634
  162SAPE  H12Y18243   1.114   1.875   7.643 -1.4226 -0.3704  0.5807
  162SAPE  C31318244   1.319   1.870   7.667 -1.0373  0.3563 -0.1077
  162SAPE  H13X18245   1.340   1.952   7.595  2.4472 -0.8656 -0.6645
  162SAPE  H13Y18246   1.410   1.808   7.651 -1.2672  0.1163 -0.5210
  162SAPE  C31418247   1.318   1.916   7.816  0.8251  0.1532 -0.0398
  162SAPE  H14X18248   1.218   1.953   7.843  0.0745 -1.4944 -0.4088
  162SAPE  H14Y18249   1.393   1.996   7.831 -2.3730  3.3218  0.2252
  162SAPE  C31518250   1.369   1.804   7.917 -0.8463 -0.2172  0.6907
  162SAPE  H15X18251   1.479   1.802   7.898 -0.8414  2.3349  0.1239
  162SAPE  H15Y18252   1.322   1.705   7.900  1.1208 -1.5118  2.3058
  162SAPE  C31618253   1.342   1.839   8.065 -0.3181 -0.0037 -0.3652
  162SAPE  H16X18254   1.385   1.939   8.085  1.3419 -0.6712 -0.3868
  162SAPE  H16Y18255   1.420   1.780   8.119  0.2050 -0.3391 -1.4556
  162SAPE  C31718256   1.201   1.849   8.122 -0.0347  0.0992 -0.1816
  162SAPE  H17X18257   1.141   1.760   8.094 -1.0358  0.5849  0.3367
  162SAPE  H17Y18258   1.163   1.940   8.070  2.3229  1.2132 -0.0877
  162SAPE  C31818259   1.188   1.881   8.273  0.5761 -0.2749 -0.8562
  162SAPE  H18X18260   1.220   1.985   8.296 -2.1905  0.2436  1.3615
  162SAPE  H18Y18261   1.243   1.803   8.329  0.2120  1.3880  2.0832
  162SAPE  H18Z18262   1.084   1.864   8.310  0.6965 -0.4672 -0.6067
  163SAPE     N18263   5.963   6.009   6.491 -0.5773 -0.6138 -0.1553
  163SAPE   HN118264   5.884   6.065   6.529 -0.8121 -1.7384  1.1247
  163SAPE   HN218265   6.031   6.073   6.446 -0.5983 -0.5308 -0.0701
  163SAPE   HN318266   5.914   5.945   6.426 -3.5794  0.2091  1.1009
  163SAPE   C1218267   6.038   5.939   6.594 -0.0090 -0.0216 -0.1465
  163SAPE  H12A18268   6.072   6.008   6.675 -1.7723 -2.1745  2.6318
  163SAPE  H12B18269   6.124   5.890   6.544  0.6440  0.9111  0.0300
  163SAPE   C1118270   5.951   5.835   6.667  0.0461 -0.4304 -0.4632
  163SAPE  H11A18271   5.861   5.887   6.706  0.5145  0.5164 -0.6295
  163SAPE  H11B18272   6.005   5.790   6.753  0.4796  0.5983 -0.1754
  163SAPE     P18273   5.982   5.617   6.509  0.5526  0.3027  0.2568
  163SAPE   O1318274   5.888   5.520   6.440  0.5407 -0.5219 -0.0872
  163SAPE   O1418275   6.083   5.678   6.423  0.3399  0.4799  0.6378
  163SAPE   O1218276   5.902   5.734   6.580 -0.3105  0.1957  0.0204
  163SAPE   O1118277   6.053   5.537   6.631 -0.6027 -0.7779  0.1951
  163SAPE    C118278   5.973   5.491   6.738  0.3312  0.6899  0.7461
  163SAPE    HA18279   5.990   5.565   6.818 -0.1230  1.1309  0.4410
  163SAPE    HB18280   5.865   5.476   6.717  0.7967 -0.1710 -1.3749
  163SAPE    C218281   6.029   5.351   6.779 -0.2948 -0.1743  0.0740
  163SAPE    HS18282   5.957   5.314   6.855 -0.4449  1.2909  0.6736
  163SAPE   O2118283   6.159   5.356   6.828 -0.3269  0.5751 -0.6135
  163SAPE   C2118284   6.187   5.407   6.949 -0.5312 -0.1440 -0.4082
  163SAPE   O2218285   6.097   5.459   7.018  0.2982  0.3031 -0.2532
  163SAPE   C2218286   6.337   5.399   6.981  0.0190 -0.3128 -0.1109
  163SAPE   H2R18287   6.382   5.398   6.879  0.6542  3.1138 -0.0069
  163SAPE   H2S18288   6.372   5.497   7.020 -2.0294 -0.2241  1.6601
  163SAPE    C318289   6.023   5.252   6.654  0.2185 -0.0184 -0.8702
  163SAPE    HX18290   6.100   5.294   6.586 -0.1989  1.5874 -0.3992
  163SAPE    HY18291   5.925   5.267   6.604 -1.8322 -0.2295  2.7132
  163SAPE   O3118292   6.042   5.114   6.701 -0.4468  0.3472  0.6949
  163SAPE   C3118293   6.175   5.073   6.703  0.6500  0.3141  0.0778
  163SAPE   O3218294   6.273   5.139   6.672  0.4502  0.3783 -0.8431
  163SAPE   C3218295   6.184   4.924   6.737  0.0464 -0.4284  0.1859
  163SAPE   H2X18296   6.286   4.904   6.699 -0.7480 -1.3593 -1.5751
  163SAPE   H2Y18297   6.119   4.858   6.675 -0.3556  0.2317 -0.1067
  163SAPE   C2318298   6.388   5.269   7.057  0.7203 -0.6863  0.5239
  163SAPE   H3R18299   6.493   5.249   7.026  0.7672 -0.5389  0.5865
  163SAPE   H3S18300   6.316   5.188   7.031 -0.0390  0.1228  0.0694
  163SAPE   C2418301   6.407   5.282   7.211 -0.2191 -0.3172  0.0870
  163SAPE   H4R18302   6.507   5.323   7.237  0.2377  0.0678 -2.0833
  163SAPE   H4S18303   6.421   5.176   7.243  2.1491  0.8690  3.6153
  163SAPE   C2518304   6.293   5.340   7.288 -0.0481  0.3080 -0.5579
  163SAPE   H5R18305   6.204   5.277   7.301  1.0753 -1.0443  0.9470
  163SAPE   C2618306   6.284   5.462   7.340  0.1670 -0.1896 -0.1388
  163SAPE   H6R18307   6.197   5.485   7.402 -0.4396 -0.2382 -0.9561
  163SAPE   C2718308   6.379   5.575   7.329  0.6093  0.3627 -0.6399
  163SAPE   H7R18309   6.330   5.667   7.290 -0.1100 -0.7662 -2.5661
  163SAPE   H7S18310   6.459   5.554   7.255 -0.8310 -0.9506 -1.8984
  163SAPE   C2818311   6.454   5.609   7.451 -0.2229 -0.7876  0.4275
  163SAPE   H8R18312   6.552   5.560   7.457  1.5575  2.1346 -1.9179
  163SAPE   C2918313   6.411   5.698   7.544 -0.3467 -0.1474 -0.4124
  163SAPE   H9R18314   6.470   5.707   7.637  0.5388 -2.4571 -0.6872
  163SAPE  C21018315   6.287   5.786   7.541 -0.3102 -0.6428 -0.1047
  163SAPE  H10R18316   6.220   5.764   7.627 -0.3995  1.1143  0.2999
  163SAPE  H10S18317   6.221   5.772   7.453 -1.7543  0.8232  0.7007
  163SAPE  C21118318   6.324   5.936   7.518  0.1425 -0.3204 -0.0074
  163SAPE  H11R18319   6.346   5.959   7.413  1.5093  1.4707  0.6185
  163SAPE  C21218320   6.303   6.044   7.596  0.0565  0.3551 -0.0194
  163SAPE  H12R18321   6.346   6.137   7.556 -0.1569  0.5876  0.2906
  163SAPE  C21318322   6.247   6.052   7.735 -0.1442  0.1468  0.3164
  163SAPE  H13R18323   6.182   5.964   7.758 -0.0563 -0.1306 -0.4696
  163SAPE  H13S18324   6.175   6.136   7.748 -0.6012 -0.0162 -1.0386
  163SAPE  C21418325   6.347   6.065   7.847 -0.6859  0.0045  0.1571
  163SAPE  H14R18326   6.392   6.164   7.863 -1.5213  0.7252 -1.6439
  163SAPE  C21518327   6.362   5.978   7.950  0.3582  0.4574 -0.4420
  163SAPE  H15R18328   6.432   5.998   8.032 -0.0120  0.8698 -0.2215
  163SAPE  C21618329   6.281   5.850   7.978  0.1095  0.3695 -0.1989
  163SAPE  H16R18330   6.331   5.760   7.936 -0.9446 -0.1996 -0.2708
  163SAPE  H16S18331   6.189   5.847   7.916  0.9074  0.3574 -1.4174
  163SAPE  C21718332   6.248   5.832   8.128  1.0174 -0.3445 -0.0835
  163SAPE  H17R18333   6.338   5.835   8.194 -0.6416 -0.4667  2.2945
  163SAPE  H17S18334   6.196   5.737   8.150  0.8901 -0.2331  0.0940
  163SAPE  C21818335   6.143   5.938   8.169  0.7435  0.7052  0.1248
  163SAPE  H18R18336   6.056   5.927   8.100 -1.1997 -2.5477  2.8029
  163SAPE  H18S18337   6.186   6.041   8.173 -0.0839  1.0232  1.2036
  163SAPE  C21918338   6.095   5.921   8.306  0.3099 -0.1199 -0.2590
  163SAPE  H19R18339   6.074   5.813   8.323  2.8028 -0.9435 -1.8927
  163SAPE  H19S18340   5.998   5.974   8.313 -0.3589 -1.1643 -1.2762
  163SAPE  C22018341   6.194   5.967   8.411  0.1974 -0.1315 -0.8854
  163SAPE  H20R18342   6.153   5.936   8.510 -2.6602  2.5968 -1.0627
  163SAPE  H20S18343   6.197   6.078   8.408 -1.5695  0.0200  0.5966
  163SAPE  H20T18344   6.291   5.915   8.396  0.3945 -0.5469  1.4454
  163SAPE   C3318345   6.184   4.901   6.894  0.2596  0.0577  0.8684
  163SAPE   H3X18346   6.257   4.966   6.948  0.0770  1.9283 -0.9974
  163SAPE   H3Y18347   6.231   4.801   6.903  1.6770  0.4341 -1.4914
  163SAPE   C3418348   6.047   4.918   6.961 -0.3418 -0.6954  0.4654
  163SAPE   H4X18349   5.982   4.851   6.901 -0.8734 -0.6308  0.9649
  163SAPE   H4Y18350   6.018   5.025   6.952 -0.3325 -0.8044 -1.2245
  163SAPE   C3518351   6.044   4.879   7.108  0.4601  0.2605 -0.6362
  163SAPE   H5X18352   6.075   4.772   7.105 -2.1935 -0.5683 -2.5594
  163SAPE   H5Y18353   5.940   4.876   7.147  0.1661  1.5407 -1.2687
  163SAPE   C3618354   6.125   4.965   7.209 -0.0201  0.2960  0.2759
  163SAPE   H6X18355   6.098   5.072   7.192 -1.3213 -0.0830 -0.1523
  163SAPE   H6Y18356   6.236   4.961   7.196 -0.1756 -0.6737 -0.9451
  163SAPE   C3718357   6.085   4.935   7.361  0.2235  0.7799  0.1071
  163SAPE   H7X18358   6.127   4.840   7.399 -0.5847  1.0507  1.7941
  163SAPE   H7Y18359   5.976   4.924   7.345  0.6333 -1.0148 -2.0407
  163SAPE   C3818360   6.114   5.052   7.456 -1.0569 -0.4786  0.2495
  163SAPE   H8X18361   6.064   5.146   7.427  0.9451  0.2961 -0.9490
  163SAPE   H8Y18362   6.224   5.064   7.449 -1.0071 -0.7290  0.5723
  163SAPE   C3918363   6.090   5.018   7.600  0.3019 -0.1822  0.2108
  163SAPE   H9X18364   6.158   4.940   7.641 -0.4844 -1.3536 -0.6475
  163SAPE   H9Y18365   5.990   4.971   7.608  0.7164 -1.0736  0.3005
  163SAPE  C31018366   6.103   5.136   7.695 -0.1062  0.3573 -0.7066
  163SAPE  H10X18367   6.090   5.097   7.798  0.9664 -2.1659 -1.4660
  163SAPE  H10Y18368   6.022   5.209   7.675  1.4629  1.5119 -3.4866
  163SAPE  C31118369   6.235   5.211   7.668  0.1603  0.2028 -0.2337
  163SAPE  H11X18370   6.261   5.244   7.565  3.6269 -1.7747 -0.1443
  163SAPE  H11Y18371   6.311   5.131   7.685  0.4672  0.7340  0.9711
  163SAPE  C31218372   6.271   5.313   7.779 -0.0792 -0.3723  0.5938
  163SAPE  H12X18373   6.270   5.265   7.879  0.0168  0.3538  0.9443
  163SAPE  H12Y18374   6.186   5.384   7.786  0.0870 -0.0647 -0.3550
  163SAPE  C31318375   6.412   5.377   7.750 -0.4923 -0.3811 -0.3196
  163SAPE  H13X18376   6.403   5.430   7.653  0.5446  0.8336  0.2067
  163SAPE  H13Y18377   6.497   5.307   7.733 -1.9383 -2.2746 -0.0633
  163SAPE  C31418378   6.436   5.488   7.851  0.1489  0.1428 -0.2598
  163SAPE  H14X18379   6.343   5.531   7.893 -0.0690 -0.6235  0.0678
  163SAPE  H14Y18380   6.488   5.573   7.802 -0.9768  0.7616 -0.4296
  163SAPE  C31518381   6.519   5.429   7.971  0.7055 -0.5862  0.5502
  163SAPE  H15X18382   6.626   5.444   7.944  0.3693  0.2057 -0.4226
  163SAPE  H15Y18383   6.490   5.323   7.956  2.5016 -0.8598 -1.5398
  163SAPE  C31618384   6.482   5.487   8.113 -0.5950 -0.5072  0.0371
  163SAPE  H16X18385   6.374   5.474   8.132 -0.4774  0.7917  1.8309
  163SAPE  H16Y18386   6.508   5.594   8.094 -2.1381  0.1077  1.2019
  163SAPE  C31718387   6.561   5.422   8.226  0.1674 -0.7693  0.3751
  163SAPE  H17X18388   6.665   5.461   8.233 -0.3697  1.1011 -1.0919
  163SAPE  H17Y18389   6.566   5.315   8.197 -0.0359 -1.0638  1.3723
  163SAPE  C31818390   6.509   5.435   8.365 -0.4841  0.4416  0.0320
  163SAPE  H18X18391   6.416   5.377   8.381  0.7906 -1.3202  1.5294
  163SAPE  H18Y18392   6.508   5.540   8.404  2.6892  0.8062 -0.6128
  163SAPE  H18Z18393   6.578   5.377   8.430 -0.6926 -1.1597 -1.1452
  164SAPE     N18394   1.407   3.658   5.829  0.6728  0.2703 -0.8656
  164SAPE   HN118395   1.337   3.639   5.904  1.0219 -1.0229 -0.8551
  164SAPE   HN218396   1.407   3.761   5.811 -2.6920  0.5300 -0.0713
  164SAPE   HN318397   1.354   3.614   5.751 -3.0169  0.3815  1.3023
  164SAPE   C1218398   1.548   3.607   5.864  0.2270 -0.4185  0.3071
  164SAPE  H12A18399   1.593   3.664   5.947 -0.7111  1.0940 -0.1746
  164SAPE  H12B18400   1.605   3.628   5.771 -0.2124 -1.3800 -0.1896
  164SAPE   C1118401   1.542   3.462   5.894 -0.2264  0.8920 -0.4767
  164SAPE  H11A18402   1.509   3.416   5.798 -1.4204 -0.1212  0.3792
  164SAPE  H11B18403   1.468   3.432   5.971 -0.6964  1.3177 -0.7494
  164SAPE     P18404   1.692   3.270   5.990 -0.3237  0.1228 -0.0125
  164SAPE   O1318405   1.638   3.164   5.902 -0.4721 -0.1217  0.3593
  164SAPE   O1418406   1.842   3.264   6.005  0.1004 -0.0209  0.6744
  164SAPE   O1218407   1.666   3.414   5.934  0.3997  0.5085  0.9874
  164SAPE   O1118408   1.620   3.255   6.136 -0.2705 -0.1662  0.3097
  164SAPE    C118409   1.610   3.365   6.222  0.2038  0.1509  1.3502
  164SAPE    HA18410   1.705   3.370   6.280  0.9539 -3.2512  0.6264
  164SAPE    HB18411   1.591   3.461   6.171 -0.7282 -0.7091  0.0185
  164SAPE    C218412   1.503   3.341   6.330  0.4789 -0.3324 -0.1529
  164SAPE    HS18413   1.511   3.436   6.388  1.9532  0.2735 -1.2810
  164SAPE   O2118414   1.542   3.234   6.426  0.2106  0.1870 -0.1541
  164SAPE   C2118415   1.644   3.249   6.510 -0.2402  0.3370  0.6135
  164SAPE   O2218416   1.712   3.347   6.523  0.3628  0.5338  0.0403
  164SAPE   C2218417   1.645   3.132   6.601 -0.2661  1.0818 -0.9286
  164SAPE   H2R18418   1.549   3.077   6.610 -0.6249  1.4464 -2.2664
  164SAPE   H2S18419   1.724   3.064   6.561  2.3188  1.7855  2.5379
  164SAPE    C318420   1.361   3.312   6.277 -0.6884 -0.7484 -0.0461
  164SAPE    HX18421   1.362   3.214   6.224 -0.5552  1.0506 -3.6750
  164SAPE    HY18422   1.328   3.392   6.207 -1.7098 -0.1119  1.1508
  164SAPE   O3118423   1.263   3.311   6.378 -0.3962 -0.1696  0.1369
  164SAPE   C3118424   1.208   3.194   6.414  0.2701  0.0776 -0.2172
  164SAPE   O3218425   1.201   3.091   6.352 -0.0628  0.1376  0.3074
  164SAPE   C3218426   1.126   3.220   6.541 -0.0831  0.2969 -0.2140
  164SAPE   H2X18427   1.057   3.132   6.539 -0.4624  0.5156 -4.3600
  164SAPE   H2Y18428   1.063   3.311   6.533  1.9222  1.8898  1.0710
  164SAPE   C2318429   1.697   3.155   6.747 -0.1075  0.6773  0.0098
  164SAPE   H3R18430   1.788   3.219   6.735  0.4488 -0.3302 -1.4779
  164SAPE   H3S18431   1.728   3.065   6.803 -0.3063  0.5596 -0.0695
  164SAPE   C2418432   1.593   3.226   6.838  0.3069 -0.7435 -0.2019
  164SAPE   H4R18433   1.630   3.212   6.942  0.1193  2.1087  0.3076
  164SAPE   H4S18434   1.504   3.161   6.824  1.6603 -2.6900 -0.3228
  164SAPE   C2518435   1.567   3.376   6.818 -0.1411 -0.2012 -0.9012
  164SAPE   H5R18436   1.566   3.402   6.712 -0.4672  0.5566 -0.7168
  164SAPE   C2618437   1.552   3.484   6.907  0.7354  0.0368 -0.1150
  164SAPE   H6R18438   1.546   3.582   6.858 -0.8790  1.3144  2.4463
  164SAPE   C2718439   1.561   3.481   7.057  0.8132 -0.0977 -0.3382
  164SAPE   H7R18440   1.670   3.471   7.077  0.9431  0.5298 -0.7133
  164SAPE   H7S18441   1.522   3.380   7.084 -0.3212 -0.0798 -1.8205
  164SAPE   C2818442   1.489   3.583   7.147 -0.5827  0.0912 -0.3772
  164SAPE   H8R18443   1.394   3.614   7.103 -2.3113 -1.9113  1.6898
  164SAPE   C2918444   1.528   3.626   7.270  0.1623 -0.4440 -0.2666
  164SAPE   H9R18445   1.467   3.699   7.325  1.4472  0.1257  0.4439
  164SAPE  C21018446   1.660   3.571   7.339  0.7188 -0.5549 -0.0933
  164SAPE  H10R18447   1.709   3.642   7.408  1.1743 -1.2901  0.3430
  164SAPE  H10S18448   1.736   3.552   7.260  1.8665  0.3665  0.7648
  164SAPE  C21118449   1.639   3.442   7.413 -0.1266 -0.4005 -0.7375
  164SAPE  H11R18450   1.558   3.379   7.373 -2.6302  1.9538  0.3192
  164SAPE  C21218451   1.717   3.392   7.514  0.8495  0.0740 -0.1616
  164SAPE  H12R18452   1.686   3.297   7.561 -1.2226  0.8068  0.0647
  164SAPE  C21318453   1.832   3.470   7.565 -0.4645 -0.3932 -0.5556
  164SAPE  H13R18454   1.803   3.556   7.629  2.5972  1.3739 -1.3103
  164SAPE  H13S18455   1.875   3.539   7.489 -1.4462  2.4878  1.3328
  164SAPE  C21418456   1.939   3.376   7.618 -0.0239 -0.0608 -0.1450
  164SAPE  H14R18457   1.946   3.282   7.562 -0.3972  0.4837 -1.1239
  164SAPE  C21518458   2.003   3.386   7.736 -0.6997  0.1204  0.0556
  164SAPE  H15R18459   2.085   3.315   7.759 -1.6565 -1.1932 -0.4500
  164SAPE  C21618460   1.982   3.504   7.833  0.0267 -0.4969  0.6226
  164SAPE  H16R18461   1.880   3.506   7.878  0.0308  1.1945  0.6159
  164SAPE  H16S18462   2.009   3.604   7.792 -1.3513  0.6902  2.4690
  164SAPE  C21718463   2.066   3.490   7.959 -0.0486 -0.0594 -0.6650
  164SAPE  H17R18464   2.174   3.486   7.931 -0.3978 -0.8613 -1.9656
  164SAPE  H17S18465   2.048   3.386   7.994  1.3878  0.0086  0.3889
  164SAPE  C21818466   2.025   3.579   8.080  0.0368 -0.5253  0.2138
  164SAPE  H18R18467   1.916   3.568   8.096 -0.1887  0.2901 -0.6947
  164SAPE  H18S18468   2.034   3.689   8.064 -1.0313  0.0133  2.7098
  164SAPE  C21918469   2.108   3.559   8.210  0.1462 -0.2227  0.2732
  164SAPE  H19R18470   2.072   3.630   8.287  1.7453 -0.6335  1.4511
  164SAPE  H19S18471   2.218   3.569   8.201  0.2981 -1.9692 -0.2485
  164SAPE  C22018472   2.114   3.417   8.259  0.0084  0.4117 -0.5995
  164SAPE  H20R18473   2.015   3.367   8.255 -0.4781  1.3713 -1.1409
  164SAPE  H20S18474   2.166   3.402   8.356  4.3972  1.5644 -2.5208
  164SAPE  H20T18475   2.179   3.357   8.192  0.2295 -0.0749  0.0459
  164SAPE   C3318476   1.220   3.209   6.675  0.1042  0.2444  0.8431
  164SAPE   H3X18477   1.306   3.276   6.658 -2.0086  2.3641 -2.6799
  164SAPE   H3Y18478   1.266   3.108   6.680 -1.3544 -0.5924 -1.1884
  164SAPE   C3418479   1.149   3.261   6.799  0.1987 -0.5271  0.2528
  164SAPE   H4X18480   1.220   3.247   6.883  1.2841 -1.1090 -0.7229
  164SAPE   H4Y18481   1.069   3.185   6.810  2.6643 -3.1133  1.5133
  164SAPE   C3518482   1.095   3.407   6.782 -0.2585 -0.4286 -0.3006
  164SAPE   H5X18483   1.009   3.414   6.712  0.1513  2.5858 -0.6360
  164SAPE   H5Y18484   1.185   3.466   6.756  1.1837 -2.5463 -0.3937
  164SAPE   C3618485   1.044   3.463   6.917 -0.4472  0.3700  0.0656
  164SAPE   H6X18486   0.980   3.385   6.962  0.6756 -0.8493 -0.3903
  164SAPE   H6Y18487   0.998   3.559   6.883 -1.9133 -0.7191 -1.1664
  164SAPE   C3718488   1.162   3.494   7.014  0.8683  0.4801 -0.4529
  164SAPE   H7X18489   1.232   3.576   6.988  0.0604  1.4411  0.2932
  164SAPE   H7Y18490   1.220   3.401   7.030  1.3440  0.8359 -0.0522
  164SAPE   C3818491   1.107   3.519   7.160 -0.2405 -0.3218 -0.0177
  164SAPE   H8X18492   0.997   3.534   7.161 -0.0140  2.0243 -1.3671
  164SAPE   H8Y18493   1.147   3.614   7.202 -0.5305 -0.9711  1.7995
  164SAPE   C3918494   1.138   3.417   7.270  0.0600  0.6018  0.5369
  164SAPE   H9X18495   1.133   3.463   7.371 -1.5352  0.9101  0.3297
  164SAPE   H9Y18496   1.244   3.393   7.246 -0.0299  0.5986  0.1460
  164SAPE  C31018497   1.044   3.298   7.277 -0.2049 -0.0035 -0.3483
  164SAPE  H10X18498   1.086   3.239   7.193  0.1608  0.0723 -0.2228
  164SAPE  H10Y18499   0.938   3.326   7.259 -0.4784 -0.9294 -0.2322
  164SAPE  C31118500   1.062   3.210   7.400  0.6579  0.9157 -0.3861
  164SAPE  H11X18501   1.161   3.226   7.448  0.4780  0.4982  0.1359
  164SAPE  H11Y18502   1.060   3.102   7.373 -1.5731  0.6540  0.5961
  164SAPE  C31218503   0.947   3.229   7.507 -0.2546 -0.6862 -0.6369
  164SAPE  H12X18504   0.856   3.186   7.461  0.1097 -1.0773 -0.9937
  164SAPE  H12Y18505   0.923   3.338   7.511  0.5342 -0.5288  0.3992
  164SAPE  C31318506   0.973   3.166   7.646 -0.1346 -0.4619 -0.5949
  164SAPE  H13X18507   1.069   3.207   7.685  0.4526 -1.7604 -0.6502
  164SAPE  H13Y18508   0.986   3.058   7.628 -1.7799 -0.3756 -2.7086
  164SAPE  C31418509   0.866   3.190   7.757 -0.5519 -0.0542 -0.0903
  164SAPE  H14X18510   0.763   3.171   7.720 -0.0263 -1.4131 -0.9235
  164SAPE  H14Y18511   0.866   3.301   7.767 -0.0022  0.2327 -2.5658
  164SAPE  C31518512   0.892   3.132   7.899 -0.0305 -0.0408  0.6941
  164SAPE  H15X18513   0.851   3.029   7.888  0.1974 -0.2318  1.5662
  164SAPE  H15Y18514   0.812   3.167   7.967  1.0045  2.9976  0.4921
  164SAPE  C31618515   1.036   3.133   7.958  0.2324  0.0082 -0.2008
  164SAPE  H16X18516   1.069   3.238   7.970 -2.0148  0.5018  2.9284
  164SAPE  H16Y18517   1.113   3.088   7.892 -0.2159  0.1723 -0.8419
  164SAPE  C31718518   1.040   3.050   8.093  0.2145 -0.2715  0.3859
  164SAPE  H17X18519   1.145   3.052   8.131  0.9620 -1.3730 -1.4577
  164SAPE  H17Y18520   1.020   2.944   8.066 -3.7499  0.0240  1.5492
  164SAPE  C31818521   0.940   3.095   8.197  0.4691 -0.6299  0.7277
  164SAPE  H18X18522   0.835   3.084   8.163  0.2990 -0.7418  1.2845
  164SAPE  H18Y18523   0.954   3.205   8.210 -0.2015 -0.6030  1.2379
  164SAPE  H18Z18524   0.933   3.033   8.288 -0.4233  0.0721  1.1456
  165SAPE     N18525   2.609   4.700   6.196 -0.0140  0.2750 -0.6492
  165SAPE   HN118526   2.652   4.770   6.259 -0.1754 -1.1099  1.0932
  165SAPE   HN218527   2.512   4.701   6.234  0.6935 -3.9911  1.9648
  165SAPE   HN318528   2.650   4.607   6.220  0.7327  0.4283 -1.3264
  165SAPE   C1218529   2.628   4.745   6.053  0.5850  0.6220 -0.0870
  165SAPE  H12A18530   2.557   4.678   6.001 -0.6106  0.8878  1.1531
  165SAPE  H12B18531   2.732   4.715   6.026  0.6873 -0.0681  1.0165
  165SAPE   C1118532   2.610   4.897   6.036  0.4425 -0.0119  0.1065
  165SAPE  H11A18533   2.503   4.917   6.056  0.3757  0.9971 -1.1172
  165SAPE  H11B18534   2.635   4.913   5.929  2.3039  3.1977  0.9106
  165SAPE     P18535   2.794   5.075   6.085  0.0303 -0.0912  0.0384
  165SAPE   O1318536   2.787   5.095   5.938 -0.2768  0.7720  0.1578
  165SAPE   O1418537   2.776   5.199   6.164 -0.3455  0.0486 -0.4735
  165SAPE   O1218538   2.686   4.968   6.128 -0.1419  0.2179  0.6065
  165SAPE   O1118539   2.921   4.998   6.115 -0.3299  0.8176  0.0921
  165SAPE    C118540   2.953   4.892   6.202  0.5827  0.0580 -0.3016
  165SAPE    HA18541   2.874   4.814   6.210  1.4966 -0.6911  2.6710
  165SAPE    HB18542   3.041   4.836   6.166  1.2485  1.0333 -0.2311
  165SAPE    C218543   2.985   4.948   6.346  0.1947 -0.5956  0.2683
  165SAPE    HS18544   3.001   4.862   6.414  0.7689  0.4139  1.4292
  165SAPE   O2118545   2.879   5.027   6.395  0.2632 -0.0209 -0.3126
  165SAPE   C2118546   2.762   4.970   6.416 -0.4676  0.0224 -0.5880
  165SAPE   O2218547   2.733   4.853   6.407 -0.7938 -0.1081  0.0894
  165SAPE   C2218548   2.666   5.082   6.457  0.2350  0.3562  0.1855
  165SAPE   H2R18549   2.691   5.161   6.384 -1.3434  1.2202  0.5261
  165SAPE   H2S18550   2.565   5.042   6.432  0.9260 -1.1696 -0.2627
  165SAPE    C318551   3.112   5.029   6.338  0.0839  0.0198 -0.2704
  165SAPE    HX18552   3.102   5.087   6.244 -1.0315  1.2860  0.5887
  165SAPE    HY18553   3.199   4.960   6.335  1.2428  1.4507 -0.6330
  165SAPE   O3118554   3.126   5.121   6.452 -0.1624 -0.1507 -0.9183
  165SAPE   C3118555   3.116   5.080   6.574 -0.4278  0.3309  0.8714
  165SAPE   O3218556   3.133   4.968   6.618 -0.4060  0.2277 -0.4044
  165SAPE   C3218557   3.075   5.204   6.658  0.2541  0.5318  0.2839
  165SAPE   H2X18558   2.999   5.263   6.602 -1.5472  1.3634  3.3851
  165SAPE   H2Y18559   3.164   5.266   6.679  1.6562 -0.9095 -1.1919
  165SAPE   C2318560   2.671   5.133   6.597  0.3159 -0.0020 -0.2310
  165SAPE   H3R18561   2.600   5.214   6.622  2.6867  1.6855  1.4913
  165SAPE   H3S18562   2.772   5.180   6.594  0.8004 -1.0693 -1.9386
  165SAPE   C2418563   2.665   5.030   6.709 -0.4363 -0.5619  0.2053
  165SAPE   H4R18564   2.715   5.074   6.798  0.0542  3.8546 -1.9770
  165SAPE   H4S18565   2.713   4.932   6.688 -1.3108 -1.0281  0.3025
  165SAPE   C2518566   2.522   4.996   6.726  0.0662  0.3058  0.2695
  165SAPE   H5R18567   2.482   4.919   6.658 -1.0158 -0.7089  1.9929
  165SAPE   C2618568   2.446   5.042   6.825  0.6521 -0.0994 -0.0682
  165SAPE   H6R18569   2.346   4.999   6.845  0.0575  1.2257 -0.0987
  165SAPE   C2718570   2.485   5.147   6.925  0.3579  0.2684 -0.1659
  165SAPE   H7R18571   2.408   5.228   6.928 -0.9199 -0.9275  0.9757
  165SAPE   H7S18572   2.585   5.184   6.897  0.7172 -1.9222 -2.1144
  165SAPE   C2818573   2.496   5.084   7.066  0.1133 -0.6829 -0.2105
  165SAPE   H8R18574   2.580   5.014   7.076 -0.8815 -1.9496 -0.5194
  165SAPE   C2918575   2.425   5.109   7.175 -0.3168 -0.3091 -1.2696
  165SAPE   H9R18576   2.440   5.035   7.256  0.1155 -0.7255 -1.7212
  165SAPE  C21018577   2.313   5.211   7.189 -0.4365  1.1054 -0.3775
  165SAPE  H10R18578   2.219   5.155   7.209  1.2455 -2.1795 -0.9228
  165SAPE  H10S18579   2.294   5.275   7.100 -1.1848  0.7160 -0.5116
  165SAPE  C21118580   2.338   5.306   7.304  0.1630  0.2127 -0.2269
  165SAPE  H11R18581   2.397   5.397   7.286  0.1748  0.7755  2.2621
  165SAPE  C21218582   2.292   5.274   7.431 -0.2668  0.0566 -0.9921
  165SAPE  H12R18583   2.324   5.333   7.518  1.2703 -0.2960 -1.2817
  165SAPE  C21318584   2.199   5.160   7.486 -0.3200 -0.4196 -0.4413
  165SAPE  H13R18585   2.136   5.108   7.411  0.3226 -0.8712 -0.6725
  165SAPE  H13S18586   2.127   5.192   7.564  1.8438  0.3314  1.3400
  165SAPE  C21418587   2.279   5.048   7.545 -0.1022  0.2171  0.5095
  165SAPE  H14R18588   2.327   4.977   7.476 -2.7563  0.8107 -2.1605
  165SAPE  C21518589   2.296   5.020   7.668 -0.3751 -0.7914  0.2860
  165SAPE  H15R18590   2.351   4.931   7.702 -0.5906 -1.1683 -0.3532
  165SAPE  C21618591   2.242   5.111   7.779 -0.2008  0.5690  0.0107
  165SAPE  H16R18592   2.249   5.059   7.877  0.3652 -1.6132 -1.1325
  165SAPE  H16S18593   2.137   5.142   7.760 -0.4711 -0.2916  0.0623
  165SAPE  C21718594   2.342   5.232   7.790  0.2136 -0.2587  0.4705
  165SAPE  H17R18595   2.347   5.304   7.705 -0.3606 -1.1869 -0.3640
  165SAPE  H17S18596   2.447   5.197   7.777  0.2991  0.4399 -1.0435
  165SAPE  C21818597   2.336   5.307   7.924 -0.2207  0.4177 -0.2623
  165SAPE  H18R18598   2.313   5.239   8.009 -0.6535  0.6758 -0.1699
  165SAPE  H18S18599   2.266   5.392   7.923 -1.0216 -0.2346 -1.0146
  165SAPE  C21918600   2.475   5.372   7.967 -0.2600  0.5284  0.9453
  165SAPE  H19R18601   2.503   5.454   7.898 -0.0460 -1.3793 -1.3404
  165SAPE  H19S18602   2.554   5.294   7.965 -0.9791 -0.2020 -0.7478
  165SAPE  C22018603   2.473   5.412   8.115  0.0581 -0.5246 -0.3476
  165SAPE  H20R18604   2.385   5.480   8.121  0.2754 -0.1012 -1.6320
  165SAPE  H20S18605   2.570   5.457   8.145  1.1853 -3.7274  1.3005
  165SAPE  H20T18606   2.453   5.335   8.192  1.7192 -0.4732  0.1569
  165SAPE   C3318607   3.014   5.156   6.794  0.6688  0.6740 -0.7225
  165SAPE   H3X18608   2.938   5.076   6.776 -0.4876  1.3066  1.1059
  165SAPE   H3Y18609   2.960   5.246   6.829 -0.9501 -0.6371  0.2937
  165SAPE   C3418610   3.118   5.123   6.903 -0.9982 -0.1969 -0.0318
  165SAPE   H4X18611   3.185   5.211   6.906  0.7250 -1.4361 -0.5626
  165SAPE   H4Y18612   3.177   5.033   6.873 -1.0043 -0.4758  0.7557
  165SAPE   C3518613   3.040   5.119   7.036  0.3885  0.4792  0.4517
  165SAPE   H5X18614   2.973   5.037   7.003  2.1084  0.0107 -2.1754
  165SAPE   H5Y18615   2.975   5.207   7.059  0.1678  0.0554  1.4996
  165SAPE   C3618616   3.119   5.090   7.165 -0.3588 -0.7223 -0.2011
  165SAPE   H6X18617   3.201   5.166   7.166 -1.8602  0.9685  1.1119
  165SAPE   H6Y18618   3.175   4.994   7.164  0.6795 -0.2250  2.4607
  165SAPE   C3718619   3.056   5.111   7.301 -0.3343  0.3715  0.2062
  165SAPE   H7X18620   2.958   5.057   7.301 -0.4935  0.5311 -2.5863
  165SAPE   H7Y18621   3.031   5.218   7.318  1.8326  0.7484  1.3561
  165SAPE   C3818622   3.151   5.076   7.415 -0.1403  0.7473 -0.2253
  165SAPE   H8X18623   3.245   5.136   7.405  0.9358 -0.5175  1.5865
  165SAPE   H8Y18624   3.179   4.970   7.404  0.1858  0.5302  2.1381
  165SAPE   C3918625   3.101   5.103   7.559 -0.2328  0.2529  0.4425
  165SAPE   H9X18626   3.029   5.028   7.597 -0.8991 -0.9064 -2.7301
  165SAPE   H9Y18627   3.051   5.202   7.554  0.9328  0.9269  1.5604
  165SAPE  C31018628   3.221   5.108   7.649 -0.4964  0.2969  0.1236
  165SAPE  H10X18629   3.273   5.201   7.618 -0.9160  0.2277 -0.8274
  165SAPE  H10Y18630   3.290   5.022   7.633  0.2278  0.4697  2.1038
  165SAPE  C31118631   3.190   5.115   7.797  0.3451 -0.0255  0.2610
  165SAPE  H11X18632   3.122   5.034   7.831  1.5071 -0.7003  1.0638
  165SAPE  H11Y18633   3.138   5.212   7.813 -1.0879 -0.5264 -1.1249
  165SAPE  C31218634   3.311   5.127   7.890 -0.3021  0.3696  0.0428
  165SAPE  H12X18635   3.286   5.130   7.998  1.4029  2.2331  0.4555
  165SAPE  H12Y18636   3.372   5.216   7.861  1.1406 -0.9434 -1.1521
  165SAPE  C31318637   3.409   5.007   7.864 -0.3777  0.1959 -0.0413
  165SAPE  H13X18638   3.448   4.986   7.762 -2.8571 -1.4020 -0.7574
  165SAPE  H13Y18639   3.348   4.917   7.887  1.0509 -0.9631 -0.6008
  165SAPE  C31418640   3.523   5.003   7.957 -0.0636 -0.3232 -0.2423
  165SAPE  H14X18641   3.487   5.033   8.058 -0.3383  0.6774 -0.6325
  165SAPE  H14Y18642   3.600   5.075   7.922  2.6956 -2.9071  0.0705
  165SAPE  C31518643   3.591   4.864   7.980  0.5164 -0.4260  0.3804
  165SAPE  H15X18644   3.682   4.885   8.041 -0.4200 -0.4057  1.8214
  165SAPE  H15Y18645   3.622   4.815   7.885  0.8086  1.1887 -0.3985
  165SAPE  C31618646   3.502   4.766   8.053 -0.2281 -0.5402 -0.1695
  165SAPE  H16X18647   3.400   4.748   8.011 -1.3627 -0.0103  2.2071
  165SAPE  H16Y18648   3.463   4.806   8.149  0.5729 -0.3507  0.0796
  165SAPE  C31718649   3.580   4.642   8.077  0.5626  0.6992 -0.4001
  165SAPE  H17X18650   3.673   4.682   8.124  1.0928  0.3120 -1.0986
  165SAPE  H17Y18651   3.598   4.571   7.993 -3.3216 -0.4650 -0.4516
  165SAPE  C31818652   3.528   4.561   8.199  0.6289 -0.4955  0.2860
  165SAPE  H18X18653   3.511   4.625   8.288  0.4110 -1.3251  0.8559
  165SAPE  H18Y18654   3.590   4.470   8.215  1.1999 -0.4003 -1.1765
  165SAPE  H18Z18655   3.427   4.523   8.170  0.0418  1.9256 -1.1654
  166SAPE     N18656   1.150   1.905   5.753  0.2858 -0.7960 -0.2496
  166SAPE   HN118657   1.053   1.873   5.733 -0.1426 -1.6420  2.7516
  166SAPE   HN218658   1.160   1.988   5.690 -1.7144  0.6265  1.1614
  166SAPE   HN318659   1.209   1.828   5.716 -0.3731 -0.8244 -1.2728
  166SAPE   C1218660   1.163   1.930   5.906  1.0363  0.0782 -0.4344
  166SAPE  H12A18661   1.167   1.835   5.963  2.5832 -0.1157 -0.8026
  166SAPE  H12B18662   1.075   1.986   5.944  1.6300  0.4643  0.4109
  166SAPE   C1118663   1.291   2.021   5.928  0.1199 -0.2358  0.0687
  166SAPE  H11A18664   1.373   1.961   5.885  0.6035 -0.9785  1.9113
  166SAPE  H11B18665   1.310   2.035   6.037  0.3212  0.3361 -0.0416
  166SAPE     P18666   1.402   2.239   5.829 -0.3154 -0.0838  0.0798
  166SAPE   O1318667   1.504   2.179   5.746 -0.1331  0.1658 -0.0909
  166SAPE   O1418668   1.359   2.371   5.784  0.4504 -0.3214 -0.5989
  166SAPE   O1218669   1.273   2.146   5.859  0.6756  0.0527 -0.0254
  166SAPE   O1118670   1.461   2.262   5.973  0.5730 -0.1060  0.2565
  166SAPE    C118671   1.367   2.303   6.082 -0.3540  0.0595  0.1872
  166SAPE    HA18672   1.269   2.340   6.045  0.1620  1.6032  0.3162
  166SAPE    HB18673   1.335   2.216   6.142  1.6302 -0.7306  0.1619
  166SAPE    C218674   1.415   2.408   6.183  0.1217  0.6500 -0.3673
  166SAPE    HS18675   1.326   2.434   6.245 -0.6160  0.1966 -1.2251
  166SAPE   O2118676   1.466   2.525   6.120 -0.2543  0.1652 -0.0183
  166SAPE   C2118677   1.375   2.597   6.052 -0.4384  0.0995 -0.1369
  166SAPE   O2218678   1.254   2.583   6.066 -1.0539  0.1170  0.5959
  166SAPE   C2218679   1.445   2.699   5.966 -0.1473  1.0495  0.5705
  166SAPE   H2R18680   1.551   2.714   5.997  0.6807 -0.8652 -1.0094
  166SAPE   H2S18681   1.441   2.667   5.859 -0.1431  2.1880  0.2248
  166SAPE    C318682   1.522   2.338   6.263 -0.0346 -0.6227 -0.9832
  166SAPE    HX18683   1.580   2.408   6.327 -0.5838 -0.8766 -0.1938
  166SAPE    HY18684   1.594   2.293   6.191 -0.1265 -0.9785 -0.8528
  166SAPE   O3118685   1.462   2.241   6.350  0.2238  0.0154 -0.7769
  166SAPE   C3118686   1.501   2.116   6.337 -0.2493  0.2239  0.2815
  166SAPE   O3218687   1.596   2.074   6.271 -0.0049  0.3830 -0.2001
  166SAPE   C3218688   1.398   2.034   6.423  1.3278  0.3742 -0.2801
  166SAPE   H2X18689   1.318   2.014   6.348  1.6808  2.9797 -1.4530
  166SAPE   H2Y18690   1.362   2.110   6.496 -2.5221  0.1898 -1.7443
  166SAPE   C2318691   1.380   2.835   5.963  0.2917 -0.2234 -0.0803
  166SAPE   H3R18692   1.284   2.832   5.907  0.2835 -1.2973 -0.0180
  166SAPE   H3S18693   1.446   2.895   5.897  0.6706 -0.1325  0.3811
  166SAPE   C2418694   1.370   2.914   6.098  0.0060 -0.2206  0.6610
  166SAPE   H4R18695   1.300   2.864   6.168 -0.3719 -2.7502 -1.3799
  166SAPE   H4S18696   1.323   3.008   6.064  1.5624 -0.5129 -2.6464
  166SAPE   C2518697   1.503   2.940   6.168  0.5652 -0.7675  0.7197
  166SAPE   H5R18698   1.568   3.022   6.134 -2.7129  2.4247  1.6401
  166SAPE   C2618699   1.546   2.897   6.282 -0.0775  0.6505 -1.3940
  166SAPE   H6R18700   1.640   2.936   6.324 -0.2700 -1.5234  1.3876
  166SAPE   C2718701   1.468   2.804   6.371 -0.0984  0.2166 -0.4628
  166SAPE   H7R18702   1.411   2.728   6.314  0.7457  0.3677 -1.5511
  166SAPE   H7S18703   1.392   2.865   6.424 -1.3429  0.9783 -2.9854
  166SAPE   C2818704   1.551   2.739   6.479 -0.2029 -0.4158  0.5085
  166SAPE   H8R18705   1.636   2.685   6.435  0.9278  0.7212  1.2526
  166SAPE   C2918706   1.542   2.749   6.611  0.3571  0.4888 -0.1595
  166SAPE   H9R18707   1.612   2.688   6.670 -0.6821 -0.1970  0.4096
  166SAPE  C21018708   1.430   2.824   6.692 -0.1294 -0.3194 -0.8038
  166SAPE  H10R18709   1.342   2.758   6.703  1.9334 -3.2296 -0.6331
  166SAPE  H10S18710   1.396   2.911   6.631 -0.6940  0.6824  0.8590
  166SAPE  C21118711   1.491   2.871   6.826 -0.4276  0.5760 -0.0286
  166SAPE  H11R18712   1.601   2.879   6.823 -0.3565 -0.1953 -2.7574
  166SAPE  C21218713   1.425   2.900   6.936 -0.6957 -0.2723 -0.5419
  166SAPE  H12R18714   1.483   2.939   7.021 -0.9605 -1.4538  0.2167
  166SAPE  C21318715   1.280   2.882   6.957  0.2295  0.8466 -0.2878
  166SAPE  H13R18716   1.223   2.884   6.862 -1.5645 -0.7328  0.6976
  166SAPE  H13S18717   1.241   2.968   7.016 -0.7597  0.9113 -1.0204
  166SAPE  C21418718   1.231   2.758   7.029  0.0414  0.0935  0.0998
  166SAPE  H14R18719   1.199   2.670   6.971 -1.2148  0.0557  0.8180
  166SAPE  C21518720   1.215   2.748   7.161 -0.0011 -0.4669  0.2025
  166SAPE  H15R18721   1.188   2.651   7.205  0.0907 -1.2675 -1.4370
  166SAPE  C21618722   1.254   2.846   7.263  0.1802 -0.4164  0.7496
  166SAPE  H16R18723   1.184   2.932   7.255  2.5180  1.4382 -1.7292
  166SAPE  H16S18724   1.346   2.894   7.224 -1.5467  0.2472 -3.0834
  166SAPE  C21718725   1.271   2.778   7.394  0.0818 -0.1370  0.5076
  166SAPE  H17R18726   1.365   2.719   7.401  0.6547  0.8336  1.4558
  166SAPE  H17S18727   1.187   2.711   7.419  0.9768 -1.5785 -0.2329
  166SAPE  C21818728   1.274   2.888   7.502 -0.0554  0.1952 -0.4053
  166SAPE  H18R18729   1.173   2.932   7.493 -0.3795 -0.2826  0.7325
  166SAPE  H18S18730   1.347   2.968   7.477  2.4867 -1.8614 -0.0110
  166SAPE  C21918731   1.302   2.841   7.646  0.2896  0.3577 -0.6123
  166SAPE  H19R18732   1.360   2.919   7.699 -0.7495  0.9016 -0.2399
  166SAPE  H19S18733   1.361   2.747   7.643  2.7710  1.8506 -0.5296
  166SAPE  C22018734   1.167   2.802   7.721 -0.5319  0.4351  0.3833
  166SAPE  H20R18735   1.129   2.700   7.699  2.3464 -0.5450 -0.5244
  166SAPE  H20S18736   1.088   2.880   7.723  0.8285  1.8788  2.3315
  166SAPE  H20T18737   1.189   2.800   7.830  0.2112 -2.9492  0.2705
  166SAPE   C3318738   1.463   1.915   6.490  0.0203  0.1231 -0.0987
  166SAPE   H3X18739   1.532   1.875   6.413  2.9753  3.5676  0.5298
  166SAPE   H3Y18740   1.389   1.834   6.511  1.6569 -0.9563  1.8703
  166SAPE   C3418741   1.548   1.941   6.616 -0.1502 -0.4497  0.0552
  166SAPE   H4X18742   1.631   2.013   6.602  0.3421 -0.0941  3.8249
  166SAPE   H4Y18743   1.609   1.850   6.638 -1.8616 -1.1969  2.0100
  166SAPE   C3518744   1.477   1.982   6.741 -0.1944  0.0279  0.2674
  166SAPE   H5X18745   1.394   1.909   6.751 -0.3597 -0.2387 -2.2869
  166SAPE   H5Y18746   1.424   2.076   6.712 -0.3413  0.8076  2.7756
  166SAPE   C3618747   1.571   2.000   6.856  0.1822  0.4974 -0.3005
  166SAPE   H6X18748   1.647   2.078   6.834  0.7973  0.4372  1.4435
  166SAPE   H6Y18749   1.627   1.904   6.858 -0.2272  0.2643  0.0821
  166SAPE   C3718750   1.491   2.028   6.988  0.1510 -0.0253 -0.3890
  166SAPE   H7X18751   1.413   1.955   7.018 -0.8969  1.5874  0.9735
  166SAPE   H7Y18752   1.433   2.122   6.988  0.8324  0.4311  1.1287
  166SAPE   C3818753   1.597   2.031   7.099  0.1935 -0.5641  0.8187
  166SAPE   H8X18754   1.678   2.101   7.070 -0.7310 -0.1224 -0.8365
  166SAPE   H8Y18755   1.640   1.929   7.094  2.0886  0.1824  1.2208
  166SAPE   C3918756   1.533   2.067   7.240  0.4598  0.5270  0.1994
  166SAPE   H9X18757   1.447   1.999   7.256  0.9490  0.0693  0.9534
  166SAPE   H9Y18758   1.501   2.172   7.254  2.3940  1.5054 -1.9755
  166SAPE  C31018759   1.643   2.044   7.340  0.5287 -0.0199  0.3824
  166SAPE  H10X18760   1.719   2.123   7.320 -1.5602  2.0512  0.0610
  166SAPE  H10Y18761   1.699   1.949   7.328  0.2000 -0.0167 -1.7415
  166SAPE  C31118762   1.593   2.047   7.484 -0.2674  0.1483 -0.0050
  166SAPE  H11X18763   1.531   1.956   7.495 -1.8660  0.8655 -2.3162
  166SAPE  H11Y18764   1.528   2.134   7.505 -1.5254 -0.4362 -1.3074
  166SAPE  C31218765   1.709   2.039   7.583  0.1729  0.1229 -0.4063
  166SAPE  H12X18766   1.767   2.132   7.562  0.4566  0.4523  1.7012
  166SAPE  H12Y18767   1.783   1.963   7.549 -0.8871 -0.6854 -0.9935
  166SAPE  C31318768   1.656   2.019   7.728  0.0374 -0.1657 -0.4751
  166SAPE  H13X18769   1.586   1.934   7.732  0.0302 -0.1301  0.2903
  166SAPE  H13Y18770   1.592   2.104   7.761  2.4167  1.0152  1.4850
  166SAPE  C31418771   1.769   2.008   7.823 -0.2423 -0.1421  0.2525
  166SAPE  H14X18772   1.824   2.104   7.815  1.5206 -1.2145 -1.6035
  166SAPE  H14Y18773   1.846   1.935   7.790 -0.0017  2.0780 -4.9686
  166SAPE  C31518774   1.720   1.971   7.960  0.0584  0.1014 -0.7567
  166SAPE  H15X18775   1.798   1.935   8.031 -1.7850  0.1475  1.4142
  166SAPE  H15Y18776   1.647   1.888   7.955 -0.6623  0.7529 -1.1960
  166SAPE  C31618777   1.668   2.085   8.039  0.0198  0.1883  0.5172
  166SAPE  H16X18778   1.575   2.120   7.988 -0.3812 -0.0894  1.0463
  166SAPE  H16Y18779   1.738   2.169   8.061  1.5092 -0.6918 -0.7138
  166SAPE  C31718780   1.625   2.052   8.186  0.5645  0.6386 -0.4089
  166SAPE  H17X18781   1.562   1.961   8.194 -1.2124  1.8448 -0.2226
  166SAPE  H17Y18782   1.558   2.123   8.239  1.5666  1.2532  0.0650
  166SAPE  C31818783   1.752   2.027   8.278 -0.0308  0.3235 -0.4725
  166SAPE  H18X18784   1.812   2.116   8.308  1.5292 -0.9837  0.5207
  166SAPE  H18Y18785   1.824   1.958   8.228  0.3133  0.9122 -0.7906
  166SAPE  H18Z18786   1.732   1.981   8.378 -2.3348  1.9367 -0.1291
  167SAPE     N18787   2.126   1.109   5.871  1.1599  0.2422  0.4182
  167SAPE   HN118788   2.129   1.180   5.947  0.4901 -0.8936  1.5586
  167SAPE   HN218789   2.063   1.143   5.795 -0.3718  0.8918  1.9000
  167SAPE   HN318790   2.099   1.027   5.930  0.7116 -0.0831 -0.2315
  167SAPE   C1218791   2.271   1.087   5.833  0.0370  0.5157  0.1271
  167SAPE  H12A18792   2.296   1.165   5.759 -0.5329  0.1150 -0.4987
  167SAPE  H12B18793   2.278   0.988   5.783 -2.4262  0.3034  0.0972
  167SAPE   C1118794   2.371   1.101   5.943 -0.1410  0.0720 -0.8368
  167SAPE  H11A18795   2.473   1.099   5.898 -0.4814  1.5126 -1.7193
  167SAPE  H11B18796   2.350   1.017   6.013 -0.6878  1.5568  0.8210
  167SAPE     P18797   2.466   1.301   6.066  0.3550 -0.2016  0.4808
  167SAPE   O1318798   2.550   1.348   5.955 -0.0043 -0.2479  0.0272
  167SAPE   O1418799   2.405   1.415   6.147  0.3755 -0.8600  0.2141
  167SAPE   O1218800   2.340   1.221   6.015 -0.2604  0.1899  0.2564
  167SAPE   O1118801   2.553   1.212   6.153  0.0526  0.6644  0.0139
  167SAPE    C118802   2.527   1.116   6.253  0.2003  0.1253 -0.6162
  167SAPE    HA18803   2.476   1.026   6.210  0.9044 -0.5133 -0.1385
  167SAPE    HB18804   2.622   1.068   6.284 -0.1474 -0.5290 -0.5447
  167SAPE    C218805   2.445   1.164   6.372 -0.0125 -1.4421  0.2090
  167SAPE    HS18806   2.349   1.200   6.330  0.1770 -2.0942 -0.8128
  167SAPE   O2118807   2.524   1.264   6.439 -0.6149  0.1027  0.0532
  167SAPE   C2118808   2.454   1.349   6.517 -0.4669  0.1061  0.1172
  167SAPE   O2218809   2.335   1.374   6.507 -0.1369 -0.2838  0.0181
  167SAPE   C2218810   2.545   1.419   6.618 -0.0022  0.8039 -0.2214
  167SAPE   H2R18811   2.619   1.471   6.554 -0.5235  1.8864  0.0197
  167SAPE   H2S18812   2.474   1.483   6.675 -0.4000 -1.0087  1.4402
  167SAPE    C318813   2.414   1.058   6.472  0.8992  0.0430 -0.3414
  167SAPE    HX18814   2.514   1.023   6.504  1.2483  1.5548  0.3429
  167SAPE    HY18815   2.360   0.983   6.410  0.6476  0.3264 -0.4679
  167SAPE   O3118816   2.345   1.088   6.590 -0.4038  0.0276 -0.2817
  167SAPE   C3118817   2.205   1.071   6.585 -0.1793 -0.6076  0.0471
  167SAPE   O3218818   2.144   1.023   6.493  0.1222 -0.6490  0.1165
  167SAPE   C3218819   2.141   1.131   6.708  0.1325  0.0330 -0.0094
  167SAPE   H2X18820   2.138   1.241   6.693  0.2419  0.0232 -0.1027
  167SAPE   H2Y18821   2.216   1.110   6.787  0.7089  0.1322 -0.5287
  167SAPE   C2318822   2.606   1.314   6.717 -0.0269 -0.1219 -0.0002
  167SAPE   H3R18823   2.688   1.372   6.766  1.0814 -2.5936  1.2623
  167SAPE   H3S18824   2.659   1.235   6.660 -0.8091 -1.5307  1.1564
  167SAPE   C2418825   2.508   1.248   6.821 -0.5040  0.3597  0.0628
  167SAPE   H4R18826   2.431   1.190   6.765 -0.6907  0.0112  0.6755
  167SAPE   H4S18827   2.455   1.336   6.864  0.4366  0.3809  1.2114
  167SAPE   C2518828   2.578   1.168   6.931  0.2948 -0.5867  0.2549
  167SAPE   H5R18829   2.625   1.229   7.010 -3.3905  0.5749  1.7378
  167SAPE   C2618830   2.598   1.035   6.926  0.0332 -0.0268 -0.3671
  167SAPE   H6R18831   2.650   0.978   7.004 -1.5476  0.0196  0.7746
  167SAPE   C2718832   2.550   0.939   6.820 -0.2512 -0.4910 -0.5310
  167SAPE   H7R18833   2.457   0.963   6.763 -1.1500 -1.7792  0.3297
  167SAPE   H7S18834   2.511   0.844   6.863 -0.4348 -1.0685 -1.9029
  167SAPE   C2818835   2.664   0.916   6.715 -0.3905  0.5754 -0.6561
  167SAPE   H8R18836   2.691   1.006   6.659  1.8796  0.0307 -0.5078
  167SAPE   C2918837   2.726   0.791   6.692  0.3571  0.1880  0.5564
  167SAPE   H9R18838   2.804   0.796   6.615 -0.0433 -0.2341  0.1127
  167SAPE  C21018839   2.702   0.666   6.771  0.2885 -0.3157 -0.0427
  167SAPE  H10R18840   2.693   0.576   6.706  0.2887  0.2041 -0.7716
  167SAPE  H10S18841   2.605   0.656   6.826 -0.6968 -1.5716 -1.9114
  167SAPE  C21118842   2.817   0.654   6.875  0.4815  0.6371  1.0227
  167SAPE  H11R18843   2.917   0.652   6.829  0.7237 -3.2120  1.3518
  167SAPE  C21218844   2.811   0.641   7.009 -0.1306  0.0845  0.1696
  167SAPE  H12R18845   2.906   0.616   7.058 -0.5403 -1.7646  0.1223
  167SAPE  C21318846   2.697   0.654   7.108 -0.4736  0.6441  0.1489
  167SAPE  H13R18847   2.621   0.720   7.062 -3.1137 -2.3374 -0.0773
  167SAPE  H13S18848   2.742   0.698   7.200  2.4649 -0.1642 -0.7993
  167SAPE  C21418849   2.619   0.526   7.135 -0.2652 -0.4774  0.6705
  167SAPE  H14R18850   2.545   0.502   7.057 -0.0922  1.3174 -0.0923
  167SAPE  C21518851   2.663   0.436   7.225 -0.1757 -0.6308  0.8528
  167SAPE  H15R18852   2.621   0.335   7.216 -0.0064 -0.5208 -3.8373
  167SAPE  C21618853   2.779   0.440   7.317  0.2434  0.1199 -0.6348
  167SAPE  H16R18854   2.853   0.514   7.279  2.3049 -0.8035  1.4007
  167SAPE  H16S18855   2.822   0.339   7.327 -0.2242  0.1322  2.3174
  167SAPE  C21718856   2.737   0.485   7.458 -0.1929  0.0788  0.4028
  167SAPE  H17R18857   2.702   0.590   7.448 -0.0530  0.4889  3.2953
  167SAPE  H17S18858   2.830   0.493   7.519  0.0341  0.1585  0.0534
  167SAPE  C21818859   2.623   0.403   7.531  0.5740 -0.6578  0.0322
  167SAPE  H18R18860   2.667   0.302   7.536  1.5935 -0.1362  2.7950
  167SAPE  H18S18861   2.533   0.404   7.465  0.2064 -1.7661  0.4929
  167SAPE  C21918862   2.592   0.452   7.670  0.5444  0.3948 -0.2116
  167SAPE  H19R18863   2.536   0.547   7.656  0.2132 -0.0694 -2.2897
  167SAPE  H19S18864   2.686   0.472   7.725  0.7731  1.9431 -1.1016
  167SAPE  C22018865   2.511   0.357   7.763  0.3509 -0.5286  0.0430
  167SAPE  H20R18866   2.569   0.263   7.766  1.4899  0.1746  0.9087
  167SAPE  H20S18867   2.403   0.343   7.739  0.3450 -1.4267  0.5839
  167SAPE  H20T18868   2.515   0.399   7.866  0.1241  1.4435 -0.6989
  167SAPE   C3318869   2.003   1.069   6.722  0.6191  0.3524  0.1001
  167SAPE   H3X18870   2.012   0.959   6.732  0.3525  0.1523 -1.6957
  167SAPE   H3Y18871   1.945   1.088   6.629  0.2129 -1.5388 -0.0679
  167SAPE   C3418872   1.927   1.120   6.852 -0.7318  0.8392  0.0443
  167SAPE   H4X18873   1.825   1.076   6.852  0.1822 -1.4378  0.7071
  167SAPE   H4Y18874   1.927   1.231   6.861  1.3586  0.7360  2.5265
  167SAPE   C3518875   2.001   1.069   6.982 -0.2169 -0.5516  0.0931
  167SAPE   H5X18876   2.097   1.125   6.981 -1.1238  1.0580 -0.4027
  167SAPE   H5Y18877   2.013   0.960   6.959 -0.6109  0.1191 -4.0812
  167SAPE   C3618878   1.943   1.121   7.119 -0.0789 -0.1715 -0.1508
  167SAPE   H6X18879   1.832   1.115   7.115 -0.1111 -1.2251  1.3626
  167SAPE   H6Y18880   1.981   1.225   7.128 -0.9613  0.0921  0.5546
  167SAPE   C3718881   1.985   1.028   7.234  0.0362 -0.6613 -0.5840
  167SAPE   H7X18882   2.096   1.014   7.235  0.4668  2.2252  0.1853
  167SAPE   H7Y18883   1.942   0.927   7.215  0.9159 -1.5429  1.7086
  167SAPE   C3818884   1.936   1.069   7.379  0.3824  0.6196 -0.0384
  167SAPE   H8X18885   1.971   0.991   7.450 -0.4192 -1.8569 -2.2047
  167SAPE   H8Y18886   1.825   1.064   7.383  0.3775  1.1984  0.6489
  167SAPE   C3918887   1.981   1.209   7.434 -0.0648 -0.1004 -0.3152
  167SAPE   H9X18888   1.952   1.295   7.370  4.7979  1.6461 -0.5838
  167SAPE   H9Y18889   2.092   1.210   7.435 -0.0589 -0.5271  0.3282
  167SAPE  C31018890   1.914   1.217   7.569  0.0602 -0.5163  0.1700
  167SAPE  H10X18891   1.805   1.198   7.566 -0.1365  0.6499 -0.3357
  167SAPE  H10Y18892   1.933   1.324   7.593  1.5489 -0.3261 -1.5831
  167SAPE  C31118893   1.989   1.127   7.679 -0.6042  0.6686 -0.1349
  167SAPE  H11X18894   2.098   1.142   7.666 -0.2610 -0.9394  0.7192
  167SAPE  H11Y18895   1.964   1.019   7.671  1.1760  0.2850 -1.0468
  167SAPE  C31218896   1.965   1.175   7.823 -0.3868  0.2120  0.5829
  167SAPE  H12X18897   1.867   1.138   7.862 -0.2576 -1.7380 -0.7857
  167SAPE  H12Y18898   1.971   1.286   7.825  0.6373  0.1645  0.5082
  167SAPE  C31318899   2.080   1.133   7.914  0.1883  0.2225 -0.5314
  167SAPE  H13X18900   2.172   1.166   7.862 -0.2809  1.5559 -0.5391
  167SAPE  H13Y18901   2.078   1.023   7.932 -0.6375  0.0099 -1.7923
  167SAPE  C31418902   2.074   1.207   8.052 -0.3339 -0.4108  0.1336
  167SAPE  H14X18903   1.969   1.233   8.075 -0.5704 -0.6370 -0.6592
  167SAPE  H14Y18904   2.134   1.300   8.055  0.5387 -0.9854  1.9310
  167SAPE  C31518905   2.132   1.119   8.165  0.0769 -0.2099 -0.4535
  167SAPE  H15X18906   2.243   1.124   8.154 -0.0877  2.5437 -1.6852
  167SAPE  H15Y18907   2.101   1.013   8.153  0.2510 -0.7744  3.0010
  167SAPE  C31618908   2.095   1.170   8.307  0.3376 -0.2996  0.4549
  167SAPE  H16X18909   1.984   1.163   8.318  0.0906  1.8206 -0.1485
  167SAPE  H16Y18910   2.131   1.274   8.319  0.2240  0.1654 -2.4859
  167SAPE  C31718911   2.168   1.094   8.418 -0.1696  0.3237  0.9752
  167SAPE  H17X18912   2.173   0.988   8.386  1.6755  0.8362 -0.6196
  167SAPE  H17Y18913   2.106   1.092   8.511  0.6875 -1.5344  1.5623
  167SAPE  C31818914   2.308   1.142   8.445 -0.3388  0.1626 -0.2350
  167SAPE  H18X18915   2.310   1.251   8.466 -0.8345  0.0899  0.1847
  167SAPE  H18Y18916   2.369   1.118   8.355  1.5042  0.3097  0.9152
  167SAPE  H18Z18917   2.357   1.094   8.532 -2.0901 -2.8215 -0.7636
  168SAPE     N18918   4.812   3.790   6.195  0.2503  0.2221 -0.5359
  168SAPE   HN118919   4.818   3.888   6.163 -2.1465  0.8743  0.7209
  168SAPE   HN218920   4.742   3.788   6.272  0.3278 -2.4880 -0.4337
  168SAPE   HN318921   4.902   3.759   6.236  0.3564  0.0295 -0.9087
  168SAPE   C1218922   4.757   3.693   6.095  0.4302 -0.1821 -0.2828
  168SAPE  H12A18923   4.836   3.686   6.017  1.0616  2.1161  0.0784
  168SAPE  H12B18924   4.668   3.744   6.052  1.1422  2.1393  0.8193
  168SAPE   C1118925   4.728   3.566   6.164 -0.1197 -0.2438  1.2379
  168SAPE  H11A18926   4.640   3.578   6.230 -1.1102 -0.5406  0.0026
  168SAPE  H11B18927   4.810   3.543   6.235 -0.2746 -0.1798  1.4384
  168SAPE     P18928   4.574   3.392   6.049  0.0095 -0.0758  0.0876
  168SAPE   O1318929   4.480   3.493   5.989  0.3699  0.7001 -0.1585
  168SAPE   O1418930   4.592   3.270   5.974 -0.0490 -0.2927 -0.3037
  168SAPE   O1218931   4.711   3.454   6.075  0.1690  0.2915  0.2240
  168SAPE   O1118932   4.511   3.358   6.194  0.0307  0.7190 -0.4577
  168SAPE    C118933   4.592   3.265   6.272 -0.2415  0.7287  0.4280
  168SAPE    HA18934   4.586   3.164   6.228  0.7814  0.6686  0.3918
  168SAPE    HB18935   4.702   3.281   6.272 -0.3174  1.3158  1.1884
  168SAPE    C218936   4.534   3.255   6.420 -0.6333  0.3442 -0.2880
  168SAPE    HS18937   4.424   3.247   6.404 -0.8508  3.5778 -1.2337
  168SAPE   O2118938   4.568   3.376   6.484  0.0140  0.1247  0.1851
  168SAPE   C2118939   4.486   3.445   6.556  1.0356 -0.5354  0.4468
  168SAPE   O2218940   4.367   3.420   6.573 -0.5341 -0.0218 -0.7491
  168SAPE   C2218941   4.559   3.576   6.599 -0.3275 -0.2952  0.0738
  168SAPE   H2R18942   4.621   3.607   6.511 -0.9612 -1.8904 -0.9909
  168SAPE   H2S18943   4.488   3.661   6.609 -0.6139 -0.5582  0.2971
  168SAPE    C318944   4.584   3.128   6.496  0.4209 -0.5942 -0.4716
  168SAPE    HX18945   4.692   3.125   6.468  0.4743 -0.2636 -0.3156
  168SAPE    HY18946   4.529   3.047   6.444 -2.6239 -0.6113  2.4569
  168SAPE   O3118947   4.540   3.121   6.633  0.0662  0.2036 -0.1970
  168SAPE   C3118948   4.629   3.086   6.724 -0.4304 -0.9499 -0.1715
  168SAPE   O3218949   4.745   3.056   6.700 -0.3327  0.9659 -0.3014
  168SAPE   C3218950   4.565   3.118   6.861 -0.2751 -0.2685  0.4903
  168SAPE   H2X18951   4.463   3.078   6.844  0.3826 -2.8619  2.0413
  168SAPE   H2Y18952   4.560   3.229   6.867  1.3132  0.0040 -1.7941
  168SAPE   C2318953   4.652   3.543   6.719 -0.2387 -1.0722  0.3443
  168SAPE   H3R18954   4.685   3.437   6.726  1.7291 -0.3855  2.5046
  168SAPE   H3S18955   4.581   3.554   6.804 -1.4940  1.2892 -0.8981
  168SAPE   C2418956   4.767   3.641   6.743  0.3032  0.1342 -0.1347
  168SAPE   H4R18957   4.822   3.650   6.647  1.9975  0.3791  0.8230
  168SAPE   H4S18958   4.836   3.595   6.817  0.8952  0.4997 -0.4518
  168SAPE   C2518959   4.712   3.778   6.785  0.1238  0.2736 -0.9577
  168SAPE   H5R18960   4.635   3.819   6.718 -2.1386 -2.9333 -0.5273
  168SAPE   C2618961   4.722   3.835   6.907 -1.0929 -0.7648 -0.3268
  168SAPE   H6R18962   4.691   3.940   6.914 -2.2264 -1.1917  1.9128
  168SAPE   C2718963   4.787   3.806   7.040 -0.3239 -0.2866  0.6166
  168SAPE   H7R18964   4.881   3.862   7.061 -0.9974  1.3681 -0.5669
  168SAPE   H7S18965   4.841   3.710   7.050 -0.2979 -0.4333 -0.8176
  168SAPE   C2818966   4.696   3.837   7.153 -0.3536 -0.1910 -0.6114
  168SAPE   H8R18967   4.661   3.941   7.156  1.2112  0.3396  0.5017
  168SAPE   C2918968   4.647   3.761   7.253  0.4289 -0.1002  0.8559
  168SAPE   H9R18969   4.567   3.797   7.320 -0.6234  0.0842 -0.4568
  168SAPE  C21018970   4.678   3.617   7.265  0.3107 -0.2276  0.7909
  168SAPE  H10R18971   4.688   3.575   7.163 -1.1092 -1.4257  1.0899
  168SAPE  H10S18972   4.596   3.551   7.302 -0.8506  0.6272 -0.1858
  168SAPE  C21118973   4.803   3.581   7.347  0.1452 -0.0183  0.3061
  168SAPE  H11R18974   4.903   3.579   7.301 -0.0839 -0.6450 -0.1720
  168SAPE  C21218975   4.800   3.559   7.481 -0.5550  0.7720  0.7222
  168SAPE  H12R18976   4.901   3.545   7.521  0.2959  3.4007 -0.2841
  168SAPE  C21318977   4.677   3.559   7.577 -0.0481  0.4959 -0.1892
  168SAPE  H13R18978   4.584   3.555   7.517 -0.5985 -0.1422  0.6839
  168SAPE  H13S18979   4.677   3.653   7.636  0.6899 -1.0353  2.4213
  168SAPE  C21418980   4.696   3.434   7.663  0.1900 -0.4677  0.2007
  168SAPE  H14R18981   4.716   3.339   7.612  1.1045 -0.0022 -0.3422
  168SAPE  C21518982   4.698   3.427   7.799 -0.2201 -1.0755 -0.0425
  168SAPE  H15R18983   4.694   3.324   7.838  1.2462 -0.3990  2.1508
  168SAPE  C21618984   4.686   3.545   7.898 -0.2554  0.4796  0.4564
  168SAPE  H16R18985   4.616   3.621   7.857  0.8400  1.0841 -0.3649
  168SAPE  H16S18986   4.789   3.586   7.907  0.1819 -0.8907  2.3786
  168SAPE  C21718987   4.619   3.496   8.023 -0.4054  0.4375 -0.1296
  168SAPE  H17R18988   4.682   3.422   8.078  0.5576  2.0329  1.0020
  168SAPE  H17S18989   4.520   3.447   8.011  0.4249 -1.5762  0.7598
  168SAPE  C21818990   4.601   3.611   8.125  0.4032  0.3001 -0.3948
  168SAPE  H18R18991   4.546   3.699   8.086  1.6279  1.4194  0.3321
  168SAPE  H18S18992   4.708   3.634   8.143  0.8446 -1.6512 -0.1944
  168SAPE  C21918993   4.545   3.575   8.265 -0.2223  0.2655 -0.2704
  168SAPE  H19R18994   4.593   3.477   8.287  2.9426  1.8861  0.6856
  168SAPE  H19S18995   4.436   3.557   8.278  0.0521 -1.0381  0.5422
  168SAPE  C22018996   4.601   3.666   8.375 -0.8980  0.4957  0.6152
  168SAPE  H20R18997   4.543   3.761   8.384 -0.6131  1.0075 -2.1050
  168SAPE  H20S18998   4.707   3.693   8.359 -0.9729  1.0733  1.0741
  168SAPE  H20T18999   4.605   3.611   8.471 -2.4742  0.4480  0.6866
  168SAPE   C3319000   4.635   3.070   6.984 -0.0956  0.1730 -0.3011
  168SAPE   H3X19001   4.741   3.096   7.004  0.3007 -2.2905  1.2062
  168SAPE   H3Y19002   4.641   2.959   6.983  1.4833  0.2254 -2.0971
  168SAPE   C3419003   4.543   3.122   7.089  0.6759  0.2117 -0.2355
  168SAPE   H4X19004   4.538   3.057   7.179 -1.4761 -0.1087 -0.5415
  168SAPE   H4Y19005   4.441   3.132   7.046  0.9894  0.5943 -0.9065
  168SAPE   C3519006   4.560   3.267   7.146 -0.2117 -0.4859  0.1865
  168SAPE   H5X19007   4.604   3.338   7.073  0.3501  0.2833  1.2492
  168SAPE   H5Y19008   4.634   3.266   7.228  0.1021 -0.6219 -0.0949
  168SAPE   C3619009   4.428   3.320   7.210  0.1567 -0.3381 -0.3425
  168SAPE   H6X19010   4.356   3.341   7.129  0.0743 -0.1069 -0.2086
  168SAPE   H6Y19011   4.441   3.421   7.254 -0.8710 -0.9866  1.5821
  168SAPE   C3719012   4.362   3.236   7.317 -0.0060 -0.0905 -0.3562
  168SAPE   H7X19013   4.355   3.129   7.289 -0.8709 -0.1528  0.0794
  168SAPE   H7Y19014   4.265   3.284   7.341  1.7110  2.4246  2.1626
  168SAPE   C3819015   4.437   3.232   7.456  0.0342  0.1024 -0.0521
  168SAPE   H8X19016   4.439   3.338   7.489 -0.0698  0.3140 -0.7159
  168SAPE   H8Y19017   4.544   3.202   7.448 -0.1194 -0.2446 -0.8751
  168SAPE   C3919018   4.374   3.151   7.561 -0.3160 -0.0218  0.0425
  168SAPE   H9X19019   4.399   3.042   7.563 -0.3829 -0.0552 -0.8868
  168SAPE   H9Y19020   4.264   3.163   7.550 -0.3010 -1.2974 -1.9464
  168SAPE  C31019021   4.407   3.201   7.704 -0.4334  0.4046  0.1544
  168SAPE  H10X19022   4.384   3.309   7.713  1.6111  0.9345 -0.3412
  168SAPE  H10Y19023   4.513   3.176   7.725 -0.6510 -1.3296 -0.6438
  168SAPE  C31119024   4.316   3.128   7.805 -0.3320 -0.4618  0.2079
  168SAPE  H11X19025   4.325   3.017   7.804  0.1984 -0.4216 -1.4628
  168SAPE  H11Y19026   4.211   3.141   7.773  0.0104 -0.8127 -1.1154
  168SAPE  C31219027   4.341   3.173   7.949 -0.3969  0.3252 -0.4609
  168SAPE  H12X19028   4.256   3.123   8.000 -0.3128 -0.1568 -0.7887
  168SAPE  H12Y19029   4.342   3.284   7.954 -0.1127  0.2780  1.0724
  168SAPE  C31319030   4.470   3.141   8.023  0.0384  0.2033  0.4867
  168SAPE  H13X19031   4.557   3.192   7.977 -1.1395  0.3062 -1.7993
  168SAPE  H13Y19032   4.488   3.033   8.003  0.9744  0.8850 -3.2592
  168SAPE  C31419033   4.451   3.174   8.166  0.5141 -0.9615  0.0586
  168SAPE  H14X19034   4.352   3.138   8.200  1.0306 -2.0184  0.4935
  168SAPE  H14Y19035   4.450   3.285   8.171  0.1190 -0.8219 -2.0826
  168SAPE  C31519036   4.559   3.106   8.248 -0.1187 -0.3540 -0.7118
  168SAPE  H15X19037   4.652   3.154   8.212  1.1255 -0.5810  1.9701
  168SAPE  H15Y19038   4.559   2.995   8.249 -1.0048 -0.3798 -1.7436
  168SAPE  C31619039   4.547   3.154   8.391  0.2175 -0.7963  0.2855
  168SAPE  H16X19040   4.526   3.263   8.383  0.4155 -0.8813 -1.7770
  168SAPE  H16Y19041   4.641   3.156   8.451  0.2555  0.3751  0.2024
  168SAPE  C31719042   4.438   3.073   8.462 -0.3602  0.1258  0.1024
  168SAPE  H17X19043   4.497   2.981   8.483  0.7317  1.2875  2.5309
  168SAPE  H17Y19044   4.353   3.046   8.396  0.1298 -1.5049  0.0883
  168SAPE  C31819045   4.414   3.135   8.597 -0.2993  0.4531  0.2336
  168SAPE  H18X19046   4.349   3.077   8.665 -2.0228  0.4370 -1.3374
  168SAPE  H18Y19047   4.357   3.228   8.578 -0.4760  0.6081  1.4794
  168SAPE  H18Z19048   4.510   3.168   8.642 -0.5027 -0.0762  1.0832
  169SAPE     N19049   4.051   4.297   5.973 -0.1480 -0.1911  0.3273
  169SAPE   HN119050   4.139   4.282   5.920 -1.5038 -1.8109 -1.6594
  169SAPE   HN219051   4.053   4.392   6.014 -0.2982 -0.2295  0.4243
  169SAPE   HN319052   4.049   4.222   6.045  2.4391 -0.8590 -0.2030
  169SAPE   C1219053   3.927   4.284   5.886  0.2414 -0.9596  0.3715
  169SAPE  H12A19054   3.921   4.177   5.859  1.8035 -0.6417 -1.4146
  169SAPE  H12B19055   3.946   4.350   5.799  0.7923 -1.8265 -0.1832
  169SAPE   C1119056   3.801   4.321   5.971  0.0164 -0.3743 -0.1458
  169SAPE  H11A19057   3.715   4.307   5.903  0.5405 -2.4090 -0.4377
  169SAPE  H11B19058   3.812   4.427   6.003  2.1258  0.0348 -1.9918
  169SAPE     P19059   3.625   4.170   6.112 -0.2875 -0.1168 -0.2051
  169SAPE   O1319060   3.563   4.118   5.986  0.3408 -0.3346  0.3045
  169SAPE   O1419061   3.634   4.075   6.225  0.5354  0.6184  0.0629
  169SAPE   O1219062   3.777   4.232   6.079 -0.2138  0.7403  0.3292
  169SAPE   O1119063   3.538   4.288   6.170  0.5065  0.1562  0.0291
  169SAPE    C119064   3.598   4.393   6.251  0.2866  0.3395  0.3158
  169SAPE    HA19065   3.708   4.386   6.260  0.6152  0.7320 -2.4876
  169SAPE    HB19066   3.569   4.490   6.206 -0.0212  0.1753  0.1557
  169SAPE    C219067   3.537   4.389   6.391  0.4310 -0.7438  0.2661
  169SAPE    HS19068   3.561   4.476   6.457 -1.3659  0.6621 -0.8325
  169SAPE   O2119069   3.576   4.272   6.461  0.8086  0.4669  0.6402
  169SAPE   C2119070   3.699   4.280   6.513 -0.1075  0.5586  0.8150
  169SAPE   O2219071   3.766   4.383   6.512  0.2240  0.1390  0.5851
  169SAPE   C2219072   3.741   4.154   6.584 -0.4634 -0.2357  0.1435
  169SAPE   H2R19073   3.651   4.111   6.633 -1.0398  1.5509  0.7317
  169SAPE   H2S19074   3.796   4.092   6.511  0.4160  1.3418 -0.5990
  169SAPE    C319075   3.381   4.392   6.395 -0.1136  0.4278  0.3730
  169SAPE    HX19076   3.363   4.294   6.346  2.6965 -0.0959  0.2086
  169SAPE    HY19077   3.337   4.475   6.335  1.0508 -0.3049 -1.5995
  169SAPE   O3119078   3.333   4.381   6.525 -0.5950  0.1337  0.2335
  169SAPE   C3119079   3.339   4.492   6.602  0.0734  0.7523  0.3372
  169SAPE   O3219080   3.354   4.603   6.564 -0.2910  0.4867 -0.1815
  169SAPE   C3219081   3.328   4.455   6.751 -0.3757  0.2770  0.0120
  169SAPE   H2X19082   3.421   4.407   6.786  0.6281  0.9985 -1.5695
  169SAPE   H2Y19083   3.239   4.390   6.765  0.3957 -0.7262  0.3784
  169SAPE   C2319084   3.850   4.174   6.697 -0.8335 -0.6200  0.2469
  169SAPE   H3R19085   3.795   4.237   6.771  0.7192  2.0915 -0.8127
  169SAPE   H3S19086   3.937   4.235   6.668  0.8061 -2.7152  0.4848
  169SAPE   C2419087   3.896   4.054   6.761  0.3410  0.6447 -0.0040
  169SAPE   H4R19088   3.815   4.015   6.826 -0.8666  1.2608 -1.1004
  169SAPE   H4S19089   3.986   4.079   6.821  2.0468  0.6901 -2.4558
  169SAPE   C2519090   3.930   3.944   6.664 -0.1205 -0.5325 -0.1205
  169SAPE   H5R19091   3.953   3.968   6.559  0.2961 -0.7299 -0.0790
  169SAPE   C2619092   3.928   3.815   6.697 -0.3188 -0.1242  0.3180
  169SAPE   H6R19093   3.929   3.743   6.614 -1.9854 -0.2792  0.3825
  169SAPE   C2719094   3.906   3.756   6.832  0.1844  0.7917 -0.7243
  169SAPE   H7R19095   3.925   3.811   6.927  1.4601 -0.4147 -0.2446
  169SAPE   H7S19096   3.970   3.666   6.842 -1.0557 -0.1435 -0.9892
  169SAPE   C2819097   3.761   3.711   6.845 -0.3411 -0.8522 -0.3457
  169SAPE   H8R19098   3.729   3.647   6.761 -0.3929  0.7340 -1.5726
  169SAPE   C2919099   3.675   3.733   6.945 -0.3395  0.8386  0.0264
  169SAPE   H9R19100   3.575   3.688   6.934  0.8291 -1.6790 -1.0558
  169SAPE  C21019101   3.701   3.792   7.079  0.0724  0.1440 -0.1119
  169SAPE  H10R19102   3.621   3.863   7.108 -0.7841 -0.6694 -0.4052
  169SAPE  H10S19103   3.787   3.861   7.073 -0.0087  0.2009 -0.7307
  169SAPE  C21119104   3.731   3.679   7.183 -0.3534 -0.1503  0.9275
  169SAPE  H11R19105   3.806   3.604   7.154 -1.3079 -0.7158 -0.1770
  169SAPE  C21219106   3.677   3.667   7.300  0.0428  0.0507  0.9490
  169SAPE  H12R19107   3.728   3.594   7.365  0.5875 -1.5528 -1.1577
  169SAPE  C21319108   3.574   3.750   7.371 -0.4757 -0.2022  0.8688
  169SAPE  H13R19109   3.512   3.684   7.435  0.9755 -0.6850  1.8215
  169SAPE  H13S19110   3.507   3.801   7.298  0.9320  2.7438  1.4693
  169SAPE  C21419111   3.640   3.850   7.461 -0.2076 -0.0101 -0.3873
  169SAPE  H14R19112   3.640   3.956   7.432  0.9042  0.3786  0.9173
  169SAPE  C21519113   3.708   3.829   7.576 -0.1218  0.4830 -1.6513
  169SAPE  H15R19114   3.768   3.915   7.612  0.9090 -0.7104 -0.4166
  169SAPE  C21619115   3.741   3.696   7.641  0.5338 -0.1936  0.3475
  169SAPE  H16R19116   3.846   3.662   7.629 -0.0398 -1.6315 -0.8827
  169SAPE  H16S19117   3.676   3.623   7.590 -0.2672  1.3982 -1.0062
  169SAPE  C21719118   3.688   3.693   7.784 -0.0615  0.0016 -0.7581
  169SAPE  H17R19119   3.674   3.587   7.816  1.6326 -0.4270 -1.3309
  169SAPE  H17S19120   3.590   3.743   7.793  1.0468  2.3941 -1.1019
  169SAPE  C21819121   3.778   3.760   7.888 -0.4217  0.3673  0.6226
  169SAPE  H18R19122   3.790   3.866   7.856 -0.0396  0.5640  1.3672
  169SAPE  H18S19123   3.879   3.715   7.892 -0.9688 -1.1540 -1.4643
  169SAPE  C21919124   3.719   3.750   8.033 -0.1755 -0.0315  0.1293
  169SAPE  H19R19125   3.749   3.645   8.058  0.9747 -0.1258 -1.4953
  169SAPE  H19S19126   3.608   3.759   8.042 -0.1946 -0.5436  0.4808
  169SAPE  C22019127   3.783   3.847   8.131 -0.0999 -0.7500 -0.5993
  169SAPE  H20R19128   3.766   3.953   8.101 -1.6075 -1.1954 -1.4649
  169SAPE  H20S19129   3.888   3.815   8.149 -0.5979 -2.0807  0.0743
  169SAPE  H20T19130   3.738   3.823   8.229  3.7539 -2.1716  1.0273
  169SAPE   C3319131   3.320   4.587   6.839  0.1568 -0.2297  0.5327
  169SAPE   H3X19132   3.250   4.650   6.780  1.4738 -0.5271 -1.4426
  169SAPE   H3Y19133   3.416   4.642   6.827  1.2315 -1.9751  0.6743
  169SAPE   C3419134   3.279   4.564   6.982 -0.0371 -0.5319  0.2792
  169SAPE   H4X19135   3.362   4.522   7.043  2.4814  2.9230 -0.4373
  169SAPE   H4Y19136   3.186   4.503   6.983 -0.2661 -0.2046  1.9765
  169SAPE   C3519137   3.247   4.695   7.044 -0.0708 -0.1651 -1.3393
  169SAPE   H5X19138   3.181   4.758   6.981  0.4119  1.0912 -0.6339
  169SAPE   H5Y19139   3.335   4.755   7.078 -0.2252 -0.1756 -0.9042
  169SAPE   C3619140   3.164   4.677   7.179  0.2058  0.7994  0.4022
  169SAPE   H6X19141   3.081   4.610   7.149  0.9526  1.2885 -3.2768
  169SAPE   H6Y19142   3.121   4.775   7.208  0.1465  0.5911  1.0283
  169SAPE   C3719143   3.250   4.630   7.297  0.0208  0.2000 -0.4412
  169SAPE   H7X19144   3.348   4.681   7.311  0.3319 -0.6305  0.6056
  169SAPE   H7Y19145   3.272   4.521   7.291  2.2343  0.2002  3.8403
  169SAPE   C3819146   3.181   4.654   7.423  0.8078  0.4596 -0.0010
  169SAPE   H8X19147   3.092   4.588   7.429  0.8653  0.3771 -0.0569
  169SAPE   H8Y19148   3.139   4.756   7.435  0.4230  0.1168  1.9038
  169SAPE   C3919149   3.282   4.629   7.544  0.8694 -0.2916  0.8815
  169SAPE   H9X19150   3.369   4.697   7.534 -0.9289  1.9036 -0.8210
  169SAPE   H9Y19151   3.313   4.522   7.544  0.0355 -0.5388  0.9561
  169SAPE  C31019152   3.203   4.664   7.675  0.0261  0.1920  0.6355
  169SAPE  H10X19153   3.161   4.766   7.664  0.2035  0.2119  0.0973
  169SAPE  H10Y19154   3.279   4.658   7.756  0.0174  0.0411  0.6345
  169SAPE  C31119155   3.092   4.571   7.717 -0.6800  0.2654  0.0430
  169SAPE  H11X19156   3.133   4.468   7.727 -1.4729  0.0096  0.7517
  169SAPE  H11Y19157   3.019   4.585   7.635  1.6877  2.9813 -1.7638
  169SAPE  C31219158   3.026   4.604   7.856  0.3504  0.1749 -0.5730
  169SAPE  H12X19159   2.920   4.570   7.856 -0.1819  1.7393  0.7683
  169SAPE  H12Y19160   3.028   4.714   7.870  0.4131 -0.0264  1.1628
  169SAPE  C31319161   3.106   4.539   7.972  0.0368 -0.1853  0.7215
  169SAPE  H13X19162   3.173   4.610   8.025  1.8578  2.0653 -4.0729
  169SAPE  H13Y19163   3.177   4.469   7.924  0.0758 -0.0977  0.6499
  169SAPE  C31419164   3.009   4.472   8.068  0.5009  0.5284 -0.2651
  169SAPE  H14X19165   2.942   4.394   8.025  0.2097  0.4121  0.3791
  169SAPE  H14Y19166   2.933   4.547   8.098  0.8218  0.3283  1.1623
  169SAPE  C31519167   3.081   4.425   8.198  0.7313 -0.3160  0.0493
  169SAPE  H15X19168   3.105   4.516   8.258  0.5121 -0.5470  0.4945
  169SAPE  H15Y19169   3.180   4.376   8.183  0.6579 -1.7868  3.3986
  169SAPE  C31619170   3.004   4.335   8.296  0.5074 -0.1586 -0.2081
  169SAPE  H16X19171   2.986   4.236   8.250  1.7327 -0.6061  0.2305
  169SAPE  H16Y19172   2.905   4.380   8.319  0.4749  0.2216 -1.0872
  169SAPE  C31719173   3.076   4.325   8.437  0.3841 -0.3169 -0.0314
  169SAPE  H17X19174   3.185   4.307   8.436  0.5073  0.3829  0.2335
  169SAPE  H17Y19175   3.033   4.231   8.479  1.2560 -0.7800 -0.1559
  169SAPE  C31819176   3.040   4.444   8.537 -0.5476 -0.3726  0.8752
  169SAPE  H18X19177   3.094   4.538   8.513 -0.4240  0.5067  4.1276
  169SAPE  H18Y19178   3.074   4.419   8.639  1.4152  0.3288  0.4396
  169SAPE  H18Z19179   2.930   4.461   8.530 -0.6753 -1.2410  0.6512
  170SAPE     N19180   2.695   1.592   5.943  0.4089 -0.6021 -0.2517
  170SAPE   HN119181   2.760   1.581   6.024 -0.3715  0.1499  0.4939
  170SAPE   HN219182   2.658   1.498   5.916 -0.9560  0.5393 -2.6023
  170SAPE   HN319183   2.752   1.624   5.862  1.1160 -0.0086  0.4672
  170SAPE   C1219184   2.587   1.685   5.991  0.8282 -0.5792  0.3544
  170SAPE  H12A19185   2.515   1.626   6.052  0.4420  0.0209  0.4913
  170SAPE  H12B19186   2.535   1.737   5.908  1.3073  0.4340  0.6718
  170SAPE   C1119187   2.653   1.799   6.074 -0.4357 -0.0490 -0.1332
  170SAPE  H11A19188   2.687   1.751   6.168  1.4583 -1.4217 -1.4728
  170SAPE  H11B19189   2.575   1.873   6.105  0.8865  0.7739  1.4142
  170SAPE     P19190   2.900   1.880   6.063 -0.1523  0.0243  0.2143
  170SAPE   O1319191   2.972   1.752   6.027  0.9030  0.8878 -0.2539
  170SAPE   O1419192   2.954   2.004   6.012 -0.5244 -0.5608 -0.4535
  170SAPE   O1219193   2.756   1.869   6.008 -0.1787 -0.7790 -0.3097
  170SAPE   O1119194   2.872   1.894   6.216 -0.1471  0.0563  0.0576
  170SAPE    C119195   2.814   2.020   6.257 -0.1754 -0.5205 -0.2490
  170SAPE    HA19196   2.897   2.093   6.267  0.7609 -1.5356 -0.4122
  170SAPE    HB19197   2.727   2.047   6.194 -0.9583 -3.4982 -0.5923
  170SAPE    C219198   2.748   2.010   6.409 -0.3519  0.1834  1.0037
  170SAPE    HS19199   2.722   2.115   6.435 -0.8172  0.5916 -0.9378
  170SAPE   O2119200   2.838   1.955   6.505 -0.2102  0.1107  0.5966
  170SAPE   C2119201   2.932   2.035   6.545  0.4560  0.1697 -0.4219
  170SAPE   O2219202   2.947   2.146   6.498 -0.5087  0.0680 -0.0961
  170SAPE   C2219203   3.010   1.962   6.655  0.5116  0.1300 -0.7139
  170SAPE   H2R19204   2.944   1.903   6.721 -1.4207  3.2809  0.3514
  170SAPE   H2S19205   3.078   1.884   6.612  2.5487  1.4902 -0.1196
  170SAPE    C319206   2.620   1.925   6.401  0.1388  0.0837  0.5129
  170SAPE    HX19207   2.656   1.820   6.394  2.0237  0.5341  2.3688
  170SAPE    HY19208   2.566   1.946   6.306 -0.8690 -0.7148  0.8974
  170SAPE   O3119209   2.529   1.942   6.504  0.6168 -0.5096 -0.0817
  170SAPE   C3119210   2.541   1.862   6.608  0.1326 -0.2555  0.3332
  170SAPE   O3219211   2.610   1.761   6.609 -0.8997 -0.2047  0.2073
  170SAPE   C3219212   2.445   1.909   6.718 -0.1760 -0.2073 -0.1430
  170SAPE   H2X19213   2.339   1.886   6.695  0.1183 -1.3783 -0.3960
  170SAPE   H2Y19214   2.457   2.019   6.731 -2.2276 -0.1424  2.1304
  170SAPE   C2319215   3.106   2.040   6.743 -0.2529  0.1640 -0.0797
  170SAPE   H3R19216   3.164   2.118   6.688  0.2874  0.2353  0.5751
  170SAPE   H3S19217   3.181   1.961   6.764  0.7599  0.8159 -1.0570
  170SAPE   C2419218   3.053   2.103   6.874 -0.5910  0.1559 -0.4479
  170SAPE   H4R19219   2.975   2.174   6.840  0.8586  0.5040 -3.2882
  170SAPE   H4S19220   3.133   2.169   6.913 -1.5203  0.6592  0.6686
  170SAPE   C2519221   3.007   2.010   6.987 -0.4330 -0.3035  0.0404
  170SAPE   H5R19222   2.999   1.903   6.965 -1.6516 -0.0382 -0.8847
  170SAPE   C2619223   2.990   2.048   7.114 -0.2976 -0.3763 -0.6203
  170SAPE   H6R19224   2.954   1.977   7.190  0.6187 -0.3185 -0.1141
  170SAPE   C2719225   2.995   2.189   7.159 -0.5029  0.5414  0.2428
  170SAPE   H7R19226   2.892   2.223   7.184 -0.5448 -0.6202  1.7976
  170SAPE   H7S19227   3.030   2.262   7.083 -1.7728  1.0884  0.1531
  170SAPE   C2819228   3.090   2.201   7.279  0.0519  0.3996  0.4644
  170SAPE   H8R19229   3.195   2.212   7.249 -0.5113 -2.6503 -3.4462
  170SAPE   C2919230   3.045   2.195   7.409 -1.1028 -0.9615  0.0128
  170SAPE   H9R19231   3.117   2.201   7.492 -2.6364 -0.9435  1.4067
  170SAPE  C21019232   2.909   2.190   7.468 -0.0972  0.3390 -0.4124
  170SAPE  H10R19233   2.850   2.104   7.429 -0.1818  0.1458  0.1276
  170SAPE  H10S19234   2.844   2.273   7.433  0.6314  1.1897  0.2192
  170SAPE  C21119235   2.910   2.184   7.615 -0.2382  0.1571 -0.9169
  170SAPE  H11R19236   2.886   2.084   7.655  1.1854 -0.9645 -2.7103
  170SAPE  C21219237   2.953   2.278   7.702 -0.0362  0.8487 -0.7368
  170SAPE  H12R19238   2.948   2.251   7.809  0.3479 -1.0239 -1.1465
  170SAPE  C21319239   3.005   2.417   7.684  0.1449  0.5789  0.4773
  170SAPE  H13R19240   3.106   2.417   7.637 -0.4173  0.0529 -0.7966
  170SAPE  H13S19241   3.023   2.453   7.787 -1.4967 -0.4231  1.1662
  170SAPE  C21419242   2.919   2.515   7.603  0.3032 -0.2232  0.1002
  170SAPE  H14R19243   2.927   2.499   7.495 -0.0523  2.6113 -0.4463
  170SAPE  C21519244   2.852   2.631   7.635  0.2528  0.6790  0.0660
  170SAPE  H15R19245   2.791   2.682   7.559 -1.4056  0.5435  1.2524
  170SAPE  C21619246   2.846   2.694   7.765  0.0713  0.2341 -0.0498
  170SAPE  H16R19247   2.888   2.796   7.755 -2.4234  1.4693  1.2217
  170SAPE  H16S19248   2.902   2.631   7.837 -0.0467 -0.2685 -0.3885
  170SAPE  C21719249   2.703   2.723   7.818 -0.0577 -0.6434 -0.5141
  170SAPE  H17R19250   2.638   2.633   7.822  0.4640 -0.9924  1.7353
  170SAPE  H17S19251   2.658   2.795   7.747  0.9020 -0.5874 -1.0793
  170SAPE  C21819252   2.709   2.787   7.962 -0.7468 -0.6165  0.2458
  170SAPE  H18R19253   2.608   2.811   8.004 -0.3041  0.6023  0.6662
  170SAPE  H18S19254   2.765   2.882   7.951  1.8370 -2.0158  0.7199
  170SAPE  C21919255   2.800   2.717   8.070  1.2045  0.1516 -0.4447
  170SAPE  H19R19256   2.903   2.731   8.032  0.3564  1.7634 -2.2738
  170SAPE  H19S19257   2.768   2.612   8.085  0.2219  0.4263 -0.5205
  170SAPE  C22019258   2.802   2.793   8.207 -0.4149 -0.0044 -0.1357
  170SAPE  H20R19259   2.823   2.900   8.186  3.1436 -0.6209 -0.3782
  170SAPE  H20S19260   2.883   2.758   8.274  1.3944  4.3853  0.3339
  170SAPE  H20T19261   2.708   2.785   8.265  0.7185 -2.0542  1.5496
  170SAPE   C3319262   2.477   1.822   6.843  0.5852  0.4321 -0.0639
  170SAPE   H3X19263   2.586   1.800   6.846  0.5101 -0.2167 -1.2796
  170SAPE   H3Y19264   2.435   1.719   6.840  0.6226  0.4391 -1.3889
  170SAPE   C3419265   2.443   1.899   6.977  0.0111  0.7324 -0.1637
  170SAPE   H4X19266   2.332   1.893   6.986  0.0232 -0.0716 -0.3786
  170SAPE   H4Y19267   2.469   2.007   6.976  0.2495  0.7033  1.1808
  170SAPE   C3519268   2.508   1.827   7.091 -0.2754 -0.1097 -0.2867
  170SAPE   H5X19269   2.614   1.817   7.059  0.3922 -1.0612  1.9631
  170SAPE   H5Y19270   2.475   1.721   7.101 -0.3953  0.0865  1.8458
  170SAPE   C3619271   2.484   1.906   7.227 -0.5460  0.8666 -0.1404
  170SAPE   H6X19272   2.378   1.937   7.236 -0.8187 -0.2660  0.8242
  170SAPE   H6Y19273   2.557   1.989   7.239 -1.7116  1.6692  1.6550
  170SAPE   C3719274   2.512   1.810   7.351  0.3619 -0.1458 -0.2066
  170SAPE   H7X19275   2.594   1.738   7.333  0.8596 -0.0415  1.4966
  170SAPE   H7Y19276   2.412   1.766   7.375  0.0589 -0.5729 -2.0855
  170SAPE   C3819277   2.560   1.902   7.463  0.1552 -0.1772 -0.5946
  170SAPE   H8X19278   2.509   2.000   7.479  1.2698  0.0253  2.3304
  170SAPE   H8Y19279   2.667   1.925   7.447  0.3339 -0.3753  0.2635
  170SAPE   C3919280   2.568   1.832   7.599 -0.3530  0.2373 -0.2694
  170SAPE   H9X19281   2.647   1.756   7.610  0.0865  0.8184  0.7046
  170SAPE   H9Y19282   2.467   1.787   7.610 -0.0550 -0.8954 -1.8330
  170SAPE  C31019283   2.592   1.925   7.721 -0.7019 -0.0453 -0.1271
  170SAPE  H10X19284   2.521   2.010   7.726 -0.3002  0.3134 -0.4242
  170SAPE  H10Y19285   2.694   1.967   7.707  0.5931 -2.8002  0.4112
  170SAPE  C31119286   2.600   1.846   7.853  0.1373  0.0668  0.1857
  170SAPE  H11X19287   2.649   1.746   7.849  0.6123  0.3145 -0.2400
  170SAPE  H11Y19288   2.499   1.820   7.892  1.1817 -2.0577  1.6668
  170SAPE  C31219289   2.660   1.927   7.966  0.8317 -0.0481  0.4417
  170SAPE  H12X19290   2.599   2.019   7.977  0.5267  0.0112 -1.3851
  170SAPE  H12Y19291   2.759   1.968   7.939  2.0894 -3.1247 -0.0683
  170SAPE  C31319292   2.679   1.840   8.095 -0.7467  0.2754  0.3582
  170SAPE  H13X19293   2.732   1.747   8.066  0.1832  0.8692  0.1441
  170SAPE  H13Y19294   2.585   1.791   8.130  0.1980 -0.4178  2.0358
  170SAPE  C31419295   2.734   1.919   8.216  0.1638 -0.1510 -1.0028
  170SAPE  H14X19296   2.658   1.988   8.258 -1.0051 -0.3493 -2.6598
  170SAPE  H14Y19297   2.821   1.977   8.178  0.7725  0.8074  1.6869
  170SAPE  C31519298   2.789   1.826   8.328 -0.2256  0.0293  0.1091
  170SAPE  H15X19299   2.722   1.746   8.368  2.4733 -0.1767  5.0949
  170SAPE  H15Y19300   2.804   1.891   8.417 -0.9517 -1.4651  1.3769
  170SAPE  C31619301   2.915   1.759   8.286  0.0572  0.4722  0.7035
  170SAPE  H16X19302   2.977   1.841   8.243 -0.0273  0.4872  0.6086
  170SAPE  H16Y19303   2.892   1.691   8.201  1.3374 -0.3794  1.0015
  170SAPE  C31719304   2.997   1.686   8.398 -0.7342  0.2167 -0.3881
  170SAPE  H17X19305   2.926   1.629   8.460 -1.0719  2.1264  1.0723
  170SAPE  H17Y19306   3.026   1.769   8.465 -2.3585  0.0221  0.5959
  170SAPE  C31819307   3.123   1.600   8.358  0.2034  0.6675  0.3464
  170SAPE  H18X19308   3.111   1.544   8.264 -0.8069  0.8358  0.3684
  170SAPE  H18Y19309   3.131   1.530   8.445 -0.9658  0.5969  0.4108
  170SAPE  H18Z19310   3.213   1.665   8.352  0.1236  0.6683 -1.2893
  171SAPE     N19311   0.008   5.987   6.234  0.2406  0.2883  0.6523
  171SAPE   HN119312  -0.002   5.996   6.131  0.6219 -5.5586 -0.2714
  171SAPE   HN219313  -0.078   6.028   6.275 -0.7554  0.0088 -1.0800
  171SAPE   HN319314   0.093   6.042   6.258  0.3437  0.6268 -0.4416
  171SAPE   C1219315   0.024   5.835   6.256 -0.2692 -0.7985 -0.4899
  171SAPE  H12A19316   0.130   5.820   6.286  0.2690  1.0664 -1.3322
  171SAPE  H12B19317   0.017   5.783   6.158  1.2888  1.0350 -1.6474
  171SAPE   C1119318  -0.071   5.784   6.363 -0.8878  0.2561 -0.4676
  171SAPE  H11A19319  -0.044   5.816   6.466 -2.1446  2.1668 -0.6765
  171SAPE  H11B19320  -0.058   5.674   6.370 -1.8200 -0.1422 -3.4048
  171SAPE     P19321  -0.298   5.728   6.245  0.1443 -0.5798  0.4711
  171SAPE   O1319322  -0.422   5.802   6.221  0.3520 -0.3694 -0.2772
  171SAPE   O1419323  -0.208   5.691   6.128 -0.1177 -0.6647 -0.2434
  171SAPE   O1219324  -0.210   5.815   6.342 -0.4991 -0.0174  1.2361
  171SAPE   O1119325  -0.323   5.599   6.331 -0.0780 -0.3834  0.5224
  171SAPE    C119326  -0.419   5.610   6.437  0.3451 -0.2795 -0.9073
  171SAPE    HA19327  -0.516   5.656   6.407 -1.2605 -2.6549  0.3485
  171SAPE    HB19328  -0.425   5.502   6.464  2.0212  0.0803  1.1065
  171SAPE    C219329  -0.376   5.678   6.572 -0.3910  0.6776  0.4282
  171SAPE    HS19330  -0.365   5.788   6.556  0.3020  0.7291  1.1794
  171SAPE   O2119331  -0.252   5.612   6.608 -0.5184  0.0308 -0.2336
  171SAPE   C2119332  -0.171   5.694   6.673 -0.2352 -0.2484 -0.0711
  171SAPE   O2219333  -0.181   5.813   6.689 -0.1086  0.0467  0.8057
  171SAPE   C2219334  -0.054   5.616   6.720  0.2153 -0.2764  0.5770
  171SAPE   H2R19335  -0.000   5.579   6.630  1.6936  0.5230  1.0862
  171SAPE   H2S19336   0.025   5.689   6.749  2.3822 -1.5688 -1.7308
  171SAPE    C319337  -0.484   5.653   6.677 -0.0833 -0.3419 -0.0077
  171SAPE    HX19338  -0.515   5.547   6.681  0.0800 -0.4946 -1.9962
  171SAPE    HY19339  -0.573   5.708   6.637  0.9436  0.8093 -0.7883
  171SAPE   O3119340  -0.444   5.702   6.806 -0.6924 -0.2967 -0.2248
  171SAPE   C3119341  -0.447   5.834   6.808  0.4966 -0.6083  0.0407
  171SAPE   O3219342  -0.493   5.910   6.729  0.3402 -0.6383 -0.1415
  171SAPE   C3219343  -0.398   5.890   6.950 -0.7850 -0.2877  0.0945
  171SAPE   H2X19344  -0.475   5.953   7.000 -0.6986  0.7318 -1.0013
  171SAPE   H2Y19345  -0.317   5.962   6.926  0.2847 -0.2840  3.2403
  171SAPE   C2319346  -0.081   5.504   6.819  0.1141 -0.3536 -0.1536
  171SAPE   H3R19347  -0.142   5.423   6.774 -1.1661  0.6612 -0.3105
  171SAPE   H3S19348  -0.134   5.544   6.908 -0.1251  1.3081 -1.0056
  171SAPE   C2419349   0.046   5.435   6.862 -0.2175 -0.1085 -0.5848
  171SAPE   H4R19350   0.100   5.387   6.777 -0.9544  0.3217 -1.3057
  171SAPE   H4S19351   0.022   5.352   6.932 -0.0657 -0.6403 -1.1552
  171SAPE   C2519352   0.159   5.516   6.919 -0.1843 -0.2647 -0.2454
  171SAPE   H5R19353   0.226   5.558   6.844  2.5479 -1.6012  1.3023
  171SAPE   C2619354   0.176   5.544   7.047  0.2578  0.1519 -0.4705
  171SAPE   H6R19355   0.263   5.600   7.084  1.7033 -0.5260 -2.6222
  171SAPE   C2719356   0.072   5.501   7.153 -1.5020 -0.3606  0.7196
  171SAPE   H7R19357  -0.028   5.465   7.117 -2.1219  2.3637 -0.5230
  171SAPE   H7S19358   0.058   5.598   7.205 -1.8685 -0.4936  0.8706
  171SAPE   C2819359   0.136   5.406   7.251  0.2502  0.6355  0.3000
  171SAPE   H8R19360   0.205   5.339   7.197  0.6978  0.2561  1.3183
  171SAPE   C2919361   0.127   5.392   7.388  0.0004 -0.4941  0.2872
  171SAPE   H9R19362   0.181   5.305   7.429  1.4254 -1.1025 -2.5932
  171SAPE  C21019363   0.044   5.481   7.472 -0.0398 -0.1746 -0.0337
  171SAPE  H10R19364  -0.042   5.521   7.414  0.4189 -1.6011 -1.7853
  171SAPE  H10S19365   0.108   5.566   7.504 -0.2218  0.6839 -1.8055
  171SAPE  C21119366  -0.028   5.419   7.591  0.1361 -0.2573  0.3393
  171SAPE  H11R19367  -0.137   5.427   7.581  0.2510 -0.3812 -1.2634
  171SAPE  C21219368   0.027   5.353   7.700 -0.1249  0.4875  0.8179
  171SAPE  H12R19369  -0.039   5.312   7.778  0.6327 -1.7480  0.3388
  171SAPE  C21319370   0.172   5.329   7.740  0.1692 -0.0573  0.8302
  171SAPE  H13R19371   0.192   5.355   7.846  2.0845  0.4289  0.3979
  171SAPE  H13S19372   0.229   5.404   7.681 -0.3595  0.7867  1.3790
  171SAPE  C21419373   0.218   5.182   7.709  0.1294  0.2400  0.2998
  171SAPE  H14R19374   0.278   5.167   7.618  0.5445  2.4441  0.1360
  171SAPE  C21519375   0.181   5.078   7.782 -0.1617  0.7746  0.0458
  171SAPE  H15R19376   0.229   4.985   7.748 -0.6879  0.9489 -1.2248
  171SAPE  C21619377   0.089   5.068   7.904 -0.1568 -0.6203 -0.6390
  171SAPE  H16R19378   0.025   4.978   7.892  1.8640 -2.2583  0.1956
  171SAPE  H16S19379   0.020   5.152   7.921 -1.2090 -1.8856  1.8011
  171SAPE  C21719380   0.171   5.050   8.040 -0.0819  0.4132 -0.1997
  171SAPE  H17R19381   0.215   5.149   8.064  2.5986 -0.9982  1.1499
  171SAPE  H17S19382   0.246   4.972   8.016  2.6205  2.9871 -0.6535
  171SAPE  C21819383   0.086   5.010   8.161 -0.2067  0.4030 -0.2944
  171SAPE  H18R19384   0.030   5.102   8.187  0.0146  1.4983 -3.3285
  171SAPE  H18S19385   0.153   4.964   8.238  1.2335  0.4392 -1.4884
  171SAPE  C21919386  -0.010   4.898   8.144 -0.3272 -0.2446  0.2144
  171SAPE  H19R19387  -0.095   4.923   8.076 -0.7955 -1.2310  0.4225
  171SAPE  H19S19388  -0.060   4.881   8.242 -1.4624  0.5542 -0.2095
  171SAPE  C22019389   0.061   4.772   8.092  0.9314 -0.1530  0.1307
  171SAPE  H20R19390   0.088   4.784   7.985 -0.1605  2.1534  0.0418
  171SAPE  H20S19391  -0.020   4.697   8.106  0.5375  0.3416  0.5450
  171SAPE  H20T19392   0.148   4.750   8.157 -0.0136 -0.8036  1.2209
  171SAPE   C3319393  -0.323   5.795   7.042 -0.2443  0.0152 -0.0301
  171SAPE   H3X19394  -0.253   5.724   6.992 -0.6284 -0.4211  0.0486
  171SAPE   H3Y19395  -0.406   5.729   7.075  0.0075  0.5662  1.8513
  171SAPE   C3419396  -0.248   5.861   7.157  0.2266  0.5747  0.3076
  171SAPE   H4X19397  -0.236   5.785   7.236 -0.6526 -0.5610 -0.6093
  171SAPE   H4Y19398  -0.300   5.952   7.193 -0.8095 -0.5602  1.7778
  171SAPE   C3519399  -0.107   5.914   7.118  0.2684  0.6650 -0.5929
  171SAPE   H5X19400  -0.120   5.981   7.031 -0.4819 -1.0701 -1.8910
  171SAPE   H5Y19401  -0.041   5.825   7.105  0.7694  1.0897 -1.0102
  171SAPE   C3619402  -0.046   5.996   7.229 -0.4806 -0.1557  0.4422
  171SAPE   H6X19403  -0.114   6.084   7.227 -1.0431 -0.5540  1.1073
  171SAPE   H6Y19404   0.056   6.028   7.199 -0.0553  0.8065  2.7171
  171SAPE   C3719405  -0.051   5.935   7.367  0.1927 -0.4237 -0.3361
  171SAPE   H7X19406   0.014   5.845   7.354 -0.5335 -0.8027 -1.4001
  171SAPE   H7Y19407  -0.151   5.900   7.400 -0.5343  1.3131 -0.5760
  171SAPE   C3819408   0.009   6.032   7.469 -0.5850  0.4442 -0.3349
  171SAPE   H8X19409  -0.065   6.108   7.503  0.0613 -0.5622  3.8655
  171SAPE   H8Y19410   0.091   6.083   7.414  0.8537  0.8617  2.0379
  171SAPE   C3919411   0.070   5.961   7.591  0.3709  0.4191  0.5256
  171SAPE   H9X19412   0.136   6.024   7.655  1.5089 -1.0714  0.8671
  171SAPE   H9Y19413   0.134   5.884   7.544 -0.5059  1.3661 -2.4233
  171SAPE  C31019414  -0.034   5.887   7.683  0.6809 -0.5571 -0.2596
  171SAPE  H10X19415  -0.119   5.849   7.622 -0.3204 -0.8033  1.2331
  171SAPE  H10Y19416  -0.077   5.965   7.749  2.0570  1.0127 -1.1251
  171SAPE  C31119417   0.030   5.784   7.780  0.5840  0.2027 -0.0324
  171SAPE  H11X19418   0.121   5.834   7.819 -0.0170  2.7106 -1.6035
  171SAPE  H11Y19419   0.057   5.695   7.719 -0.5097  0.7542 -1.3677
  171SAPE  C31219420  -0.052   5.739   7.898  0.0509 -0.4163  0.3362
  171SAPE  H12X19421  -0.009   5.653   7.952 -2.2583 -1.4574  0.6329
  171SAPE  H12Y19422  -0.152   5.711   7.858  0.1243  0.0015 -0.1555
  171SAPE  C31319423  -0.047   5.840   8.014  0.4805  0.2052  0.7260
  171SAPE  H13X19424  -0.104   5.928   7.977  1.2818  0.1525 -0.6785
  171SAPE  H13Y19425   0.054   5.861   8.056  1.2552 -0.9616 -0.4830
  171SAPE  C31419426  -0.112   5.788   8.135  0.1663  0.0369 -0.6868
  171SAPE  H14X19427  -0.092   5.680   8.152 -2.4878 -0.6449 -1.3856
  171SAPE  H14Y19428  -0.223   5.787   8.128  0.0696  0.1682  0.4724
  171SAPE  C31519429  -0.083   5.875   8.262 -0.7624 -0.2489 -0.5964
  171SAPE  H15X19430  -0.104   5.983   8.247  1.1185  0.3059  0.3432
  171SAPE  H15Y19431   0.023   5.857   8.289 -1.1846 -1.0786  0.6063
  171SAPE  C31619432  -0.178   5.843   8.382 -0.5593  0.1049 -0.0894
  171SAPE  H16X19433  -0.198   5.734   8.374  0.6800 -0.2484  1.1860
  171SAPE  H16Y19434  -0.276   5.894   8.366 -0.2306  0.7423 -0.1176
  171SAPE  C31719435  -0.130   5.908   8.515  0.3211 -0.6985 -0.0817
  171SAPE  H17X19436  -0.202   5.880   8.594  1.7525 -1.9865  0.8385
  171SAPE  H17Y19437  -0.141   6.018   8.511 -1.6486 -0.8823 -0.6083
  171SAPE  C31819438   0.002   5.871   8.574  0.1447  0.2180 -0.3211
  171SAPE  H18X19439   0.021   5.926   8.669 -2.1747 -0.4872  0.6205
  171SAPE  H18Y19440   0.083   5.891   8.500 -0.8804  0.3321 -1.4459
  171SAPE  H18Z19441  -0.013   5.765   8.604 -1.5807  0.5380  0.0435
  172SAPE     N19442   4.425   1.932   6.362 -0.1867 -0.4387  0.4747
  172SAPE   HN119443   4.481   1.845   6.349 -1.5958 -1.1040 -1.8852
  172SAPE   HN219444   4.456   2.010   6.300 -0.9285 -0.5507 -0.0452
  172SAPE   HN319445   4.412   1.958   6.462 -0.4255 -3.3330  1.2862
  172SAPE   C1219446   4.289   1.902   6.309 -0.5257 -0.1515 -0.5803
  172SAPE  H12A19447   4.307   1.891   6.200  1.6838 -0.7585 -0.2263
  172SAPE  H12B19448   4.228   1.992   6.329 -0.4577 -0.8294  3.5722
  172SAPE   C1119449   4.224   1.783   6.378  0.2866 -0.7125 -0.4522
  172SAPE  H11A19450   4.128   1.755   6.330 -0.2482 -0.1312  0.2473
  172SAPE  H11B19451   4.185   1.827   6.473  0.6245 -1.4769  0.0440
  172SAPE     P19452   4.279   1.531   6.323 -0.3653  0.2382 -0.3267
  172SAPE   O1319453   4.284   1.561   6.177  0.1396 -0.0992  0.2108
  172SAPE   O1419454   4.362   1.416   6.365 -0.1778  0.0064  0.4680
  172SAPE   O1219455   4.309   1.666   6.407 -0.2494 -0.4600 -0.0423
  172SAPE   O1119456   4.130   1.499   6.360  0.4006  0.1046  0.5988
  172SAPE    C119457   4.095   1.425   6.481  0.1867 -0.3212 -0.7659
  172SAPE    HA19458   4.032   1.337   6.454  0.1538  0.2919 -2.9277
  172SAPE    HB19459   4.184   1.389   6.538  1.6325  2.9229 -0.7579
  172SAPE    C219460   4.018   1.517   6.576 -0.2215  0.6244 -0.8727
  172SAPE    HS19461   4.079   1.608   6.593 -1.6236  1.6127 -0.9502
  172SAPE   O2119462   3.968   1.447   6.690 -0.0490  0.1751  0.9603
  172SAPE   C2119463   4.052   1.455   6.793 -0.0375 -0.9379 -0.3242
  172SAPE   O2219464   4.151   1.523   6.793  0.4000 -0.2580 -0.4015
  172SAPE   C2219465   4.006   1.367   6.909  0.0559 -0.2398  1.1831
  172SAPE   H2R19466   3.896   1.381   6.913 -0.0765 -0.2428 -1.3104
  172SAPE   H2S19467   4.020   1.262   6.877 -2.0966  0.1958 -1.5300
  172SAPE    C319468   3.895   1.579   6.493  0.1790 -0.0779  0.1447
  172SAPE    HX19469   3.851   1.495   6.437  0.3830 -1.5829  2.1434
  172SAPE    HY19470   3.939   1.649   6.419  0.8531 -0.2960  0.3356
  172SAPE   O3119471   3.800   1.645   6.577  0.1521 -0.3250  0.2042
  172SAPE   C3119472   3.829   1.774   6.608 -1.4917 -0.3392  0.2196
  172SAPE   O3219473   3.932   1.831   6.576  0.4386  0.0707  0.0212
  172SAPE   C3219474   3.714   1.830   6.688  0.9330 -0.8284  0.3019
  172SAPE   H2X19475   3.618   1.785   6.655  0.5771  1.7439 -2.4931
  172SAPE   H2Y19476   3.714   1.938   6.665  1.0936 -1.0833 -0.9603
  172SAPE   C2319477   4.068   1.414   7.040 -0.3135  0.0478 -0.0565
  172SAPE   H3R19478   4.052   1.522   7.060  4.6071  0.8019  1.3056
  172SAPE   H3S19479   4.179   1.407   7.037 -0.4032 -1.9497 -0.2184
  172SAPE   C2419480   4.043   1.305   7.151 -0.4570 -0.5817 -0.0611
  172SAPE   H4R19481   4.120   1.327   7.228 -0.0419 -1.5829 -0.1752
  172SAPE   H4S19482   4.078   1.204   7.123  0.4897 -0.4389  0.5618
  172SAPE   C2519483   3.896   1.309   7.199  0.0606  0.3960  0.2087
  172SAPE   H5R19484   3.818   1.287   7.125  0.9927 -0.6244 -0.5162
  172SAPE   C2619485   3.856   1.342   7.321 -0.1282  0.2742 -0.8045
  172SAPE   H6R19486   3.749   1.345   7.348 -0.3639  0.3026 -1.7133
  172SAPE   C2719487   3.954   1.377   7.435  0.8445 -0.2562  0.4030
  172SAPE   H7R19488   3.911   1.456   7.501  0.1072 -1.9186  1.9897
  172SAPE   H7S19489   4.050   1.417   7.395  2.0237 -1.1498  2.1698
  172SAPE   C2819490   3.979   1.257   7.516  0.9159 -0.1376 -0.3853
  172SAPE   H8R19491   4.017   1.168   7.466  0.1347 -1.1816  0.8092
  172SAPE   C2919492   3.966   1.249   7.649  0.1733  0.4374  0.2447
  172SAPE   H9R19493   4.001   1.153   7.689  0.2657  0.4634  0.2265
  172SAPE  C21019494   3.920   1.347   7.754  0.3241  0.0819  0.3770
  172SAPE  H10R19495   3.871   1.439   7.716 -2.0062  0.5144  3.9675
  172SAPE  H10S19496   4.012   1.392   7.797  0.9320  0.5151 -1.3239
  172SAPE  C21119497   3.824   1.290   7.863 -0.5950  0.3411  0.6213
  172SAPE  H11R19498   3.730   1.239   7.838  0.1574 -1.2249  0.8463
  172SAPE  C21219499   3.847   1.302   7.999 -0.4724 -0.2051 -0.2736
  172SAPE  H12R19500   3.760   1.277   8.061 -0.8474  1.9552  0.1512
  172SAPE  C21319501   3.958   1.370   8.069 -0.6530 -0.0827  0.2613
  172SAPE  H13R19502   3.946   1.480   8.053 -1.2087 -0.0731  0.7182
  172SAPE  H13S19503   4.053   1.349   8.015 -0.0857  1.0486  0.7859
  172SAPE  C21419504   3.961   1.335   8.212  0.3846 -0.3215 -0.2420
  172SAPE  H14R19505   4.005   1.237   8.234 -2.1267 -0.9871  2.5470
  172SAPE  C21519506   3.923   1.406   8.320 -0.0836  0.8213  0.0574
  172SAPE  H15R19507   3.935   1.361   8.419  2.7401  0.1144 -0.5157
  172SAPE  C21619508   3.853   1.536   8.317 -0.6466 -0.0184  0.1991
  172SAPE  H16R19509   3.842   1.574   8.214  0.7007 -1.3691 -0.4808
  172SAPE  H16S19510   3.917   1.610   8.371  2.4082 -1.9815 -0.4452
  172SAPE  C21719511   3.714   1.531   8.385 -0.5485 -0.7606  0.2324
  172SAPE  H17R19512   3.730   1.487   8.486 -2.2320  0.5615  1.1220
  172SAPE  H17S19513   3.641   1.466   8.333 -1.1605  2.0715 -2.8050
  172SAPE  C21819514   3.652   1.668   8.401  0.1538  0.7747  0.3337
  172SAPE  H18R19515   3.645   1.714   8.300 -0.2184 -0.5162 -0.2538
  172SAPE  H18S19516   3.716   1.736   8.462 -0.1439 -0.3794  1.9846
  172SAPE  C21919517   3.511   1.666   8.458  0.4947 -0.6594 -0.2175
  172SAPE  H19R19518   3.511   1.628   8.562  0.2856  1.7595  0.7194
  172SAPE  H19S19519   3.453   1.590   8.401 -0.0806 -0.9459  0.7465
  172SAPE  C22019520   3.438   1.797   8.464  0.3364  0.8541  0.4963
  172SAPE  H20R19521   3.328   1.780   8.474  0.0813 -0.6857 -3.2646
  172SAPE  H20S19522   3.450   1.855   8.370 -1.0867  2.7017  1.3818
  172SAPE  H20T19523   3.476   1.850   8.554  2.5466 -0.2546  0.2741
  172SAPE   C3319524   3.724   1.817   6.846  0.8111  0.3008 -0.2286
  172SAPE   H3X19525   3.621   1.851   6.874  1.0869  2.3033 -1.4432
  172SAPE   H3Y19526   3.807   1.876   6.888  2.7698 -1.7725 -0.9927
  172SAPE   C3419527   3.730   1.669   6.890  0.5975 -0.6430 -0.0277
  172SAPE   H4X19528   3.826   1.621   6.861 -0.2452 -2.5684  0.2813
  172SAPE   H4Y19529   3.650   1.609   6.843  0.9499 -1.2217  0.0983
  172SAPE   C3519530   3.736   1.652   7.045 -0.0718 -0.2981 -0.0092
  172SAPE   H5X19531   3.823   1.714   7.076  0.6665 -0.0402 -2.3984
  172SAPE   H5Y19532   3.764   1.545   7.049  0.5226 -0.1670 -0.5004
  172SAPE   C3619533   3.606   1.690   7.121 -0.3390 -0.5382 -0.4474
  172SAPE   H6X19534   3.532   1.613   7.091  0.2546 -0.8469 -1.1277
  172SAPE   H6Y19535   3.584   1.794   7.088 -2.5814 -0.6253  0.5848
  172SAPE   C3719536   3.620   1.674   7.274 -0.4109 -0.8992  0.6259
  172SAPE   H7X19537   3.640   1.772   7.323 -1.1363 -1.4970  2.2184
  172SAPE   H7Y19538   3.710   1.610   7.285 -0.3915 -1.0340 -0.2442
  172SAPE   C3819539   3.496   1.608   7.335 -0.1602  0.2732 -0.1363
  172SAPE   H8X19540   3.497   1.508   7.286  1.2031  0.7774 -1.1835
  172SAPE   H8Y19541   3.404   1.666   7.312 -0.5624 -0.4427 -0.3797
  172SAPE   C3919542   3.503   1.579   7.486 -1.0755 -0.2006  0.3495
  172SAPE   H9X19543   3.536   1.668   7.543  2.0810  0.5548 -2.4044
  172SAPE   H9Y19544   3.578   1.502   7.514  0.1740  0.6309 -0.6382
  172SAPE  C31019545   3.375   1.520   7.544  0.5736  0.8529 -0.6186
  172SAPE  H10X19546   3.343   1.440   7.474 -0.7948  0.6710  0.1733
  172SAPE  H10Y19547   3.293   1.595   7.541  1.1887  1.5107 -1.5267
  172SAPE  C31119548   3.398   1.467   7.686  0.0572  0.2994 -0.0376
  172SAPE  H11X19549   3.486   1.401   7.703 -1.5394 -1.4467  1.9975
  172SAPE  H11Y19550   3.319   1.390   7.700  3.4314 -3.8539 -1.5585
  172SAPE  C31219551   3.417   1.576   7.792  0.0426 -0.7503  0.0977
  172SAPE  H12X19552   3.330   1.645   7.803 -0.1625 -0.8853 -0.6078
  172SAPE  H12Y19553   3.489   1.653   7.756  0.7574 -0.2450  2.4403
  172SAPE  C31319554   3.451   1.519   7.933 -0.2142 -0.1037  0.8616
  172SAPE  H13X19555   3.473   1.595   8.012  0.4220  0.7654 -0.1286
  172SAPE  H13Y19556   3.545   1.460   7.927  0.0009  0.3432 -0.5658
  172SAPE  C31419557   3.340   1.421   7.990  0.4289 -0.1673  0.2420
  172SAPE  H14X19558   3.313   1.348   7.911  0.3255 -1.9051  1.8082
  172SAPE  H14Y19559   3.260   1.494   8.017  0.1715 -0.4122  0.1394
  172SAPE  C31519560   3.379   1.349   8.118  0.3955 -0.3897  0.0065
  172SAPE  H15X19561   3.421   1.428   8.184 -0.1717  0.5073 -0.6865
  172SAPE  H15Y19562   3.458   1.271   8.107  0.1277 -0.3834 -2.2618
  172SAPE  C31619563   3.261   1.278   8.188 -0.1966  0.8929  0.1611
  172SAPE  H16X19564   3.214   1.204   8.120 -0.1238  0.3751  0.6612
  172SAPE  H16Y19565   3.177   1.346   8.212 -2.5428 -2.5334  2.8057
  172SAPE  C31719566   3.313   1.227   8.323 -0.3690 -0.5485 -0.0076
  172SAPE  H17X19567   3.351   1.306   8.392 -2.3736 -0.4487  1.0763
  172SAPE  H17Y19568   3.401   1.170   8.289 -0.3465 -0.0481 -0.8150
  172SAPE  C31819569   3.226   1.141   8.408  0.8016 -0.9967 -0.5108
  172SAPE  H18X19570   3.132   1.192   8.438  0.6767 -1.4756 -0.0574
  172SAPE  H18Y19571   3.287   1.129   8.500 -1.3327  2.7890  1.6478
  172SAPE  H18Z19572   3.203   1.042   8.364  0.8976 -1.2852  0.0777
  173SOPE     N19573   3.905   1.103  10.686 -0.0957  0.7137  0.9029
  173SOPE   HN119574   3.985   1.148  10.734 -0.2482  1.7005  0.2573
  173SOPE   HN219575   3.926   1.073  10.589  1.0419  1.6085  0.8573
  173SOPE   HN319576   3.815   1.156  10.683  0.1558  1.1175 -1.4768
  173SOPE   C1219577   3.882   0.971  10.760  0.2512  0.0279  0.3785
  173SOPE  H12A19578   3.803   0.911  10.710 -1.0744  1.8013  0.2612
  173SOPE  H12B19579   3.838   0.987  10.861  0.8131 -0.7057  0.7540
  173SOPE   C1119580   4.016   0.910  10.777 -0.7843 -0.1097  0.2701
  173SOPE  H11A19581   4.036   0.865  10.678 -2.6053 -0.0101 -0.1861
  173SOPE  H11B19582   4.001   0.829  10.851  1.1534 -1.5477 -0.8316
  173SOPE     P19583   4.234   0.954  10.914 -0.0643  0.6801  0.6648
  173SOPE   O1319584   4.226   0.812  10.951  0.0748  0.0261  0.7964
  173SOPE   O1419585   4.260   1.049  11.027  0.1812 -0.6927  0.4771
  173SOPE   O1219586   4.108   1.005  10.832 -0.0035 -0.2516 -0.0735
  173SOPE   O1119587   4.357   0.970  10.814  0.2958  0.1630 -0.2709
  173SOPE    C119588   4.368   1.066  10.712  0.0032  0.2882 -0.0277
  173SOPE    HA19589   4.425   1.154  10.750 -1.8726  1.2421  0.7450
  173SOPE    HB19590   4.266   1.107  10.692 -0.0814  0.4323  0.7005
  173SOPE    C219591   4.436   1.007  10.585  0.1768 -0.0900 -0.5047
  173SOPE    HS19592   4.371   0.924  10.552 -0.9439  0.7962 -0.5627
  173SOPE   O2119593   4.570   0.955  10.608 -0.0804 -0.3810  0.2211
  173SOPE   C2119594   4.607   0.859  10.523 -0.1416  0.6257 -0.1044
  173SOPE   O2219595   4.534   0.797  10.447 -0.9618 -0.0565  0.1418
  173SOPE   C2219596   4.754   0.826  10.536 -0.0142  0.1396 -0.1525
  173SOPE   H2R19597   4.784   0.782  10.634 -2.3025  0.5552  0.7902
  173SOPE   H2S19598   4.809   0.921  10.519  1.1414 -0.6895 -1.2917
  173SOPE    C319599   4.435   1.110  10.469 -0.3606 -0.0322  0.7286
  173SOPE    HX19600   4.502   1.192  10.503  0.9892 -0.6257 -0.3659
  173SOPE    HY19601   4.330   1.146  10.470 -1.2470 -2.1666  4.5031
  173SOPE   O3119602   4.478   1.052  10.343  0.2754 -0.5228  0.2282
  173SOPE   C3119603   4.387   0.995  10.261  0.1279  0.7673  0.0626
  173SOPE   O3219604   4.267   0.995  10.285 -0.3765  0.0550 -0.3793
  173SOPE   C3219605   4.451   0.923  10.144 -0.0721  0.7399 -0.1112
  173SOPE   H2X19606   4.516   0.844  10.189  2.0644  2.7966  0.6158
  173SOPE   H2Y19607   4.521   0.993  10.094 -0.3638  0.5643 -0.7737
  173SOPE   C2319608   4.808   0.730  10.419  0.3541 -0.0262 -0.1978
  173SOPE   H3R19609   4.740   0.642  10.409  0.8076 -0.4842  0.5896
  173SOPE   H3S19610   4.904   0.687  10.455  0.0833 -0.4538  0.0177
  173SOPE   C2419611   4.824   0.805  10.291  0.3434 -0.1066 -0.2961
  173SOPE   H4R19612   4.730   0.861  10.269  0.1115 -0.5518 -0.4442
  173SOPE   H4S19613   4.912   0.869  10.316 -0.7165  0.7093  1.6219
  173SOPE   C2519614   4.856   0.731  10.161  0.0852 -0.8021 -0.6501
  173SOPE   H5R19615   4.928   0.648  10.179 -1.7141 -2.1657  0.6549
  173SOPE   H5S19616   4.763   0.684  10.122  0.0074 -0.3783 -0.9861
  173SOPE   C2619617   4.914   0.830  10.061 -0.0377  0.0783 -0.4409
  173SOPE   H6R19618   4.832   0.901  10.034 -1.7661 -2.1427 -1.3348
  173SOPE   H6S19619   5.001   0.887  10.100 -0.9931  0.1426  1.7853
  173SOPE   C2719620   4.958   0.773   9.929  0.8852  0.0393 -0.1162
  173SOPE   H7R19621   4.981   0.863   9.869  1.1342  0.7635  1.0437
  173SOPE   H7S19622   5.045   0.705   9.939  1.2906  0.0320 -2.8087
  173SOPE   C2819623   4.843   0.700   9.845 -0.0691 -1.0333  0.2546
  173SOPE   H8R19624   4.812   0.606   9.897 -0.0122 -0.3091  1.6605
  173SOPE   H8S19625   4.760   0.773   9.834  0.5161 -0.7129 -2.9432
  173SOPE   C2919626   4.882   0.655   9.703 -0.0496 -0.1579 -0.0452
  173SOPE   H9119627   4.929   0.556   9.705 -0.7593 -0.4915  0.7553
  173SOPE  C21019628   4.876   0.733   9.589  0.0127 -1.5000  0.1072
  173SOPE  H10119629   4.886   0.696   9.486 -0.8811 -0.1025 -0.5025
  173SOPE  C21119630   4.829   0.874   9.587  0.8637  0.4523  0.4622
  173SOPE  H11R19631   4.842   0.939   9.675 -1.6417  0.1843  1.1128
  173SOPE  H11S19632   4.721   0.884   9.563  1.5039  2.7902 -1.9260
  173SOPE  C21219633   4.899   0.961   9.471  0.0340  0.6885 -0.5343
  173SOPE  H12R19634   4.867   1.067   9.480  2.4332  1.2585  3.8727
  173SOPE  H12S19635   4.869   0.920   9.372  0.7200 -0.6581 -0.2138
  173SOPE  C21319636   5.056   0.970   9.482  0.0411  0.6342  0.6817
  173SOPE  H13R19637   5.097   0.881   9.431 -0.3281  0.5732  0.4865
  173SOPE  H13S19638   5.093   0.981   9.586  1.0658  0.8262  0.3089
  173SOPE  C21419639   5.111   1.077   9.400 -0.1053 -0.1888 -0.3731
  173SOPE  H14R19640   5.094   1.178   9.445 -2.1047  0.3356 -2.1278
  173SOPE  H14S19641   5.067   1.075   9.298  1.7418  1.1583 -1.2621
  173SOPE  C21519642   5.265   1.059   9.381  0.2449  0.1028  0.2218
  173SOPE  H15R19643   5.315   1.020   9.472  0.5510  1.3133  0.5811
  173SOPE  H15S19644   5.303   1.160   9.359  0.1034  0.5006  1.6902
  173SOPE  C21619645   5.297   0.980   9.253  0.8492 -0.0401  0.1344
  173SOPE  H16R19646   5.309   1.050   9.167  2.4087 -0.0469  0.3065
  173SOPE  H16S19647   5.217   0.907   9.231 -0.9274  1.4151  1.4894
  173SOPE  C21719648   5.427   0.901   9.262  0.8297  0.2617 -0.0451
  173SOPE  H17R19649   5.427   0.831   9.349  0.2892 -1.3400 -1.2892
  173SOPE  H17S19650   5.504   0.976   9.288  0.4452  1.3393 -1.9051
  173SOPE  C21819651   5.475   0.832   9.131  0.3213 -0.7929  0.1272
  173SOPE  H18R19652   5.397   0.773   9.078 -1.6313  1.8195 -0.1229
  173SOPE  H18S19653   5.564   0.766   9.137 -0.0499 -1.3240 -0.0458
  173SOPE  H18T19654   5.501   0.910   9.057 -0.3676  0.4976  1.2096
  173SOPE   C3319655   4.362   0.883  10.021  0.1799  0.3097 -0.1796
  173SOPE   H3X19656   4.323   0.972   9.969 -1.2055  0.3097  0.8101
  173SOPE   H3Y19657   4.277   0.814  10.042 -1.8818  1.8699 -2.8756
  173SOPE   C3419658   4.456   0.817   9.915 -0.1288  0.0179 -0.1218
  173SOPE   H4X19659   4.516   0.741   9.970 -1.0425 -0.8810 -0.3299
  173SOPE   H4Y19660   4.525   0.899   9.886 -0.1781  0.1965  0.2671
  173SOPE   C3519661   4.390   0.767   9.790  0.4523 -0.0905 -0.0769
  173SOPE   H5X19662   4.305   0.836   9.773 -0.2544 -1.0573 -0.5281
  173SOPE   H5Y19663   4.338   0.671   9.811  0.7674 -0.1162  0.6098
  173SOPE   C3619664   4.469   0.755   9.665 -1.1517 -1.2251 -0.0690
  173SOPE   H6X19665   4.557   0.688   9.669 -1.3134 -1.3918  2.2699
  173SOPE   H6Y19666   4.505   0.858   9.645 -0.7038 -1.3712 -0.0057
  173SOPE   C3719667   4.374   0.714   9.545 -0.4434  0.3511 -0.2670
  173SOPE   H7X19668   4.287   0.783   9.543  1.3793  2.7927 -0.2864
  173SOPE   H7Y19669   4.340   0.608   9.545 -0.9903  0.4233 -3.3727
  173SOPE   C3819670   4.449   0.737   9.412 -0.5741 -0.0498 -0.1769
  173SOPE   H8X19671   4.548   0.686   9.406 -1.2919 -1.4645 -0.3889
  173SOPE   H8Y19672   4.472   0.846   9.406  1.3233 -0.3564  0.8224
  173SOPE   C3919673   4.373   0.684   9.294 -0.6778 -0.7348 -0.4119
  173SOPE   H9X19674   4.330   0.586   9.322  1.3506 -1.7557 -0.7101
  173SOPE   H9Y19675   4.442   0.662   9.210 -0.4798 -1.0672 -0.1655
  173SOPE  C31019676   4.256   0.776   9.259 -0.2917  0.4432 -0.0919
  173SOPE  H10X19677   4.283   0.884   9.257 -0.3695  0.4585 -0.4275
  173SOPE  H10Y19678   4.166   0.771   9.324 -0.7863  0.8009 -0.7396
  173SOPE  C31119679   4.190   0.729   9.126  0.8361 -0.3512 -0.3503
  173SOPE  H11X19680   4.155   0.626   9.145  0.7248  0.0994  2.1829
  173SOPE  H11Y19681   4.262   0.735   9.041 -0.4269  1.0839 -1.3739
  173SOPE  C31219682   4.082   0.834   9.096 -0.0917  0.1829 -0.1170
  173SOPE  H12X19683   4.131   0.933   9.089 -0.4035  0.4727  1.4340
  173SOPE  H12Y19684   4.007   0.828   9.178  0.4806  1.0364  0.4851
  173SOPE  C31319685   4.010   0.806   8.962  0.6561  0.2265  0.3055
  173SOPE  H13X19686   4.081   0.797   8.876 -1.1760 -5.2540 -1.0440
  173SOPE  H13Y19687   3.932   0.883   8.946  0.8371  0.4029  0.2587
  173SOPE  C31419688   3.926   0.679   8.979 -0.4890  0.4311  0.0235
  173SOPE  H14X19689   3.867   0.683   9.072  0.8784 -2.4789  1.1471
  173SOPE  H14Y19690   3.991   0.588   8.977 -1.4591 -0.2691 -1.0627
  173SOPE  C31519691   3.823   0.667   8.865 -0.4490 -0.3221  0.1393
  173SOPE  H15X19692   3.785   0.767   8.838  0.3988 -0.3137 -1.0779
  173SOPE  H15Y19693   3.749   0.591   8.898 -0.3377  0.4126  2.2163
  173SOPE  C31619694   3.905   0.628   8.737 -0.4276  0.7212 -0.4118
  173SOPE  H16X19695   3.951   0.537   8.780  1.3758  2.7294  2.3397
  173SOPE  H16Y19696   3.988   0.702   8.734 -1.4870  2.0674  1.0835
  173SOPE  C31719697   3.825   0.607   8.612  0.1023 -0.1786 -0.0370
  173SOPE  H17X19698   3.782   0.702   8.574 -0.0043 -0.0129  0.4795
  173SOPE  H17Y19699   3.737   0.546   8.640 -0.0605  0.5007  1.0037
  173SOPE  C31819700   3.904   0.529   8.504  0.7303 -0.4241  0.4485
  173SOPE  H18X19701   3.986   0.596   8.468 -0.8463  0.7805 -1.0984
  173SOPE  H18Y19702   3.836   0.506   8.420 -1.0932 -0.2807  1.8171
  173SOPE  H18Z19703   3.950   0.438   8.547  0.6246 -1.2299 -1.0894
  174SOPE     N19704   4.256   6.111  10.499 -0.4321 -0.5194  0.3290
  174SOPE   HN119705   4.313   6.042  10.444  0.2554  0.3825 -0.1148
  174SOPE   HN219706   4.168   6.061  10.522 -0.6401 -0.1888  0.2386
  174SOPE   HN319707   4.239   6.193  10.437  1.4865 -0.2277  0.1149
  174SOPE   C1219708   4.333   6.131  10.629  0.6022 -0.5256  0.4017
  174SOPE  H12A19709   4.355   6.032  10.673  0.0706 -0.2789  1.2639
  174SOPE  H12B19710   4.267   6.179  10.705  2.2180  1.3690  0.6876
  174SOPE   C1119711   4.461   6.210  10.617  0.0547 -0.1345  0.1069
  174SOPE  H11A19712   4.537   6.144  10.569  0.9729 -0.2191  1.6098
  174SOPE  H11B19713   4.506   6.233  10.716  1.5191 -1.5582 -0.1840
  174SOPE     P19714   4.399   6.466  10.599 -0.2962  0.3201  0.0677
  174SOPE   O1319715   4.506   6.527  10.680 -0.7083 -0.1618 -0.5031
  174SOPE   O1419716   4.266   6.443  10.670 -0.7142  0.0412 -0.3338
  174SOPE   O1219717   4.452   6.331  10.535 -0.8088  0.1960 -0.6477
  174SOPE   O1119718   4.367   6.554  10.471  0.1637  0.4003 -0.3103
  174SOPE    C119719   4.452   6.568  10.357 -0.0869 -0.0817 -0.7362
  174SOPE    HA19720   4.393   6.566  10.262 -0.8578  1.2175 -0.3188
  174SOPE    HB19721   4.540   6.501  10.357 -0.0532 -0.0557 -1.5885
  174SOPE    C219722   4.517   6.711  10.362  0.2627 -0.4334  0.6006
  174SOPE    HS19723   4.506   6.751  10.466 -2.5738  0.3193  0.0915
  174SOPE   O2119724   4.453   6.788  10.260  0.1177 -0.5228 -0.2740
  174SOPE   C2119725   4.460   6.919  10.280  0.0886 -0.4153 -0.2761
  174SOPE   O2219726   4.502   6.980  10.376 -0.5795  0.5045 -0.3870
  174SOPE   C2219727   4.403   6.989  10.157 -0.1925  0.4883 -0.4276
  174SOPE   H2R19728   4.305   7.033  10.184 -0.2247  0.4629 -0.5026
  174SOPE   H2S19729   4.376   6.909  10.084 -1.0849 -0.4570  0.8968
  174SOPE    C319730   4.670   6.696  10.344 -0.4953 -0.4042  0.0046
  174SOPE    HX19731   4.704   6.620  10.418 -1.3874  0.3359  1.2063
  174SOPE    HY19732   4.723   6.792  10.364 -0.3324 -0.4775 -0.0689
  174SOPE   O3119733   4.713   6.644  10.216 -0.0280  0.2382  0.3635
  174SOPE   C3119734   4.756   6.729  10.120 -0.5740  0.2015 -0.7804
  174SOPE   O3219735   4.746   6.849  10.128 -0.0812  0.2539  0.2431
  174SOPE   C3219736   4.828   6.652  10.010  0.2740  0.1767  0.4624
  174SOPE   H2X19737   4.750   6.595   9.955 -0.2648  1.1426  0.2045
  174SOPE   H2Y19738   4.887   6.577  10.067  0.5927  0.5126  0.5715
  174SOPE   C2319739   4.507   7.089  10.098 -0.1104 -0.0345  0.1535
  174SOPE   H3R19740   4.597   7.035  10.063  0.2376  0.3986  0.3612
  174SOPE   H3S19741   4.545   7.158  10.177 -0.4634 -1.0359  1.2188
  174SOPE   C2419742   4.440   7.159   9.972  0.2189  0.8194 -0.1941
  174SOPE   H4R19743   4.407   7.072   9.910  1.4132  0.5584 -0.4917
  174SOPE   H4S19744   4.366   7.232  10.009  1.6633  1.1644  2.2158
  174SOPE   C2519745   4.540   7.237   9.886  0.7144  0.3466 -0.3378
  174SOPE   H5R19746   4.477   7.309   9.830  0.2084 -1.0187 -1.5816
  174SOPE   H5S19747   4.604   7.297   9.954  0.2018 -0.1602  0.6161
  174SOPE   C2619748   4.626   7.158   9.795 -0.2225  0.6219 -0.1977
  174SOPE   H6R19749   4.716   7.224   9.787 -0.4633  0.8353 -1.2724
  174SOPE   H6S19750   4.653   7.060   9.840  1.6322  0.5031 -1.4361
  174SOPE   C2719751   4.560   7.130   9.657 -0.5203 -0.9107 -0.3923
  174SOPE   H7R19752   4.469   7.071   9.684 -1.0285  0.1609  0.2781
  174SOPE   H7S19753   4.516   7.227   9.627  1.2495  0.3619  0.9416
  174SOPE   C2819754   4.656   7.068   9.558 -0.1570  0.4922  0.5110
  174SOPE   H8R19755   4.704   6.976   9.598 -0.3602  0.0100 -0.3202
  174SOPE   H8S19756   4.599   7.031   9.471  0.5021 -1.1235  0.7300
  174SOPE   C2919757   4.759   7.167   9.532  0.0370 -0.6558  0.7060
  174SOPE   H9119758   4.829   7.187   9.614 -1.2475  1.6179  1.3535
  174SOPE  C21019759   4.768   7.253   9.427 -0.5342 -0.6386 -0.5302
  174SOPE  H10119760   4.851   7.322   9.409 -0.7999  0.3752  1.8094
  174SOPE  C21119761   4.675   7.254   9.301 -0.7506 -0.4846 -0.3469
  174SOPE  H11R19762   4.649   7.355   9.264  0.1641 -0.7338 -1.7283
  174SOPE  H11S19763   4.576   7.208   9.321 -0.9135 -0.6168 -1.4144
  174SOPE  C21219764   4.749   7.172   9.186  0.2576 -0.1684  0.3471
  174SOPE  H12R19765   4.675   7.165   9.104  0.4812  0.9577  0.0296
  174SOPE  H12S19766   4.772   7.071   9.226 -3.2332 -0.8585  0.9772
  174SOPE  C21319767   4.879   7.239   9.128  0.3925  0.2209  0.1553
  174SOPE  H13R19768   4.912   7.180   9.040  1.2166  1.1184 -0.1620
  174SOPE  H13S19769   4.968   7.230   9.194  1.0296 -1.5536 -0.8664
  174SOPE  C21419770   4.859   7.388   9.101 -0.7036  0.4958  0.9650
  174SOPE  H14R19771   4.842   7.443   9.196 -2.1443  1.6267  0.0793
  174SOPE  H14S19772   4.778   7.388   9.026 -0.2200  1.0751  0.4349
  174SOPE  C21519773   4.989   7.452   9.047 -0.5441 -0.1181  0.4480
  174SOPE  H15R19774   5.046   7.378   8.987  0.3551  0.7154  0.2667
  174SOPE  H15S19775   5.059   7.475   9.130  1.6260 -2.0465 -0.7279
  174SOPE  C21619776   4.961   7.574   8.960  0.3168 -0.4748 -0.1456
  174SOPE  H16R19777   4.889   7.631   9.024 -1.9575 -3.4854  0.1877
  174SOPE  H16S19778   4.912   7.539   8.866 -2.3166  1.3096  0.4311
  174SOPE  C21719779   5.083   7.653   8.923 -0.5151  0.5597 -0.1463
  174SOPE  H17R19780   5.139   7.594   8.848  0.6434 -0.7438  1.6345
  174SOPE  H17S19781   5.150   7.667   9.011 -0.9050  0.1710  0.2206
  174SOPE  C21819782   5.063   7.791   8.860 -0.5427 -0.7813  0.0594
  174SOPE  H18R19783   4.990   7.789   8.777  1.1641  0.2719 -1.5365
  174SOPE  H18S19784   5.162   7.830   8.828 -0.3706 -2.0340 -1.0283
  174SOPE  H18T19785   5.024   7.856   8.941 -1.1859 -2.0401  0.7998
  174SOPE   C3319786   4.917   6.744   9.919  0.2636 -0.4377 -0.4741
  174SOPE   H3X19787   5.004   6.769   9.983 -1.0585  0.8554  0.8974
  174SOPE   H3Y19788   4.864   6.839   9.892 -0.4553  0.4065  3.3831
  174SOPE   C3419789   4.944   6.661   9.794 -0.6912 -0.0684  0.4559
  174SOPE   H4X19790   4.845   6.626   9.757 -0.8184  0.9358 -0.1973
  174SOPE   H4Y19791   5.000   6.568   9.821 -1.8402 -0.5100  1.4073
  174SOPE   C3519792   5.031   6.738   9.695  0.4506 -0.3217 -0.6393
  174SOPE   H5X19793   5.135   6.708   9.720  0.1166 -0.0716  1.1556
  174SOPE   H5Y19794   5.017   6.846   9.712 -1.0959 -0.3311 -1.6449
  174SOPE   C3619795   5.005   6.702   9.545  0.3396  0.0588  0.0541
  174SOPE   H6X19796   5.016   6.594   9.521 -2.7586 -0.5239  0.9164
  174SOPE   H6Y19797   5.084   6.759   9.491  0.1453  1.7374  1.4538
  174SOPE   C3719798   4.873   6.750   9.494  0.0471  0.1397  0.1951
  174SOPE   H7X19799   4.881   6.859   9.473  0.6525 -0.2913 -2.0704
  174SOPE   H7Y19800   4.794   6.731   9.570 -1.4838 -0.1824 -1.4013
  174SOPE   C3819801   4.820   6.691   9.357 -0.1619 -0.0761  0.6341
  174SOPE   H8X19802   4.747   6.608   9.367  0.7414 -0.8845  0.6835
  174SOPE   H8Y19803   4.911   6.651   9.307 -1.1297 -1.5080 -0.0573
  174SOPE   C3919804   4.771   6.799   9.257  0.4304  0.3171 -0.9539
  174SOPE   H9X19805   4.853   6.874   9.270  1.0877 -0.5595  0.1809
  174SOPE   H9Y19806   4.682   6.837   9.311 -0.9841 -2.8557 -0.8500
  174SOPE  C31019807   4.734   6.760   9.113  0.0133 -0.3868 -0.6979
  174SOPE  H10X19808   4.638   6.705   9.121  0.6177 -1.6237 -1.7020
  174SOPE  H10Y19809   4.819   6.701   9.071 -1.8364 -1.9423 -2.4255
  174SOPE  C31119810   4.717   6.877   9.014 -0.8851 -0.2257  0.0049
  174SOPE  H11X19811   4.797   6.954   9.023 -1.7595  0.7242 -0.1493
  174SOPE  H11Y19812   4.629   6.936   9.047 -1.4567 -1.1518  0.1681
  174SOPE  C31219813   4.708   6.834   8.869  0.4496 -0.0035 -0.0547
  174SOPE  H12X19814   4.620   6.768   8.859  0.9304 -0.7518  0.5536
  174SOPE  H12Y19815   4.792   6.768   8.840 -1.0368 -1.9742 -0.0386
  174SOPE  C31319816   4.713   6.948   8.765  0.1635 -0.7217 -0.0433
  174SOPE  H13X19817   4.819   6.977   8.745  0.6433 -3.2762 -1.5830
  174SOPE  H13Y19818   4.657   7.036   8.803  0.1350  0.2755 -2.2513
  174SOPE  C31419819   4.635   6.903   8.646 -0.5759 -0.0762  0.0274
  174SOPE  H14X19820   4.574   6.988   8.608  0.8650  2.3799  2.7818
  174SOPE  H14Y19821   4.574   6.813   8.670  2.6872 -2.2981  0.7107
  174SOPE  C31519822   4.731   6.853   8.533 -0.4516 -0.4178  0.3174
  174SOPE  H15X19823   4.777   6.761   8.575  0.1128 -0.0200  0.5773
  174SOPE  H15Y19824   4.802   6.932   8.500 -0.7654  0.3027  1.2958
  174SOPE  C31619825   4.662   6.801   8.405  0.4145 -0.0106  0.9543
  174SOPE  H16X19826   4.728   6.803   8.316 -0.3637  1.7089  0.3862
  174SOPE  H16Y19827   4.574   6.865   8.383  1.0055  0.6269  0.3770
  174SOPE  C31719828   4.613   6.649   8.410  0.8406  0.3931  0.2183
  174SOPE  H17X19829   4.591   6.628   8.517 -0.4524 -0.5802 -0.2093
  174SOPE  H17Y19830   4.693   6.574   8.392  2.8239  1.2775  4.2228
  174SOPE  C31819831   4.484   6.619   8.327  0.0624  0.7873 -0.0962
  174SOPE  H18X19832   4.415   6.700   8.359  1.5444  2.8448 -1.8431
  174SOPE  H18Y19833   4.455   6.514   8.350  2.4330  0.5655  2.4968
  174SOPE  H18Z19834   4.499   6.625   8.217 -0.3110  2.8963 -0.0611
  175SOPE     N19835   0.413   2.020  10.574 -0.3296 -0.2042  0.1638
  175SOPE   HN119836   0.395   2.037  10.675  0.2633 -0.6059  0.3462
  175SOPE   HN219837   0.499   1.961  10.576 -1.9107 -2.6882 -0.4093
  175SOPE   HN319838   0.439   2.105  10.520 -1.1194 -1.5432 -2.5116
  175SOPE   C1219839   0.302   1.935  10.503  0.0724 -0.1774 -0.2815
  175SOPE  H12A19840   0.227   2.002  10.456 -0.2213 -0.8694 -0.8279
  175SOPE  H12B19841   0.245   1.873  10.576 -1.5987  0.4167 -1.0323
  175SOPE   C1119842   0.374   1.849  10.390  0.0963  0.2039 -1.0287
  175SOPE  H11A19843   0.440   1.915  10.330 -0.5005  1.6813 -0.1188
  175SOPE  H11B19844   0.301   1.807  10.318 -1.0618 -0.4797  0.4926
  175SOPE     P19845   0.596   1.739  10.486 -0.1309 -0.0026  0.0531
  175SOPE   O1319846   0.628   1.616  10.556  0.0324  0.3444 -0.9182
  175SOPE   O1419847   0.627   1.858  10.562  0.2320 -0.2809  0.1417
  175SOPE   O1219848   0.442   1.739  10.448  0.6211  0.2369 -0.3198
  175SOPE   O1119849   0.669   1.752  10.349 -0.5296 -0.2048  0.1252
  175SOPE    C119850   0.663   1.644  10.250 -0.0700 -0.5900 -0.5848
  175SOPE    HA19851   0.608   1.683  10.161  0.1255 -0.0471 -0.4702
  175SOPE    HB19852   0.618   1.551  10.291  0.2349 -0.1101  0.9034
  175SOPE    C219853   0.809   1.599  10.215  0.8293  0.1341  1.1411
  175SOPE    HS19854   0.832   1.548  10.311  0.5602 -1.4647  0.3868
  175SOPE   O2119855   0.887   1.718  10.181  0.2261  0.4836 -0.0863
  175SOPE   C2119856   1.013   1.698  10.230  0.3202  0.1968 -0.4279
  175SOPE   O2219857   1.038   1.637  10.336 -0.3526  0.2215  0.1068
  175SOPE   C2219858   1.115   1.774  10.144 -0.2463  0.1802 -0.4045
  175SOPE   H2R19859   1.211   1.734  10.184 -0.9962 -0.1405  1.1628
  175SOPE   H2S19860   1.088   1.881  10.153 -1.7705  0.1759 -3.6751
  175SOPE    C319861   0.807   1.484  10.102  0.0635  0.2125 -0.3254
  175SOPE    HX19862   0.749   1.391  10.123  0.6976 -0.1069  0.0501
  175SOPE    HY19863   0.912   1.449  10.092 -0.3207 -0.4751 -2.5746
  175SOPE   O3119864   0.757   1.526   9.975  0.3662 -0.3657  0.1252
  175SOPE   C3119865   0.839   1.501   9.877  0.2183  0.3107 -0.4100
  175SOPE   O3219866   0.957   1.463   9.884  0.4111  0.4571  0.1091
  175SOPE   C3219867   0.763   1.523   9.748  0.2325  0.8699 -0.9808
  175SOPE   H2X19868   0.725   1.627   9.741 -1.2509  0.6126  1.8190
  175SOPE   H2Y19869   0.671   1.460   9.754 -1.6098  3.4540 -0.3310
  175SOPE   C2319870   1.108   1.727   9.994 -0.4859  0.4139 -0.0177
  175SOPE   H3R19871   1.011   1.766   9.957  0.0658  0.4740 -1.4937
  175SOPE   H3S19872   1.108   1.616   9.990  2.5439  0.3188 -0.2752
  175SOPE   C2419873   1.217   1.787   9.907 -0.5927 -0.3577 -0.0781
  175SOPE   H4R19874   1.187   1.894   9.915 -0.1313 -0.3195  1.4241
  175SOPE   H4S19875   1.318   1.774   9.950 -1.0617 -1.0077  0.8614
  175SOPE   C2519876   1.212   1.733   9.756 -0.2661 -0.4848 -0.3738
  175SOPE   H5R19877   1.251   1.630   9.772  1.6739 -0.1757 -2.4784
  175SOPE   H5S19878   1.110   1.720   9.714  0.3897 -0.6609 -1.9913
  175SOPE   C2619879   1.308   1.804   9.668 -0.6082  0.0210 -0.1745
  175SOPE   H6R19880   1.301   1.914   9.677 -1.6237 -0.0809  0.3894
  175SOPE   H6S19881   1.410   1.782   9.706 -0.1220 -1.6086 -2.2245
  175SOPE   C2719882   1.307   1.756   9.521 -0.4493  0.0890 -0.0741
  175SOPE   H7R19883   1.394   1.787   9.459  0.2044 -0.5444  0.5015
  175SOPE   H7S19884   1.304   1.645   9.517 -1.1083  0.1435 -1.5949
  175SOPE   C2819885   1.179   1.804   9.448  0.0315 -0.0741  0.4317
  175SOPE   H8R19886   1.131   1.726   9.384 -1.1808 -1.0270  2.4195
  175SOPE   H8S19887   1.097   1.815   9.522 -1.6383 -0.1700 -1.3222
  175SOPE   C2919888   1.198   1.937   9.378 -0.5140  0.6571 -0.0978
  175SOPE   H9119889   1.238   2.019   9.440 -0.4005  1.8592 -1.6853
  175SOPE  C21019890   1.188   1.950   9.246  0.6803  0.4298  0.0542
  175SOPE  H10119891   1.200   2.047   9.196 -1.3696  0.9678  0.5175
  175SOPE  C21119892   1.161   1.839   9.147  0.4199  0.1775 -0.3226
  175SOPE  H11R19893   1.054   1.816   9.132 -0.4458  0.3012  4.2098
  175SOPE  H11S19894   1.206   1.745   9.185 -1.5413 -0.4497  0.5637
  175SOPE  C21219895   1.236   1.877   9.018 -0.4262  0.0417 -0.7484
  175SOPE  H12R19896   1.341   1.900   9.046 -1.5409  3.0819  1.5537
  175SOPE  H12S19897   1.188   1.966   8.972 -2.9652 -0.5575  0.5640
  175SOPE  C21319898   1.248   1.750   8.927 -0.1037  0.2163 -0.0841
  175SOPE  H13R19899   1.141   1.726   8.910 -0.0570  0.5780 -0.9983
  175SOPE  H13S19900   1.308   1.675   8.981  1.3631  3.5345  3.3516
  175SOPE  C21419901   1.304   1.773   8.785 -0.7347 -0.5456  0.0926
  175SOPE  H14R19902   1.414   1.781   8.799 -0.7335 -0.4526  0.0348
  175SOPE  H14S19903   1.281   1.875   8.747  1.2215 -0.8721 -2.2219
  175SOPE  C21519904   1.265   1.666   8.686 -0.3668  0.5558  0.2780
  175SOPE  H15R19905   1.154   1.670   8.688 -0.3348  1.8584  0.5013
  175SOPE  H15S19906   1.297   1.565   8.718 -1.7573  0.2422  0.7914
  175SOPE  C21619907   1.322   1.697   8.546  0.2182 -0.0044 -0.4875
  175SOPE  H16R19908   1.301   1.802   8.516 -1.2789 -0.3710 -0.7817
  175SOPE  H16S19909   1.274   1.631   8.471 -0.4498  1.1148 -1.0830
  175SOPE  C21719910   1.472   1.670   8.526 -0.1120 -0.2669 -0.9825
  175SOPE  H17R19911   1.485   1.560   8.520 -2.0350 -0.4762 -2.0290
  175SOPE  H17S19912   1.516   1.707   8.621  0.7014 -1.0639 -1.0354
  175SOPE  C21819913   1.521   1.731   8.394 -0.1075  0.3608  0.9982
  175SOPE  H18R19914   1.631   1.718   8.379 -0.3154  0.6244 -1.0356
  175SOPE  H18S19915   1.509   1.841   8.399 -2.2639  0.1376  1.5705
  175SOPE  H18T19916   1.468   1.693   8.305  1.9237  1.0626 -0.5965
  175SOPE   C3319917   0.840   1.500   9.617  0.4326 -0.5808  0.1117
  175SOPE   H3X19918   0.894   1.403   9.611  1.9300  0.2531 -0.3620
  175SOPE   H3Y19919   0.929   1.566   9.617 -0.6120  0.9910 -2.4995
  175SOPE   C3419920   0.753   1.517   9.486 -0.0610 -0.3988 -0.0090
  175SOPE   H4X19921   0.816   1.503   9.396 -1.4771  0.3697 -1.1652
  175SOPE   H4Y19922   0.719   1.623   9.492 -0.4395 -0.5750  1.0974
  175SOPE   C3519923   0.626   1.426   9.469  0.3206  0.4972 -0.3290
  175SOPE   H5X19924   0.560   1.467   9.548 -0.8500 -0.0905 -0.9726
  175SOPE   H5Y19925   0.657   1.321   9.484  1.4983  0.7720 -0.7384
  175SOPE   C3619926   0.562   1.439   9.332  0.2511  0.4335 -0.0059
  175SOPE   H6X19927   0.597   1.355   9.267 -1.4845 -2.0673  2.1088
  175SOPE   H6Y19928   0.595   1.530   9.277 -1.9336 -0.6014 -3.3903
  175SOPE   C3719929   0.408   1.438   9.332  0.2227 -0.0275  0.2762
  175SOPE   H7X19930   0.370   1.497   9.418  0.2194 -0.5218  0.6173
  175SOPE   H7Y19931   0.372   1.342   9.373 -1.6343  0.9202  0.9504
  175SOPE   C3819932   0.336   1.476   9.207  0.0808 -0.2431 -0.4854
  175SOPE   H8X19933   0.327   1.586   9.192  0.1423 -0.0076  1.0695
  175SOPE   H8Y19934   0.230   1.444   9.219 -1.3942  4.3951  1.2751
  175SOPE   C3919935   0.408   1.419   9.087  0.6461 -0.2504  0.7762
  175SOPE   H9X19936   0.421   1.312   9.113  1.7517  0.4076  3.1550
  175SOPE   H9Y19937   0.507   1.468   9.084  0.4168  0.2658  1.4442
  175SOPE  C31019938   0.334   1.452   8.957  0.0564 -0.4560 -0.2541
  175SOPE  H10X19939   0.344   1.563   8.952  0.0538 -0.3331  1.7772
  175SOPE  H10Y19940   0.228   1.423   8.970  0.2050 -0.9861 -0.2131
  175SOPE  C31119941   0.395   1.388   8.831 -0.5706 -0.0829  0.6214
  175SOPE  H11X19942   0.393   1.277   8.839  3.6047 -0.2642  1.3469
  175SOPE  H11Y19943   0.502   1.415   8.817  0.0276 -1.2102  2.5854
  175SOPE  C31219944   0.317   1.428   8.702  0.0248 -0.3682  0.2652
  175SOPE  H12X19945   0.365   1.518   8.659 -0.7642 -0.5908 -1.1370
  175SOPE  H12Y19946   0.218   1.469   8.732 -0.9884 -2.1229 -0.5332
  175SOPE  C31319947   0.315   1.312   8.601 -0.7905 -0.5410  0.1485
  175SOPE  H13X19948   0.249   1.228   8.632  1.8634 -3.0649 -0.6749
  175SOPE  H13Y19949   0.417   1.269   8.604 -0.0501  1.0904 -0.2866
  175SOPE  C31419950   0.280   1.365   8.462  0.4782 -0.1390  0.1318
  175SOPE  H14X19951   0.196   1.434   8.484  0.0442 -1.2759  2.3585
  175SOPE  H14Y19952   0.275   1.276   8.395 -1.3197  0.2670 -0.3181
  175SOPE  C31519953   0.396   1.449   8.403 -0.0396 -0.4671 -0.0511
  175SOPE  H15X19954   0.489   1.405   8.446  0.9456  0.8576 -0.7679
  175SOPE  H15Y19955   0.382   1.557   8.425  2.3070  0.5361 -2.9839
  175SOPE  C31619956   0.414   1.416   8.251 -0.7983  0.2977 -0.2505
  175SOPE  H16X19957   0.320   1.428   8.193  1.0974 -0.5970 -3.7511
  175SOPE  H16Y19958   0.450   1.311   8.251  0.1083  0.6011 -0.3550
  175SOPE  C31719959   0.517   1.502   8.175 -0.5437  0.3746 -0.4144
  175SOPE  H17X19960   0.610   1.479   8.230 -1.4875  1.7438  1.9325
  175SOPE  H17Y19961   0.502   1.612   8.190  3.8980  1.4243 -2.0759
  175SOPE  C31819962   0.524   1.472   8.021  0.2547 -0.6807  0.9888
  175SOPE  H18X19963   0.418   1.470   7.988  1.0072 -1.0886 -1.6297
  175SOPE  H18Y19964   0.553   1.366   8.008  3.7091  0.0148  1.9825
  175SOPE  H18Z19965   0.577   1.547   7.959 -3.7652  0.4214 -1.5137
  176SOPE     N19966   0.649   1.238  10.999  0.1512 -0.0467  0.0985
  176SOPE   HN119967   0.684   1.154  11.049  0.3098  0.8935  1.6380
  176SOPE   HN219968   0.729   1.287  10.952 -0.2897  1.0793  0.4737
  176SOPE   HN319969   0.601   1.301  11.067 -2.4379 -1.2807 -0.4987
  176SOPE   C1219970   0.536   1.207  10.906 -0.4124 -0.8237  0.2725
  176SOPE  H12A19971   0.484   1.305  10.894 -1.1779 -1.0774  1.3513
  176SOPE  H12B19972   0.458   1.141  10.950 -2.0693  0.1182 -1.0899
  176SOPE   C1119973   0.579   1.135  10.775 -0.1516  0.6907  0.2625
  176SOPE  H11A19974   0.500   1.137  10.698  0.8545  0.9081 -0.7837
  176SOPE  H11B19975   0.603   1.028  10.794  0.2244 -0.1204 -3.8400
  176SOPE     P19976   0.775   1.137  10.597  0.1892 -0.0770  0.0814
  176SOPE   O1319977   0.801   0.996  10.635 -0.1649  0.9750  0.3633
  176SOPE   O1419978   0.875   1.232  10.553 -0.6329 -0.1129 -0.1140
  176SOPE   O1219979   0.696   1.199  10.719 -0.4085 -0.3191 -0.4592
  176SOPE   O1119980   0.661   1.133  10.486 -0.2481  0.4974 -0.8861
  176SOPE    C119981   0.594   1.255  10.454 -0.1897  0.1579  0.5612
  176SOPE    HA19982   0.667   1.331  10.417 -1.7039  0.1335 -2.7888
  176SOPE    HB19983   0.535   1.301  10.536 -2.4982  2.2118 -2.0757
  176SOPE    C219984   0.489   1.225  10.336  0.4284 -1.3666 -0.2854
  176SOPE    HS19985   0.440   1.137  10.384 -1.1755 -0.0325  0.6485
  176SOPE   O2119986   0.556   1.204  10.207  0.0619  0.6134  0.1483
  176SOPE   C2119987   0.497   1.109  10.135  0.3506 -0.3862  0.4020
  176SOPE   O2219988   0.402   1.041  10.171  0.2032  0.2593 -0.6034
  176SOPE   C2219989   0.544   1.129   9.986 -0.6027 -0.0541 -0.0386
  176SOPE   H2R19990   0.641   1.076   9.976 -1.1772 -1.1428 -0.1194
  176SOPE   H2S19991   0.562   1.233   9.954 -1.7310 -0.0267 -0.6649
  176SOPE    C319992   0.380   1.338  10.330 -0.3018  0.2047 -0.4774
  176SOPE    HX19993   0.436   1.433  10.314  0.5212 -0.3030 -0.7183
  176SOPE    HY19994   0.326   1.352  10.425 -0.0433  0.2113 -0.3286
  176SOPE   O3119995   0.303   1.318  10.211  0.2395  0.1693 -0.1680
  176SOPE   C3119996   0.172   1.288  10.232 -0.1169 -0.3590  0.0138
  176SOPE   O3219997   0.122   1.260  10.338 -0.0366  0.1740  0.0670
  176SOPE   C3219998   0.110   1.278  10.091  0.0310 -1.2948 -0.3524
  176SOPE   H2X19999   0.184   1.226  10.027  0.8890 -1.0157  0.3952
  176SOPE   H2Y20000   0.087   1.380  10.052 -1.1291 -1.9544 -1.4846
  176SOPE   C2320001   0.440   1.061   9.891 -0.9270 -0.2614  0.1064
  176SOPE   H3R20002   0.338   1.097   9.915 -0.6131  0.0016  1.1022
  176SOPE   H3S20003   0.442   0.950   9.901  2.4338 -0.2331  0.7586
  176SOPE   C2420004   0.467   1.093   9.743 -0.0572  0.1597 -0.9240
  176SOPE   H4R20005   0.430   1.198   9.745 -0.4098  0.1148  2.8816
  176SOPE   H4S20006   0.576   1.089   9.719 -0.0894 -3.4166 -0.9771
  176SOPE   C2520007   0.396   0.995   9.655  0.5146  0.3099  0.2281
  176SOPE   H5R20008   0.459   0.904   9.659 -0.2240 -0.3148 -1.3233
  176SOPE   H5S20009   0.291   0.976   9.686 -0.6951  3.2224 -1.6287
  176SOPE   C2620010   0.379   1.022   9.506 -0.0977  0.2470  0.2384
  176SOPE   H6R20011   0.319   0.936   9.470 -1.5606  0.1926  2.6380
  176SOPE   H6S20012   0.340   1.126   9.512 -3.2704 -0.9339  2.0989
  176SOPE   C2720013   0.507   1.027   9.415 -1.3695 -0.4180  0.1404
  176SOPE   H7R20014   0.557   1.119   9.453  1.6452 -0.4507 -3.1704
  176SOPE   H7S20015   0.573   0.944   9.449  1.1181  1.4058  0.0560
  176SOPE   C2820016   0.494   1.028   9.262 -0.3382 -0.2915  0.3986
  176SOPE   H8R20017   0.436   1.121   9.241 -0.3454 -0.0196  1.5418
  176SOPE   H8S20018   0.601   1.042   9.234 -0.2593 -1.5371  0.0323
  176SOPE   C2920019   0.463   0.899   9.192 -0.3670  0.1329  0.1545
  176SOPE   H9120020   0.483   0.804   9.245 -0.8903  0.1411  0.3691
  176SOPE  C21020021   0.424   0.883   9.064  0.3037  0.2174 -0.2588
  176SOPE  H10120022   0.409   0.779   9.033 -0.4799 -0.2250  1.5090
  176SOPE  C21120023   0.399   0.989   8.956 -0.0809  0.1716 -0.6081
  176SOPE  H11R20024   0.450   1.087   8.975  0.2646 -0.0158 -0.5587
  176SOPE  H11S20025   0.296   1.021   8.930  0.0475  1.2695  0.1553
  176SOPE  C21220026   0.445   0.941   8.816  0.8121 -0.1850  0.6960
  176SOPE  H12R20027   0.412   1.025   8.751 -1.5253  0.7464  2.8858
  176SOPE  H12S20028   0.376   0.858   8.789 -0.2093  0.6747  0.5980
  176SOPE  C21320029   0.594   0.917   8.803  0.1625 -0.5208 -0.1120
  176SOPE  H13R20030   0.622   0.855   8.890 -0.0838 -0.3018  0.1244
  176SOPE  H13S20031   0.637   1.018   8.822  0.4523 -0.8817  1.1951
  176SOPE  C21420032   0.644   0.859   8.671  0.2946 -0.3728  0.2645
  176SOPE  H14R20033   0.584   0.768   8.653  0.5438  0.0019 -3.3652
  176SOPE  H14S20034   0.749   0.823   8.678 -0.0895 -1.4638  0.5571
  176SOPE  C21520035   0.618   0.951   8.548  0.2757 -0.0752  0.5376
  176SOPE  H15R20036   0.516   0.993   8.536 -0.1094 -1.2003 -0.3008
  176SOPE  H15S20037   0.630   0.883   8.460  0.7651 -0.9374  1.2540
  176SOPE  C21620038   0.710   1.074   8.536 -0.4790  0.5991 -0.3278
  176SOPE  H16R20039   0.819   1.053   8.538 -0.8555 -2.5567 -3.1705
  176SOPE  H16S20040   0.690   1.126   8.632  1.5677  0.2039  0.3465
  176SOPE  C21720041   0.669   1.176   8.430 -0.3032  0.4483  0.2085
  176SOPE  H17R20042   0.698   1.274   8.473  0.6667  0.1108  0.3481
  176SOPE  H17S20043   0.559   1.186   8.418 -0.3267 -1.1226 -1.4098
  176SOPE  C21820044   0.725   1.154   8.297 -0.4795  0.6261  0.4724
  176SOPE  H18R20045   0.830   1.190   8.297 -0.4989  0.7216  1.2889
  176SOPE  H18S20046   0.665   1.214   8.226 -3.1870 -2.2547  0.1010
  176SOPE  H18T20047   0.732   1.046   8.273  1.3462  0.7557  0.2791
  176SOPE   C3320048  -0.021   1.202  10.070  0.1944  0.7847  0.3718
  176SOPE   H3X20049  -0.082   1.225  10.160 -0.3009 -2.0194  0.8456
  176SOPE   H3Y20050  -0.012   1.092  10.085  0.5627  0.7919  0.2184
  176SOPE   C3420051  -0.090   1.232   9.935  0.2042  0.3699  0.9245
  176SOPE   H4X20052  -0.120   1.335   9.907  2.1075  0.4537 -1.1351
  176SOPE   H4Y20053  -0.179   1.165   9.934  0.8161 -0.6402  3.8409
  176SOPE   C3520054   0.003   1.183   9.822 -0.3233 -0.5932 -0.5238
  176SOPE   H5X20055   0.011   1.073   9.840  0.1991 -0.5912 -0.7210
  176SOPE   H5Y20056   0.106   1.224   9.822 -0.0345 -1.0967 -3.5261
  176SOPE   C3620057  -0.060   1.214   9.689 -0.6527 -0.0328  0.2750
  176SOPE   H6X20058  -0.080   1.320   9.664 -1.5984 -0.5710 -1.3877
  176SOPE   H6Y20059  -0.157   1.160   9.679  0.0682 -1.5738  1.1469
  176SOPE   C3720060   0.027   1.173   9.570  0.0957  0.3825 -0.9983
  176SOPE   H7X20061   0.010   1.065   9.553 -0.2532  0.2498  0.1406
  176SOPE   H7Y20062   0.136   1.187   9.585  0.1888 -0.2525 -1.0771
  176SOPE   C3820063  -0.023   1.225   9.432 -0.9269 -0.0088 -0.2021
  176SOPE   H8X20064  -0.009   1.336   9.433  0.4119 -0.1655  0.2281
  176SOPE   H8Y20065  -0.132   1.206   9.437 -0.6360 -1.9684 -0.7783
  176SOPE   C3920066   0.057   1.172   9.316 -0.2554 -0.0975 -0.3703
  176SOPE   H9X20067   0.067   1.062   9.327 -1.4601 -0.1086  0.7681
  176SOPE   H9Y20068   0.161   1.211   9.313 -0.6816  1.1346  0.0394
  176SOPE  C31020069  -0.004   1.194   9.179  0.4663 -0.1667 -0.2129
  176SOPE  H10X20070  -0.023   1.303   9.173 -0.2775 -0.1765  1.3506
  176SOPE  H10Y20071  -0.105   1.147   9.176 -1.3375  3.1789  1.5658
  176SOPE  C31120072   0.077   1.129   9.072 -0.1253 -0.9493 -0.0525
  176SOPE  H11X20073   0.079   1.020   9.089 -2.2913 -1.0721 -0.3027
  176SOPE  H11Y20074   0.180   1.167   9.090 -1.0619  0.5053  2.7794
  176SOPE  C31220075   0.030   1.152   8.931  0.1921 -0.0528  0.0290
  176SOPE  H12X20076   0.107   1.168   8.853  0.8183 -0.4280  0.5653
  176SOPE  H12Y20077  -0.022   1.251   8.925 -0.8261 -0.4002  2.2146
  176SOPE  C31320078  -0.077   1.050   8.882  0.4932  0.1658 -0.4773
  176SOPE  H13X20079  -0.166   1.113   8.906  2.3614  2.9312 -0.3818
  176SOPE  H13Y20080  -0.075   0.954   8.938 -1.8869 -0.0928 -0.7329
  176SOPE  C31420081  -0.049   1.021   8.732 -0.1410  0.1719  0.4234
  176SOPE  H14X20082  -0.101   0.928   8.701  0.5921 -0.1944  0.2857
  176SOPE  H14Y20083   0.060   1.013   8.712 -0.4980  1.7994 -3.0604
  176SOPE  C31520084  -0.098   1.143   8.644  0.0581  0.0206  0.2896
  176SOPE  H15X20085  -0.064   1.238   8.691 -0.9151  1.9019 -2.5653
  176SOPE  H15Y20086  -0.208   1.149   8.647  0.0077  0.0224 -0.9994
  176SOPE  C31620087  -0.051   1.137   8.496 -0.3438 -0.3209  0.6068
  176SOPE  H16X20088   0.048   1.087   8.492  0.6365  1.5190  0.9707
  176SOPE  H16Y20089  -0.036   1.236   8.448  1.8401 -0.5956  0.6259
  176SOPE  C31720090  -0.154   1.066   8.403  0.4118  0.3981  0.2713
  176SOPE  H17X20091  -0.251   1.117   8.425  1.0776  1.6299  0.4198
  176SOPE  H17Y20092  -0.157   0.958   8.430 -0.0281  0.6712  1.3675
  176SOPE  C31820093  -0.125   1.071   8.251  0.0538 -0.3221 -0.2866
  176SOPE  H18X20094  -0.141   1.173   8.210 -0.2803 -0.0310  0.5542
  176SOPE  H18Y20095  -0.193   1.008   8.190  0.2164  0.0161 -0.8321
  176SOPE  H18Z20096  -0.019   1.044   8.231  0.5668  0.9366  0.5819
  177SOPE     N20097   5.215   5.512  10.876 -0.3950  0.2491  0.7128
  177SOPE   HN120098   5.117   5.530  10.905 -1.3920 -1.1269 -1.5833
  177SOPE   HN220099   5.253   5.609  10.876 -1.9012  0.8717  1.7089
  177SOPE   HN320100   5.221   5.497  10.773 -0.9756 -1.1013  0.8575
  177SOPE   C1220101   5.292   5.419  10.957 -0.9095  0.4597  0.2531
  177SOPE  H12A20102   5.251   5.316  10.944 -0.3397  0.1524  0.8858
  177SOPE  H12B20103   5.280   5.441  11.065  0.1951  1.2465  0.2316
  177SOPE   C1120104   5.443   5.418  10.918  0.7667 -1.0739 -0.2353
  177SOPE  H11A20105   5.449   5.389  10.811  1.3969  0.2260 -0.5735
  177SOPE  H11B20106   5.489   5.342  10.984 -1.7373 -0.5840  2.2602
  177SOPE     P20107   5.650   5.575  10.911  0.5195  0.1299  0.1848
  177SOPE   O1320108   5.745   5.486  10.984  0.3201 -0.0954  0.7662
  177SOPE   O1420109   5.676   5.722  10.918 -0.1082  0.8235  0.1660
  177SOPE   O1220110   5.502   5.546  10.955 -0.3226  0.6252  0.6258
  177SOPE   O1120111   5.654   5.540  10.759 -0.6246 -0.3521  0.1601
  177SOPE    C120112   5.558   5.597  10.671 -0.4196  0.3738  0.1435
  177SOPE    HA20113   5.551   5.708  10.677 -0.3580  0.4440 -0.9369
  177SOPE    HB20114   5.454   5.561  10.685 -0.4296 -0.8449 -2.5324
  177SOPE    C220115   5.594   5.565  10.517  1.2870  0.6496 -0.4358
  177SOPE    HS20116   5.643   5.465  10.516 -0.8577 -0.4567 -0.6271
  177SOPE   O2120117   5.680   5.672  10.477  0.3157 -0.4070  0.0293
  177SOPE   C2120118   5.771   5.635  10.387  0.2411  0.8450 -0.2431
  177SOPE   O2220119   5.791   5.524  10.346  0.3295  0.1515  0.1182
  177SOPE   C2220120   5.851   5.749  10.333  0.3355  0.6361  0.3752
  177SOPE   H2R20121   5.954   5.744  10.374  1.9674 -3.1649 -3.3589
  177SOPE   H2S20122   5.795   5.836  10.373 -0.2979 -0.1106  1.1309
  177SOPE    C320123   5.464   5.552  10.427 -0.2406 -0.3031  0.3733
  177SOPE    HX20124   5.413   5.650  10.439 -0.0201 -0.1980  0.4697
  177SOPE    HY20125   5.385   5.478  10.453  0.0713 -1.0601 -0.7580
  177SOPE   O3120126   5.497   5.532  10.290  0.0214  0.2707  0.2412
  177SOPE   C3120127   5.532   5.404  10.254 -0.1778  0.2722  0.4692
  177SOPE   O3220128   5.538   5.310  10.326  0.0497 -0.3950  0.0820
  177SOPE   C3220129   5.532   5.407  10.104  0.6390 -0.1985 -0.6647
  177SOPE   H2X20130   5.509   5.509  10.065  1.1763  0.4265  0.5947
  177SOPE   H2Y20131   5.449   5.340  10.074 -0.3326  0.0605  1.2927
  177SOPE   C2320132   5.870   5.747  10.177 -0.6464 -0.0092  0.4884
  177SOPE   H3R20133   5.928   5.656  10.152 -0.4599  0.3056 -0.2492
  177SOPE   H3S20134   5.930   5.837  10.154 -4.6997  2.9321  0.2792
  177SOPE   C2420135   5.734   5.758  10.111  0.1701 -0.6192  0.6624
  177SOPE   H4R20136   5.675   5.666  10.129 -0.6301 -0.5675 -1.3575
  177SOPE   H4S20137   5.678   5.843  10.156  0.4841  1.2776 -2.2457
  177SOPE   C2520138   5.751   5.786   9.958  0.0831 -0.1226  0.6506
  177SOPE   H5R20139   5.861   5.780   9.946 -0.0844 -1.9989 -0.4421
  177SOPE   H5S20140   5.722   5.696   9.900  1.4716 -0.2921  0.1842
  177SOPE   C2620141   5.700   5.930   9.923  0.0618  0.2688 -0.3419
  177SOPE   H6R20142   5.592   5.944   9.942 -0.0262  0.0377 -0.6563
  177SOPE   H6S20143   5.749   5.999   9.995 -0.1053 -0.1630  0.1920
  177SOPE   C2720144   5.719   5.987   9.780  0.1762  0.1956 -0.3659
  177SOPE   H7R20145   5.675   5.919   9.703  1.3597  0.4925 -1.3435
  177SOPE   H7S20146   5.660   6.081   9.786 -3.3862 -1.8316 -1.1583
  177SOPE   C2820147   5.866   6.003   9.735  0.5940  0.1068  0.0335
  177SOPE   H8R20148   5.925   6.046   9.819  0.1146  0.5241  0.1579
  177SOPE   H8S20149   5.898   5.900   9.708  1.3801  0.7819 -1.7734
  177SOPE   C2920150   5.881   6.095   9.616  0.1520 -0.0703 -1.0508
  177SOPE   H9120151   5.809   6.178   9.604 -1.1464 -1.2081 -1.3561
  177SOPE  C21020152   5.954   6.071   9.505 -0.4941 -0.0581  1.0216
  177SOPE  H10120153   5.947   6.144   9.423 -1.4089 -0.7191  0.4917
  177SOPE  C21120154   6.043   5.952   9.471 -0.4433  0.5117 -0.4125
  177SOPE  H11R20155   5.988   5.861   9.502 -1.7387  1.5569  0.4822
  177SOPE  H11S20156   6.142   5.945   9.520 -1.1666 -2.1908  0.8370
  177SOPE  C21220157   6.084   5.935   9.324  0.1706 -0.4128 -0.6761
  177SOPE  H12R20158   6.158   5.852   9.321  2.3514  1.4520 -0.9501
  177SOPE  H12S20159   6.141   6.025   9.292 -0.2618  0.4879  0.9907
  177SOPE  C21320160   5.973   5.909   9.222  0.1102 -0.0329  0.1347
  177SOPE  H13R20161   5.894   5.987   9.229 -2.0255 -2.0308 -0.4051
  177SOPE  H13S20162   5.919   5.815   9.243 -0.8657  0.3977 -0.3947
  177SOPE  C21420163   6.015   5.925   9.078  0.3636 -0.2381  0.0007
  177SOPE  H14R20164   6.097   5.853   9.059 -0.1810 -0.6609 -0.7833
  177SOPE  H14S20165   6.055   6.027   9.062  1.1992 -0.3368  1.3015
  177SOPE  C21520166   5.897   5.896   8.980  0.1969 -0.3287 -0.0861
  177SOPE  H15R20167   5.815   5.969   8.997  1.7351  1.7669 -1.0909
  177SOPE  H15S20168   5.854   5.801   9.019  2.1001 -1.0791  0.3143
  177SOPE  C21620169   5.934   5.889   8.831  0.3574 -0.2065 -0.4503
  177SOPE  H16R20170   6.026   5.830   8.814  0.6992 -0.6287  2.3190
  177SOPE  H16S20171   5.956   5.992   8.794  3.4911 -1.3237 -1.9820
  177SOPE  C21720172   5.828   5.811   8.755  0.4028 -0.0778 -0.0144
  177SOPE  H17R20173   5.725   5.845   8.779  0.7309 -0.5387  2.2478
  177SOPE  H17S20174   5.836   5.703   8.775  0.0936 -0.1216 -0.1188
  177SOPE  C21820175   5.839   5.841   8.605  0.2458  0.6495  0.3005
  177SOPE  H18R20176   5.757   5.797   8.544  0.4088  2.1069 -1.0485
  177SOPE  H18S20177   5.928   5.790   8.562 -0.4306 -0.3093  0.0239
  177SOPE  H18T20178   5.845   5.947   8.573 -0.9463  0.5135 -0.4376
  177SOPE   C3320179   5.659   5.361  10.039  0.3223 -0.3382 -0.5647
  177SOPE   H3X20180   5.689   5.265  10.085  2.3782  1.7479  2.8834
  177SOPE   H3Y20181   5.729   5.441  10.070 -1.2865 -0.0859  2.7711
  177SOPE   C3420182   5.653   5.355   9.882 -0.1965 -0.7115  0.3874
  177SOPE   H4X20183   5.614   5.458   9.868  1.2853 -0.0999  0.6191
  177SOPE   H4Y20184   5.587   5.270   9.855  2.6334 -2.7787 -0.4517
  177SOPE   C3520185   5.792   5.338   9.822  0.0969  0.0591  0.2795
  177SOPE   H5X20186   5.814   5.233   9.849 -1.1603  0.2755  2.4480
  177SOPE   H5Y20187   5.871   5.392   9.877  2.7800 -3.0341 -0.2378
  177SOPE   C3620188   5.805   5.368   9.676 -0.1556 -0.4958 -0.4423
  177SOPE   H6X20189   5.722   5.314   9.625  0.2619 -1.7865  0.2265
  177SOPE   H6Y20190   5.906   5.332   9.647  0.7922  0.3020  1.7062
  177SOPE   C3720191   5.802   5.517   9.654 -0.0189  0.2783 -0.6657
  177SOPE   H7X20192   5.730   5.566   9.724 -0.0987  1.0238 -1.2504
  177SOPE   H7Y20193   5.751   5.534   9.556  1.6495  3.5961 -1.1080
  177SOPE   C3820194   5.930   5.599   9.659 -0.0592 -0.4304  0.3520
  177SOPE   H8X20195   5.972   5.584   9.761  0.2885 -0.4147  0.2111
  177SOPE   H8Y20196   5.914   5.708   9.649 -2.4995 -0.9217 -2.4763
  177SOPE   C3920197   6.041   5.556   9.558  0.1579 -0.0881  0.1892
  177SOPE   H9X20198   6.084   5.456   9.581 -0.8965 -0.9441 -1.4265
  177SOPE   H9Y20199   6.125   5.628   9.572 -0.3085  0.9777 -2.1321
  177SOPE  C31020200   6.011   5.566   9.410 -0.0788 -0.6782 -0.0003
  177SOPE  H10X20201   5.988   5.669   9.376  0.3081 -0.5293  0.1894
  177SOPE  H10Y20202   5.920   5.504   9.393 -0.8801  0.1297  1.2372
  177SOPE  C31120203   6.129   5.516   9.330  0.0479  0.6729 -0.1218
  177SOPE  H11X20204   6.155   5.411   9.355 -1.9829 -0.0650 -0.9251
  177SOPE  H11Y20205   6.216   5.581   9.354 -0.3353  0.5930  1.6143
  177SOPE  C31220206   6.100   5.519   9.177  0.0678  0.4016 -0.6491
  177SOPE  H12X20207   6.192   5.492   9.120 -0.3520 -0.6867 -0.8378
  177SOPE  H12Y20208   6.062   5.618   9.141 -1.8102  0.4471  1.2932
  177SOPE  C31320209   5.986   5.422   9.137 -0.2783 -0.5019 -0.9151
  177SOPE  H13X20210   5.884   5.450   9.170  0.2381  0.1439  0.2316
  177SOPE  H13Y20211   6.012   5.325   9.185  0.9250 -0.4262 -1.3886
  177SOPE  C31420212   5.985   5.395   8.990 -0.4984  0.0676 -0.5115
  177SOPE  H14X20213   6.086   5.370   8.950 -0.3449 -0.1670  0.0218
  177SOPE  H14Y20214   5.948   5.490   8.946 -1.4361  0.7082  1.5387
  177SOPE  C31520215   5.891   5.284   8.957 -0.6486 -0.1567  0.0285
  177SOPE  H15X20216   5.790   5.292   9.002 -1.7751  0.9917 -2.4694
  177SOPE  H15Y20217   5.935   5.187   8.991  0.8639  1.1867  2.1237
  177SOPE  C31620218   5.860   5.291   8.805  0.1059 -0.5490 -0.6824
  177SOPE  H16X20219   5.960   5.301   8.759  1.1213  1.2715  1.6982
  177SOPE  H16Y20220   5.794   5.378   8.788 -0.0677  0.2870  3.2940
  177SOPE  C31720221   5.787   5.159   8.759  0.0877 -0.6159 -0.0439
  177SOPE  H17X20222   5.693   5.148   8.817 -1.7334 -1.7387 -2.9862
  177SOPE  H17Y20223   5.853   5.071   8.775  1.0725  0.0272 -0.4790
  177SOPE  C31820224   5.745   5.167   8.614 -0.3249 -0.3532 -0.4634
  177SOPE  H18X20225   5.837   5.194   8.557  1.9789  0.2396  3.2028
  177SOPE  H18Y20226   5.678   5.253   8.593 -0.7241 -1.0683 -2.3397
  177SOPE  H18Z20227   5.710   5.065   8.589  0.5261 -0.4441 -1.3561
  178SOPE     N20228   2.481   4.633  10.450 -1.2411  0.1827  0.5978
  178SOPE   HN120229   2.581   4.663  10.458 -2.0482  3.6582 -0.5724
  178SOPE   HN220230   2.413   4.712  10.455  0.5560  1.8165  0.5126
  178SOPE   HN320231   2.464   4.572  10.532  1.9388 -1.3855  0.2505
  178SOPE   C1220232   2.468   4.543  10.328 -0.6792  0.2307  0.0258
  178SOPE  H12A20233   2.515   4.588  10.239  0.0292  1.9423  1.2106
  178SOPE  H12B20234   2.360   4.546  10.300 -0.0216 -0.0007 -2.7148
  178SOPE   C1120235   2.528   4.405  10.345 -0.6367 -0.4786  0.4719
  178SOPE  H11A20236   2.519   4.361  10.244  2.3407  1.2823 -0.6984
  178SOPE  H11B20237   2.462   4.343  10.409  0.3886 -1.9780  0.1086
  178SOPE     P20238   2.734   4.328  10.497 -0.0979  0.1103  0.0596
  178SOPE   O1320239   2.650   4.212  10.525 -0.7013  0.7458 -1.0326
  178SOPE   O1420240   2.782   4.405  10.615  0.9074 -0.5467 -0.0880
  178SOPE   O1220241   2.660   4.422  10.390  0.4292 -0.4104 -0.4594
  178SOPE   O1120242   2.851   4.273  10.412  0.2890 -0.3269 -0.3270
  178SOPE    C120243   2.931   4.338  10.318  0.6743 -0.9149  0.7916
  178SOPE    HA20244   3.040   4.319  10.333  0.8030 -1.8794 -1.1033
  178SOPE    HB20245   2.910   4.447  10.322 -0.6051 -1.1229  0.1652
  178SOPE    C220246   2.905   4.287  10.166  0.0351  0.0277  0.2884
  178SOPE    HS20247   2.803   4.312  10.130  0.0457  0.6416  0.6631
  178SOPE   O2120248   2.929   4.146  10.165  0.4842  0.0825 -0.7530
  178SOPE   C2120249   2.886   4.075  10.065 -0.5977 -0.9605 -0.2152
  178SOPE   O2220250   2.811   4.113   9.976 -0.6527  0.7598 -0.0994
  178SOPE   C2220251   2.943   3.932  10.074  0.6638 -0.5279  0.2291
  178SOPE   H2R20252   2.904   3.895  10.171 -2.4876  0.6514 -0.4774
  178SOPE   H2S20253   3.052   3.948  10.088  0.8565 -1.0215 -0.5989
  178SOPE    C320254   3.009   4.354  10.074  0.1248 -0.0925 -0.0354
  178SOPE    HX20255   3.098   4.330  10.137 -0.0218  0.1355  0.2604
  178SOPE    HY20256   3.009   4.464  10.086  2.4717 -0.0004 -0.4584
  178SOPE   O3120257   3.004   4.308   9.938  0.0929  0.2953 -0.1258
  178SOPE   C3120258   2.917   4.373   9.864  0.2525 -0.7873  0.2320
  178SOPE   O3220259   2.846   4.464   9.906 -0.5852  0.0370 -1.0444
  178SOPE   C3220260   2.928   4.326   9.716 -0.1894  0.3639  0.3112
  178SOPE   H2X20261   2.974   4.226   9.721 -0.1427  0.1342 -2.8510
  178SOPE   H2Y20262   3.000   4.392   9.663  2.0014 -1.6188  0.7070
  178SOPE   C2320263   2.902   3.846   9.954  0.1897 -0.2892 -0.5456
  178SOPE   H3R20264   2.798   3.854   9.916  0.8303 -1.5931 -2.8367
  178SOPE   H3S20265   2.911   3.738   9.978  1.6669 -0.3067 -1.0277
  178SOPE   C2420266   2.998   3.866   9.826  0.0154  0.5027 -0.4772
  178SOPE   H4R20267   2.947   3.929   9.750 -1.9676  0.8110  1.0116
  178SOPE   H4S20268   3.079   3.922   9.877 -1.5729  1.2840  1.3517
  178SOPE   C2520269   3.060   3.735   9.763 -0.5156 -0.2513  0.9648
  178SOPE   H5R20270   3.143   3.766   9.697 -0.6428  0.4059  1.1041
  178SOPE   H5S20271   3.113   3.673   9.838  0.0456  0.8493  1.4890
  178SOPE   C2620272   2.951   3.653   9.690 -0.4643  0.2286 -0.2668
  178SOPE   H6R20273   2.905   3.586   9.766  2.5117  1.4184  2.8350
  178SOPE   H6S20274   2.873   3.726   9.660  0.3737  1.2159 -0.0857
  178SOPE   C2720275   3.002   3.576   9.566  0.5073  0.0248 -0.2558
  178SOPE   H7R20276   3.047   3.641   9.487 -0.6802  0.4308 -0.6195
  178SOPE   H7S20277   3.081   3.511   9.610  0.3968  0.9163  1.3408
  178SOPE   C2820278   2.889   3.491   9.504  0.0040  0.3817  0.2880
  178SOPE   H8R20279   2.938   3.401   9.460  0.7531  0.8727  0.1137
  178SOPE   H8S20280   2.827   3.445   9.585 -3.6957  1.6024 -1.5996
  178SOPE   C2920281   2.793   3.557   9.406  0.2547  0.1959  0.3387
  178SOPE   H9120282   2.760   3.658   9.434 -0.1171  0.5910 -1.4433
  178SOPE  C21020283   2.762   3.516   9.282 -0.6587  0.8716  0.5068
  178SOPE  H10120284   2.682   3.572   9.233 -0.5776  1.3098  0.8658
  178SOPE  C21120285   2.809   3.393   9.204 -0.3013  0.1154  0.9425
  178SOPE  H11R20286   2.919   3.381   9.196 -0.4487 -0.7842  0.0011
  178SOPE  H11S20287   2.764   3.414   9.104 -2.3390 -2.5916  1.1646
  178SOPE  C21220288   2.743   3.264   9.258 -0.1602 -0.5421  0.9529
  178SOPE  H12R20289   2.636   3.288   9.280 -1.5544 -2.5075 -2.8047
  178SOPE  H12S20290   2.795   3.245   9.355 -0.4527  1.1069  1.4653
  178SOPE  C21320291   2.753   3.134   9.169  0.4513  0.4786 -0.4205
  178SOPE  H13R20292   2.663   3.073   9.195  0.6136  0.8159  0.9960
  178SOPE  H13S20293   2.838   3.071   9.203  1.3027  1.0738 -1.3883
  178SOPE  C21420294   2.757   3.160   9.018 -0.7273 -0.7431  0.0290
  178SOPE  H14R20295   2.841   3.225   8.986 -1.6043  1.1582  1.3706
  178SOPE  H14S20296   2.666   3.216   8.988 -0.1908  0.2036  0.1405
  178SOPE  C21520297   2.755   3.022   8.950 -0.9036  0.5344  0.0589
  178SOPE  H15R20298   2.671   2.971   9.003  1.4439 -2.2217  1.4692
  178SOPE  H15S20299   2.855   2.975   8.963  0.2058  2.1258 -2.0773
  178SOPE  C21620300   2.742   3.034   8.796 -0.1596  0.1357 -0.4719
  178SOPE  H16R20301   2.826   3.093   8.753 -0.9155 -0.1890 -2.4626
  178SOPE  H16S20302   2.650   3.091   8.771 -1.1376 -1.7296 -1.2852
  178SOPE  C21720303   2.733   2.902   8.718  0.7199  0.4413  0.7513
  178SOPE  H17R20304   2.632   2.856   8.733  1.7403 -0.8834  4.8485
  178SOPE  H17S20305   2.817   2.837   8.748  0.4962 -1.9215 -2.9751
  178SOPE  C21820306   2.763   2.929   8.569  0.2942 -1.1068  0.8699
  178SOPE  H18R20307   2.747   2.834   8.514 -1.9283 -0.2383 -0.0821
  178SOPE  H18S20308   2.871   2.955   8.558 -0.0806 -0.6469 -3.7373
  178SOPE  H18T20309   2.693   3.005   8.528  2.9033  2.0606  1.8169
  178SOPE   C3320310   2.795   4.293   9.643 -0.1990  0.2402  0.4004
  178SOPE   H3X20311   2.733   4.376   9.602 -0.8443 -0.4211  0.0277
  178SOPE   H3Y20312   2.728   4.224   9.697 -1.3461 -0.9281 -2.3321
  178SOPE   C3420313   2.823   4.206   9.518 -0.3908 -0.5104  0.0643
  178SOPE   H4X20314   2.892   4.120   9.530  0.8184  0.1473 -1.6771
  178SOPE   H4Y20315   2.877   4.262   9.439 -0.2003  0.1852  0.6814
  178SOPE   C3520316   2.692   4.165   9.449 -0.2085 -0.6238  0.2724
  178SOPE   H5X20317   2.618   4.248   9.456 -1.7722 -2.1102  3.1578
  178SOPE   H5Y20318   2.645   4.091   9.518  1.0413 -0.0770  1.7858
  178SOPE   C3620319   2.696   4.123   9.304 -0.0978  0.2675  0.5149
  178SOPE   H6X20320   2.730   4.203   9.235 -0.6557 -0.6208 -0.8314
  178SOPE   H6Y20321   2.595   4.114   9.261  0.4151  0.6573 -0.8246
  178SOPE   C3720322   2.775   3.989   9.294 -0.0191  0.2330 -0.4599
  178SOPE   H7X20323   2.718   3.933   9.371 -0.0804 -0.4531 -0.9930
  178SOPE   H7Y20324   2.881   4.006   9.325  0.4937 -3.2133  0.1420
  178SOPE   C3820325   2.759   3.908   9.165  0.3298 -0.3517 -0.4744
  178SOPE   H8X20326   2.836   3.829   9.179  0.4012 -0.5200 -1.7226
  178SOPE   H8Y20327   2.789   3.982   9.088  0.8700  1.1413  1.1112
  178SOPE   C3920328   2.615   3.855   9.143  0.3540  0.2742 -0.2264
  178SOPE   H9X20329   2.544   3.939   9.127  2.0462  1.3300 -3.1440
  178SOPE   H9Y20330   2.587   3.783   9.223  2.6101 -1.4934 -0.9037
  178SOPE  C31020331   2.609   3.778   9.009 -0.4403  0.0355  0.4723
  178SOPE  H10X20332   2.704   3.721   9.013 -1.2493 -1.4881 -0.5751
  178SOPE  H10Y20333   2.625   3.852   8.928  1.8159  1.4672  2.1161
  178SOPE  C31120334   2.487   3.691   8.981 -0.2766 -0.1224 -0.1238
  178SOPE  H11X20335   2.394   3.748   8.959 -0.8270 -1.2658 -0.8681
  178SOPE  H11Y20336   2.465   3.624   9.066  3.5251  1.9768  2.8265
  178SOPE  C31220337   2.524   3.597   8.867  0.7824  0.2035  0.3543
  178SOPE  H12X20338   2.612   3.532   8.885  0.7994  0.3303  0.7394
  178SOPE  H12Y20339   2.557   3.661   8.782  1.1216 -1.0766 -0.5155
  178SOPE  C31320340   2.404   3.521   8.810 -0.5340  0.9934  0.4781
  178SOPE  H13X20341   2.318   3.590   8.819 -1.5785 -0.2748  0.5451
  178SOPE  H13Y20342   2.375   3.435   8.873  1.0683  0.9962  1.2699
  178SOPE  C31420343   2.416   3.477   8.664 -0.5552  0.2577 -0.3284
  178SOPE  H14X20344   2.512   3.428   8.637 -0.8581 -1.3401  1.3249
  178SOPE  H14Y20345   2.400   3.571   8.608 -0.7226 -0.6952 -1.9588
  178SOPE  C31520346   2.310   3.379   8.610 -0.7405 -0.6500 -0.5385
  178SOPE  H15X20347   2.323   3.387   8.500  0.6583  0.0470 -0.3481
  178SOPE  H15Y20348   2.209   3.415   8.639 -1.0072  0.0464 -2.2051
  178SOPE  C31620349   2.339   3.233   8.659  0.4681 -0.7318 -0.1081
  178SOPE  H16X20350   2.303   3.229   8.764 -1.2784 -0.3446 -0.6610
  178SOPE  H16Y20351   2.448   3.221   8.642 -0.0362 -3.4205 -2.1643
  178SOPE  C31720352   2.258   3.128   8.575  1.0606  0.1896  0.1961
  178SOPE  H17X20353   2.272   3.036   8.634  2.5810  0.1399 -0.2146
  178SOPE  H17Y20354   2.310   3.126   8.477  1.8043  0.5204  0.5785
  178SOPE  C31820355   2.110   3.152   8.554 -0.0525  0.5585 -0.5228
  178SOPE  H18X20356   2.082   3.247   8.505 -2.1921 -0.2452 -0.9616
  178SOPE  H18Y20357   2.061   3.140   8.653  0.6554 -1.7186 -0.3843
  178SOPE  H18Z20358   2.081   3.068   8.487  0.3881 -0.7102  0.8199
  179SOPE     N20359   3.411   3.957   6.337 -0.1094  0.4001 -0.0674
  179SOPE   HN120360   3.508   3.993   6.329 -0.2782  0.9230  0.2299
  179SOPE   HN220361   3.344   4.004   6.272 -1.4891  0.1131  1.0979
  179SOPE   HN320362   3.375   3.961   6.434 -1.0985  0.8703 -0.4398
  179SOPE   C1220363   3.412   3.816   6.291  0.3033 -0.0766 -0.0418
  179SOPE  H12A20364   3.431   3.749   6.377 -0.6246 -1.2791 -0.7321
  179SOPE  H12B20365   3.492   3.792   6.217  0.0663 -0.8932 -0.0515
  179SOPE   C1120366   3.272   3.765   6.246 -0.3841  0.2384  0.5831
  179SOPE  H11A20367   3.314   3.671   6.205  4.4842  2.2423  0.2748
  179SOPE  H11B20368   3.228   3.815   6.157  1.2367  0.9962  0.1659
  179SOPE     P20369   3.089   3.628   6.378  0.0087 -0.1607  0.7218
  179SOPE   O1320370   3.149   3.516   6.297 -0.0310 -0.6214 -0.5555
  179SOPE   O1420371   2.952   3.665   6.347 -0.3177 -0.1264  0.2811
  179SOPE   O1220372   3.179   3.744   6.350  0.0360  0.4382 -0.0455
  179SOPE   O1120373   3.107   3.598   6.530 -0.3199 -0.4089  0.2287
  179SOPE    C120374   3.223   3.636   6.601 -0.5039 -0.9073  0.0010
  179SOPE    HA20375   3.240   3.745   6.598  2.6464 -1.3289 -2.8009
  179SOPE    HB20376   3.304   3.585   6.545 -0.7140 -2.3173  0.9336
  179SOPE    C220377   3.228   3.597   6.752 -0.2768  0.2310 -0.4572
  179SOPE    HS20378   3.200   3.490   6.757 -0.9955  0.2744 -2.6050
  179SOPE   O2120379   3.137   3.674   6.818 -0.0624 -0.4003  0.6525
  179SOPE   C2120380   3.074   3.626   6.924 -0.7691  0.1588 -0.9430
  179SOPE   O2220381   3.092   3.516   6.973  0.5077  0.0833 -0.1323
  179SOPE   C2220382   3.002   3.736   7.003  0.2558 -0.1125 -0.6569
  179SOPE   H2R20383   2.900   3.751   6.962 -0.7731 -0.0305  1.7957
  179SOPE   H2S20384   3.056   3.832   6.991 -1.4610  1.0285  0.3719
  179SOPE    C320385   3.370   3.617   6.816  0.1474 -0.8392 -0.5587
  179SOPE    HX20386   3.393   3.726   6.822 -0.2880 -0.5722 -3.0156
  179SOPE    HY20387   3.439   3.561   6.751 -1.3131  0.1900 -3.1579
  179SOPE   O3120388   3.371   3.573   6.955 -0.1090 -0.1566 -0.0355
  179SOPE   C3120389   3.394   3.452   6.980 -0.1454  0.1199  0.3748
  179SOPE   O3220390   3.409   3.362   6.893  0.0292  0.2684 -0.5003
  179SOPE   C3220391   3.393   3.433   7.131  0.0145 -0.6904 -0.0796
  179SOPE   H2X20392   3.288   3.415   7.163  0.0642  0.1386  0.5710
  179SOPE   H2Y20393   3.421   3.531   7.174  0.8617 -1.3483  0.9111
  179SOPE   C2320394   2.978   3.713   7.150  0.2268  0.0839 -0.8009
  179SOPE   H3R20395   2.914   3.624   7.168 -1.8166  1.6836  0.2941
  179SOPE   H3S20396   2.917   3.799   7.186  0.3955 -0.3469  0.5707
  179SOPE   C2420397   3.115   3.696   7.221  0.0691  0.1691  0.3489
  179SOPE   H4R20398   3.180   3.612   7.190  0.2410 -0.7632  3.0006
  179SOPE   H4S20399   3.175   3.783   7.187  0.8835 -0.5282 -0.0199
  179SOPE   C2520400   3.093   3.695   7.375  0.1819  0.2055  0.3717
  179SOPE   H5R20401   3.070   3.798   7.412  0.2847 -0.8730  3.7470
  179SOPE   H5S20402   3.005   3.631   7.396 -0.2792  1.5491  2.9444
  179SOPE   C2620403   3.213   3.662   7.459  0.5923  0.3736 -0.2021
  179SOPE   H6R20404   3.262   3.568   7.427  3.6647  1.6388  0.4287
  179SOPE   H6S20405   3.280   3.746   7.429  0.5418  0.1140 -1.0919
  179SOPE   C2720406   3.180   3.650   7.608  0.5019 -0.6011  0.5504
  179SOPE   H7R20407   3.141   3.751   7.631 -0.2990 -1.0199  1.0762
  179SOPE   H7S20408   3.097   3.579   7.624  0.2051 -0.5807 -0.8000
  179SOPE   C2820409   3.300   3.621   7.700  0.0937  0.1529 -0.0950
  179SOPE   H8R20410   3.362   3.712   7.687 -0.9570  0.9981  0.6703
  179SOPE   H8S20411   3.287   3.603   7.809  0.6347 -0.8466 -0.1781
  179SOPE   C2920412   3.396   3.503   7.661 -0.2463 -0.3774  0.0783
  179SOPE   H9120413   3.466   3.535   7.582  2.7025 -3.3272  1.2766
  179SOPE  C21020414   3.398   3.378   7.710 -0.0355  0.5422  0.5161
  179SOPE  H10120415   3.469   3.305   7.669  1.1374  1.3876  0.9788
  179SOPE  C21120416   3.303   3.328   7.812  0.8976  0.5919 -0.8272
  179SOPE  H11R20417   3.268   3.223   7.796  0.0419  0.7721 -0.1792
  179SOPE  H11S20418   3.213   3.392   7.824  0.7023  0.2352 -0.3316
  179SOPE  C21220419   3.366   3.318   7.948  0.3986  0.2952  0.0725
  179SOPE  H12R20420   3.294   3.274   8.022  0.9656  1.6281  1.4669
  179SOPE  H12S20421   3.385   3.418   7.991 -0.9820  1.2368 -1.4107
  179SOPE  C21320422   3.493   3.238   7.941  0.1202 -0.7660  0.0840
  179SOPE  H13R20423   3.563   3.293   7.874  0.8458  1.4061  2.4277
  179SOPE  H13S20424   3.482   3.137   7.896  2.4873 -1.2622  0.5034
  179SOPE  C21420425   3.557   3.203   8.081  0.5777  0.0723 -0.4872
  179SOPE  H14R20426   3.582   3.295   8.138 -0.9321  0.4026 -0.3122
  179SOPE  H14S20427   3.650   3.150   8.054  0.1001 -0.8974 -0.2616
  179SOPE  C21520428   3.463   3.134   8.168 -0.3448  0.4605 -0.0424
  179SOPE  H15R20429   3.413   3.051   8.114  0.2148  0.1330 -0.0667
  179SOPE  H15S20430   3.386   3.206   8.204 -0.5372  0.7969 -1.0868
  179SOPE  C21620431   3.538   3.065   8.285 -0.3575  0.3676  0.4401
  179SOPE  H16R20432   3.620   3.130   8.323 -0.0495  0.3806 -0.2312
  179SOPE  H16S20433   3.583   2.971   8.245 -1.4432 -0.4166  1.0290
  179SOPE  C21720434   3.440   3.022   8.395  0.6324  0.4513 -0.5782
  179SOPE  H17R20435   3.483   2.952   8.470  0.7862 -0.7065 -1.6910
  179SOPE  H17S20436   3.346   2.982   8.352  0.4461  1.0721 -0.7564
  179SOPE  C21820437   3.403   3.143   8.485 -0.2872  0.0441 -0.3412
  179SOPE  H18R20438   3.336   3.119   8.570  0.5940  1.3407  0.7540
  179SOPE  H18S20439   3.351   3.226   8.431 -0.6123 -0.6408 -1.1083
  179SOPE  H18T20440   3.495   3.191   8.525 -1.5805  1.3685  1.1536
  179SOPE   C3320441   3.496   3.316   7.174  0.9963 -0.0798 -0.6080
  179SOPE   H3X20442   3.596   3.359   7.154  1.0345 -0.1374 -0.5444
  179SOPE   H3Y20443   3.486   3.231   7.103 -0.0951  0.1251 -0.7088
  179SOPE   C3420444   3.470   3.274   7.319  0.4358 -0.5419 -0.3293
  179SOPE   H4X20445   3.409   3.352   7.370  0.6967 -0.5276 -0.0349
  179SOPE   H4Y20446   3.569   3.261   7.368  0.4337 -0.4362 -0.2958
  179SOPE   C3520447   3.388   3.151   7.311  0.2345 -0.1363  0.5367
  179SOPE   H5X20448   3.454   3.067   7.280 -0.9555 -0.8998 -0.0122
  179SOPE   H5Y20449   3.310   3.163   7.232 -0.3900  0.7703  1.2614
  179SOPE   C3620450   3.321   3.122   7.444 -0.3390 -0.5886  0.0619
  179SOPE   H6X20451   3.240   3.197   7.454 -1.2938 -1.3396 -1.5197
  179SOPE   H6Y20452   3.391   3.119   7.530 -1.3890  1.1106  1.0249
  179SOPE   C3720453   3.242   2.983   7.439  0.3327 -0.4988 -0.3731
  179SOPE   H7X20454   3.310   2.898   7.414  0.1794 -0.5017 -0.7744
  179SOPE   H7Y20455   3.156   2.994   7.370 -1.1467 -0.0277  1.4491
  179SOPE   C3820456   3.177   2.958   7.575 -1.2459 -0.1765  0.2859
  179SOPE   H8X20457   3.086   2.896   7.560 -1.6974  0.7910 -1.1535
  179SOPE   H8Y20458   3.135   3.054   7.611 -0.4606 -0.1666  1.2260
  179SOPE   C3920459   3.277   2.919   7.689 -0.1622  0.7047 -0.3972
  179SOPE   H9X20460   3.343   3.004   7.719  3.2164 -2.4490  1.9758
  179SOPE   H9Y20461   3.337   2.839   7.640  1.2808 -0.2014  2.6242
  179SOPE  C31020462   3.212   2.858   7.815  0.6713  0.0844  0.1332
  179SOPE  H10X20463   3.132   2.794   7.774  0.3746  0.6234 -0.1435
  179SOPE  H10Y20464   3.162   2.938   7.875  0.1933 -1.7516  2.3393
  179SOPE  C31120465   3.305   2.763   7.898 -0.6736  0.1309  0.1098
  179SOPE  H11X20466   3.405   2.812   7.903  0.6526 -1.8866 -3.3897
  179SOPE  H11Y20467   3.315   2.676   7.831 -1.4655  0.6381 -0.6873
  179SOPE  C31220468   3.239   2.730   8.035  0.1125  0.3797 -0.6592
  179SOPE  H12X20469   3.134   2.699   8.020 -0.5266  2.4197 -0.6365
  179SOPE  H12Y20470   3.233   2.818   8.102 -0.1884  0.2103 -0.4591
  179SOPE  C31320471   3.309   2.617   8.111  0.0995 -0.4004  0.0089
  179SOPE  H13X20472   3.309   2.637   8.220  1.5078 -3.9581  0.7964
  179SOPE  H13Y20473   3.418   2.626   8.091  0.5899 -1.7767  1.8350
  179SOPE  C31420474   3.254   2.487   8.068  0.0030 -0.2079  0.1598
  179SOPE  H14X20475   3.278   2.479   7.960  1.6462  1.0357  0.4050
  179SOPE  H14Y20476   3.145   2.483   8.092  0.0695  1.2031  0.7724
  179SOPE  C31520477   3.318   2.374   8.141  0.3762  0.5919 -0.7035
  179SOPE  H15X20478   3.427   2.368   8.119  0.6126 -0.9298  0.6877
  179SOPE  H15Y20479   3.268   2.278   8.115 -0.0079  0.4655  0.4540
  179SOPE  C31620480   3.303   2.383   8.304  0.3640  0.1025 -0.0514
  179SOPE  H16X20481   3.197   2.413   8.316 -0.0121 -0.8772 -0.8659
  179SOPE  H16Y20482   3.358   2.476   8.332 -2.4051  1.5799  0.8605
  179SOPE  C31720483   3.342   2.250   8.376 -0.8169 -0.2145  0.2005
  179SOPE  H17X20484   3.378   2.266   8.480 -0.7911 -0.4282  0.2260
  179SOPE  H17Y20485   3.430   2.216   8.317  0.1050  2.1260  0.1409
  179SOPE  C31820486   3.233   2.142   8.372 -0.4066 -0.5546 -0.4707
  179SOPE  H18X20487   3.192   2.122   8.270 -0.8236  0.8353 -0.5995
  179SOPE  H18Y20488   3.150   2.173   8.439 -0.9955  0.5497 -1.6605
  179SOPE  H18Z20489   3.280   2.050   8.413  0.7639  0.3156  0.2099
  180SOPE     N20490   2.123   4.984   5.861 -0.8119  0.4891 -0.4065
  180SOPE   HN120491   2.019   4.976   5.862 -0.7088 -0.9241  0.0534
  180SOPE   HN220492   2.142   5.059   5.931 -0.6234 -1.2663  1.5088
  180SOPE   HN320493   2.156   5.019   5.769  1.4737 -0.1038  0.1260
  180SOPE   C1220494   2.178   4.852   5.899 -0.3636 -0.4161 -0.0174
  180SOPE  H12A20495   2.287   4.858   5.875 -0.3477  6.7658 -0.1807
  180SOPE  H12B20496   2.117   4.772   5.852 -1.5406 -1.0793  2.4644
  180SOPE   C1120497   2.168   4.834   6.051  0.1498 -0.2194 -0.4649
  180SOPE  H11A20498   2.198   4.727   6.054 -2.5067 -1.0477 -0.3708
  180SOPE  H11B20499   2.064   4.842   6.091  0.6784 -2.2823  1.5360
  180SOPE     P20500   2.288   4.892   6.272  0.4671  0.1537  0.0550
  180SOPE   O1320501   2.343   5.011   6.328 -0.0645 -0.4343  0.0758
  180SOPE   O1420502   2.372   4.772   6.263 -0.0599 -0.2488  0.7172
  180SOPE   O1220503   2.247   4.932   6.120  0.4958 -0.1782 -0.3009
  180SOPE   O1120504   2.147   4.852   6.344  0.3522 -0.0456  0.1258
  180SOPE    C120505   2.052   4.961   6.379 -0.5693 -0.0973 -0.5788
  180SOPE    HA20506   1.950   4.935   6.344 -0.9224  0.9404 -0.3421
  180SOPE    HB20507   2.085   5.062   6.346  2.2775 -0.5017  0.7537
  180SOPE    C220508   2.031   4.971   6.533 -0.1039  0.3668 -0.2303
  180SOPE    HS20509   2.123   5.016   6.576 -0.4152  0.6177  0.1900
  180SOPE   O2120510   2.012   4.840   6.586 -0.1427  0.2443  0.0026
  180SOPE   C2120511   2.051   4.820   6.711  0.0778 -1.0109 -0.1374
  180SOPE   O2220512   2.126   4.899   6.779  0.3544  0.0786  0.7234
  180SOPE   C2220513   2.000   4.687   6.763  0.2203 -0.1420 -0.1809
  180SOPE   H2R20514   2.046   4.602   6.709 -0.3139 -0.4906 -0.1004
  180SOPE   H2S20515   1.891   4.697   6.744 -0.4036 -0.1679  2.8567
  180SOPE    C320516   1.917   5.063   6.577  0.1695  0.1414 -0.1855
  180SOPE    HX20517   1.829   5.024   6.522  0.2409 -2.2832  1.2576
  180SOPE    HY20518   1.924   5.161   6.526 -0.2477 -0.7603 -2.0357
  180SOPE   O3120519   1.899   5.072   6.723  0.1216  0.0143 -0.1568
  180SOPE   C3120520   1.971   5.165   6.779  0.1896 -0.3498  0.0233
  180SOPE   O3220521   2.047   5.241   6.725 -0.4407  0.3653  0.3320
  180SOPE   C3220522   1.931   5.183   6.922 -0.4143 -0.1364  0.1812
  180SOPE   H2X20523   1.971   5.100   6.984  0.3912  0.2271  0.1597
  180SOPE   H2Y20524   1.821   5.193   6.928 -0.6152 -0.5776 -2.0101
  180SOPE   C2320525   2.023   4.675   6.915 -0.1900 -0.8440  0.1631
  180SOPE   H3R20526   2.131   4.684   6.940 -0.4328 -1.5316  1.5275
  180SOPE   H3S20527   1.996   4.576   6.957 -0.1872 -0.9034  0.0237
  180SOPE   C2420528   1.922   4.758   7.003 -0.2002  0.7906 -0.0988
  180SOPE   H4R20529   1.917   4.855   6.950  0.1867  0.0260 -1.5883
  180SOPE   H4S20530   1.821   4.714   6.988  0.3486  0.1203 -2.1550
  180SOPE   C2520531   1.966   4.781   7.148 -0.0266 -0.1463 -0.1113
  180SOPE   H5R20532   1.962   4.684   7.203  0.3825 -0.9645 -1.4492
  180SOPE   H5S20533   2.067   4.825   7.157 -0.9254  2.1023 -0.3133
  180SOPE   C2620534   1.866   4.890   7.209  0.1513  0.5994  0.2853
  180SOPE   H6R20535   1.878   4.980   7.145  1.4572  0.4244  0.2649
  180SOPE   H6S20536   1.764   4.846   7.202  1.0902 -1.3700 -2.6370
  180SOPE   C2720537   1.898   4.930   7.353  0.4024 -0.1794 -0.2302
  180SOPE   H7R20538   1.889   4.850   7.430  2.2171  2.4412  2.9956
  180SOPE   H7S20539   2.004   4.962   7.344  0.2630 -0.4620 -4.8321
  180SOPE   C2820540   1.815   5.053   7.411  0.7145  0.5146  0.1806
  180SOPE   H8R20541   1.829   5.138   7.342 -0.2467 -0.6058 -1.4648
  180SOPE   H8S20542   1.708   5.023   7.402  0.7710  0.7012 -1.2556
  180SOPE   C2920543   1.853   5.077   7.552  0.4981 -0.6110  0.7911
  180SOPE   H9120544   1.961   5.096   7.547  0.3074  0.4165  0.2328
  180SOPE  C21020545   1.784   5.076   7.663  0.3721  0.0546  0.0255
  180SOPE  H10120546   1.845   5.092   7.753  0.0888  1.5118 -0.0072
  180SOPE  C21120547   1.633   5.057   7.686 -0.5264 -1.2196  0.9178
  180SOPE  H11R20548   1.573   5.012   7.604  0.4106  0.2836 -0.6617
  180SOPE  H11S20549   1.584   5.155   7.702 -0.8719 -0.7764 -2.2219
  180SOPE  C21220550   1.610   4.987   7.815 -0.1163  0.3189  0.1637
  180SOPE  H12R20551   1.683   5.020   7.892  1.6061  0.0361 -1.2833
  180SOPE  H12S20552   1.628   4.879   7.797  3.1193  0.8295 -0.1705
  180SOPE  C21320553   1.473   5.008   7.887 -0.8708 -1.0861 -0.7549
  180SOPE  H13R20554   1.443   4.928   7.958  0.4016 -2.3117 -1.5311
  180SOPE  H13S20555   1.393   5.017   7.811 -0.7713  0.9588 -0.6780
  180SOPE  C21420556   1.468   5.143   7.973  0.3849 -0.6069  0.0703
  180SOPE  H14R20557   1.492   5.221   7.898 -3.1765 -0.5215 -1.2002
  180SOPE  H14S20558   1.538   5.130   8.058  0.4258 -0.3798  0.0701
  180SOPE  C21520559   1.327   5.173   8.040 -0.0244  0.1249 -0.2074
  180SOPE  H15R20560   1.264   5.081   8.049  2.2136 -1.2796  2.5870
  180SOPE  H15S20561   1.275   5.255   7.986  1.0699  1.1656  0.2899
  180SOPE  C21620562   1.341   5.215   8.191  0.3284  0.1228  0.6868
  180SOPE  H16R20563   1.403   5.306   8.206  1.4925 -0.6539  0.6881
  180SOPE  H16S20564   1.390   5.128   8.238  0.3761 -0.4677 -0.4235
  180SOPE  C21720565   1.193   5.225   8.256  0.0611 -0.2725 -0.2272
  180SOPE  H17R20566   1.160   5.120   8.238  1.3880 -0.9382  0.9423
  180SOPE  H17S20567   1.126   5.294   8.201  0.2266 -0.0908 -0.2048
  180SOPE  C21820568   1.187   5.250   8.412 -0.8477 -0.6288  0.0234
  180SOPE  H18R20569   1.254   5.178   8.464 -1.1517 -0.7448  0.2588
  180SOPE  H18S20570   1.087   5.251   8.462 -0.4494  0.3839  0.8329
  180SOPE  H18T20571   1.224   5.353   8.428  1.2980 -1.2967 -0.2608
  180SOPE   C3320572   2.002   5.313   6.982 -0.6419  0.1727 -0.7774
  180SOPE   H3X20573   1.979   5.405   6.924 -2.4834  0.0869 -0.2309
  180SOPE   H3Y20574   2.113   5.305   6.980 -0.3307  2.4069  1.5107
  180SOPE   C3420575   1.950   5.338   7.126 -0.1414 -0.1966  0.2546
  180SOPE   H4X20576   1.964   5.249   7.191  2.1835 -0.2334 -0.2244
  180SOPE   H4Y20577   1.840   5.355   7.121  0.0183  0.5059 -2.4016
  180SOPE   C3520578   1.997   5.465   7.200 -0.1835  0.6086  0.5185
  180SOPE   H5X20579   1.977   5.560   7.145 -0.6066 -0.5309 -1.4194
  180SOPE   H5Y20580   2.105   5.452   7.225  0.1129 -1.7568 -1.5458
  180SOPE   C3620581   1.939   5.477   7.340 -0.2764  0.4960 -1.0080
  180SOPE   H6X20582   1.956   5.377   7.385  0.0349  1.5825  1.4760
  180SOPE   H6Y20583   1.830   5.491   7.328 -0.1706  2.7381  0.0807
  180SOPE   C3720584   1.999   5.589   7.429 -0.4123  0.3417  0.3379
  180SOPE   H7X20585   1.996   5.686   7.374 -2.1930  0.0787 -0.1006
  180SOPE   H7Y20586   2.108   5.575   7.441  0.0492  1.1766 -2.2347
  180SOPE   C3820587   1.920   5.607   7.561 -0.0935 -0.1537  0.3644
  180SOPE   H8X20588   1.814   5.621   7.530 -0.2196 -2.4972 -0.5206
  180SOPE   H8Y20589   1.963   5.692   7.618 -1.0833 -0.3011  1.3626
  180SOPE   C3920590   1.928   5.482   7.649  0.1211  0.1215 -0.5745
  180SOPE   H9X20591   2.036   5.467   7.670  0.1535  0.5698 -0.4067
  180SOPE   H9Y20592   1.877   5.393   7.607 -4.5929 -0.1892  4.7701
  180SOPE  C31020593   1.856   5.515   7.785  0.5911  0.3785 -0.2431
  180SOPE  H10X20594   1.745   5.512   7.776  0.0074  0.4867  4.6086
  180SOPE  H10Y20595   1.879   5.615   7.827 -2.5037  0.9345  0.3847
  180SOPE  C31120596   1.903   5.409   7.885  0.2441 -0.2504 -0.1067
  180SOPE  H11X20597   2.009   5.425   7.912  0.0491  0.3309  0.3258
  180SOPE  H11Y20598   1.902   5.305   7.847  0.6625  0.0741 -1.0287
  180SOPE  C31220599   1.818   5.408   8.016  0.0412 -1.3930 -0.0795
  180SOPE  H12X20600   1.715   5.428   7.981  0.5961  0.3652 -0.8540
  180SOPE  H12Y20601   1.859   5.491   8.078 -0.6452 -1.2315  0.1664
  180SOPE  C31320602   1.820   5.279   8.088 -0.3851  0.2032 -0.1731
  180SOPE  H13X20603   1.779   5.202   8.017 -0.7011 -0.5570  0.8069
  180SOPE  H13Y20604   1.762   5.284   8.182 -1.0248 -1.8244 -0.3995
  180SOPE  C31420605   1.958   5.222   8.116  0.1553 -0.1010 -0.0829
  180SOPE  H14X20606   2.004   5.308   8.170 -1.7514  0.8141  0.1797
  180SOPE  H14Y20607   2.010   5.201   8.020 -0.7670 -0.7682 -0.4452
  180SOPE  C31520608   1.962   5.113   8.220 -0.7103  0.3501 -0.2144
  180SOPE  H15X20609   1.921   5.140   8.320 -0.5531 -0.3777  0.0467
  180SOPE  H15Y20610   2.065   5.098   8.261 -0.0437  0.4405 -1.7760
  180SOPE  C31620611   1.905   4.979   8.176 -0.4427  0.1241  0.4459
  180SOPE  H16X20612   1.794   4.988   8.173 -0.5511 -0.8802  0.9265
  180SOPE  H16Y20613   1.932   4.908   8.257  1.0873  0.5729  0.3583
  180SOPE  C31720614   1.967   4.923   8.047  0.3768 -0.2627 -0.2577
  180SOPE  H17X20615   2.078   4.927   8.052  0.3778  2.1304 -0.8239
  180SOPE  H17Y20616   1.930   4.988   7.964  0.2587  1.0338  0.7689
  180SOPE  C31820617   1.923   4.772   8.044  0.3021 -0.4704 -0.0975
  180SOPE  H18X20618   1.925   4.721   8.143 -1.7957 -3.1801 -1.3276
  180SOPE  H18Y20619   1.997   4.723   7.977  0.4692 -1.7913  1.0080
  180SOPE  H18Z20620   1.818   4.773   8.007 -0.0094  0.9824  0.7097
  181SOPE     N20621   0.256   2.836   5.965 -0.4091 -0.3462 -0.1114
  181SOPE   HN120622   0.260   2.927   5.913  0.2953 -0.0308  0.4769
  181SOPE   HN220623   0.349   2.796   5.988  0.3159  1.4262  0.1874
  181SOPE   HN320624   0.202   2.766   5.910 -1.4548  0.4440 -0.1408
  181SOPE   C1220625   0.194   2.882   6.097 -0.5710 -0.5942  0.2331
  181SOPE  H12A20626   0.095   2.926   6.072 -1.0359 -1.5241  0.4162
  181SOPE  H12B20627   0.259   2.961   6.141 -2.0930  1.2015 -0.6262
  181SOPE   C1120628   0.190   2.770   6.202  0.3039  0.4961  0.3554
  181SOPE  H11A20629   0.178   2.813   6.303 -2.8402  0.1133  0.2203
  181SOPE  H11B20630   0.283   2.709   6.214 -0.0222 -0.7849 -2.6161
  181SOPE     P20631   0.079   2.563   6.089 -0.2772  0.0012  0.2047
  181SOPE   O1320632   0.163   2.466   6.166 -0.2373  0.0704 -0.1442
  181SOPE   O1420633   0.126   2.602   5.953  0.0358  0.0076 -0.4112
  181SOPE   O1220634   0.071   2.690   6.185 -0.4612  0.0521  0.0349
  181SOPE   O1120635  -0.068   2.513   6.081 -0.2156 -0.3513  0.2827
  181SOPE    C120636  -0.170   2.564   6.174  0.7186 -0.0453  0.0388
  181SOPE    HA20637  -0.272   2.542   6.136  0.2683  0.1853  1.0830
  181SOPE    HB20638  -0.168   2.672   6.201 -2.1802 -0.3361  1.8453
  181SOPE    C220639  -0.178   2.484   6.309 -0.8641  0.2525  0.2873
  181SOPE    HS20640  -0.274   2.508   6.360 -1.9814 -1.4522 -0.9239
  181SOPE   O2120641  -0.064   2.501   6.393 -0.0004  0.2761  0.6366
  181SOPE   C2120642  -0.056   2.616   6.454 -0.3934 -0.0583  0.9053
  181SOPE   O2220643  -0.138   2.703   6.446 -0.4089 -0.2949  0.7090
  181SOPE   C2220644   0.062   2.618   6.553 -0.6580  0.6578  0.5353
  181SOPE   H2R20645   0.146   2.595   6.484 -1.1768 -2.9302  0.9126
  181SOPE   H2S20646   0.050   2.526   6.613  1.3760  0.3096  0.4874
  181SOPE    C320647  -0.201   2.332   6.274 -0.2605 -0.3937  0.2706
  181SOPE    HX20648  -0.126   2.315   6.194  2.0941  0.2008  2.2246
  181SOPE    HY20649  -0.298   2.344   6.221 -0.5745 -1.4213  0.5858
  181SOPE   O3120650  -0.210   2.248   6.391  0.3104  0.3449  0.3374
  181SOPE   C3120651  -0.108   2.166   6.404  1.1257  0.0463  0.2715
  181SOPE   O3220652  -0.012   2.161   6.327 -0.2502 -0.1987 -0.4966
  181SOPE   C3220653  -0.136   2.068   6.516 -0.0134 -0.1480  0.2276
  181SOPE   H2X20654  -0.164   1.970   6.472  0.2159 -0.0415 -0.1587
  181SOPE   H2Y20655  -0.213   2.108   6.585  1.3334 -0.8545  2.2078
  181SOPE   C2320656   0.077   2.749   6.629  0.1546 -0.2020 -0.4584
  181SOPE   H3R20657  -0.028   2.773   6.657 -0.0621 -0.6101 -0.9094
  181SOPE   H3S20658   0.105   2.829   6.557 -1.0576  0.3140 -0.3929
  181SOPE   C2420659   0.166   2.737   6.753 -0.6409 -0.7450  0.6031
  181SOPE   H4R20660   0.118   2.804   6.829 -0.1002  0.1477  0.1715
  181SOPE   H4S20661   0.175   2.636   6.798  3.6541 -0.3066  1.1221
  181SOPE   C2520662   0.307   2.781   6.717  0.6353 -0.5527  0.4289
  181SOPE   H5R20663   0.350   2.705   6.649  3.1090  0.9258  0.2086
  181SOPE   H5S20664   0.309   2.878   6.662 -0.4222  0.0963  1.4972
  181SOPE   C2620665   0.398   2.814   6.844  0.0484 -0.0261  0.3276
  181SOPE   H6R20666   0.497   2.849   6.809 -0.4165  3.1483  1.8086
  181SOPE   H6S20667   0.354   2.901   6.898 -0.6248 -0.6367  0.7733
  181SOPE   C2720668   0.409   2.698   6.937 -0.4230 -0.0152  0.2705
  181SOPE   H7R20669   0.312   2.669   6.984 -0.2158  0.1560  0.8078
  181SOPE   H7S20670   0.436   2.611   6.874  1.0782 -0.5425  1.5686
  181SOPE   C2820671   0.524   2.702   7.044 -0.5493 -0.2624 -0.2479
  181SOPE   H8R20672   0.613   2.728   6.984 -0.1265  2.9084  1.5485
  181SOPE   H8S20673   0.506   2.791   7.109 -0.2719 -0.1075 -0.3831
  181SOPE   C2920674   0.544   2.572   7.119  0.8867 -0.3319 -0.3301
  181SOPE   H9120675   0.451   2.513   7.119  0.2881  0.5850 -0.6010
  181SOPE  C21020676   0.651   2.523   7.175 -1.2022 -0.8176  0.1333
  181SOPE  H10120677   0.642   2.423   7.220  1.0291 -0.5781  1.2717
  181SOPE  C21120678   0.788   2.597   7.179 -0.7335  0.1637  0.2715
  181SOPE  H11R20679   0.785   2.702   7.142  1.1187  0.0629 -0.2647
  181SOPE  H11S20680   0.857   2.544   7.110 -0.8727  0.2501  0.0656
  181SOPE  C21220681   0.853   2.595   7.316  0.2665 -0.4846  0.5510
  181SOPE  H12R20682   0.961   2.618   7.308  0.5507 -2.1213 -1.0169
  181SOPE  H12S20683   0.847   2.490   7.352 -1.1088  0.2368  2.5943
  181SOPE  C21320684   0.777   2.702   7.404 -0.1464  0.2291  0.5466
  181SOPE  H13R20685   0.675   2.659   7.410  0.0768 -0.6741 -1.2514
  181SOPE  H13S20686   0.782   2.800   7.352  1.4916  0.0189  0.2534
  181SOPE  C21420687   0.844   2.713   7.540 -0.3340 -0.5591 -0.8248
  181SOPE  H14R20688   0.942   2.757   7.514  0.8738 -2.7494 -0.1979
  181SOPE  H14S20689   0.859   2.618   7.595  0.4271  1.1936  2.2439
  181SOPE  C21520690   0.772   2.818   7.628  0.5578 -0.0939 -0.3278
  181SOPE  H15R20691   0.717   2.886   7.560 -0.3459 -1.6003 -1.1540
  181SOPE  H15S20692   0.849   2.882   7.676  1.4279 -0.0242 -1.7858
  181SOPE  C21620693   0.672   2.754   7.721 -0.1964  0.1651 -0.9803
  181SOPE  H16R20694   0.616   2.829   7.780 -0.1801 -1.5005  1.3355
  181SOPE  H16S20695   0.723   2.698   7.803  0.0076  0.0681 -1.1722
  181SOPE  C21720696   0.561   2.682   7.647 -0.4198  0.2718  0.0195
  181SOPE  H17R20697   0.608   2.595   7.596 -0.3393  0.2368  0.1535
  181SOPE  H17S20698   0.496   2.748   7.584 -0.0103  0.2327 -0.4494
  181SOPE  C21820699   0.472   2.605   7.740  0.5338 -0.7280 -0.3638
  181SOPE  H18R20700   0.396   2.552   7.679 -0.3064  0.3757 -0.3088
  181SOPE  H18S20701   0.431   2.690   7.798 -0.4333 -1.2046 -0.3289
  181SOPE  H18T20702   0.518   2.530   7.808 -0.4403 -3.7378 -2.7490
  181SOPE   C3320703  -0.003   2.065   6.605  0.0392  0.5713  0.0574
  181SOPE   H3X20704   0.092   2.065   6.547 -0.2185 -0.6264 -0.3935
  181SOPE   H3Y20705   0.000   1.980   6.676 -1.0114  1.3647  1.0926
  181SOPE   C3420706   0.016   2.184   6.704  0.3956 -0.1317 -0.4051
  181SOPE   H4X20707  -0.078   2.209   6.759  2.3694  0.6707  2.8706
  181SOPE   H4Y20708   0.053   2.276   6.653 -1.2250  1.5824  1.3434
  181SOPE   C3520709   0.127   2.162   6.800  0.4297  0.5067  0.6340
  181SOPE   H5X20710   0.218   2.127   6.747  1.2704  2.2221  0.8672
  181SOPE   H5Y20711   0.095   2.084   6.872 -0.9441  0.5982  0.1411
  181SOPE   C3620712   0.162   2.290   6.882 -0.2814  0.5562 -0.2109
  181SOPE   H6X20713   0.189   2.367   6.805  0.2655  0.9400  0.3542
  181SOPE   H6Y20714   0.252   2.263   6.941 -0.4237 -0.5171 -0.4644
  181SOPE   C3720715   0.057   2.347   6.978 -0.3917  1.0774 -0.1079
  181SOPE   H7X20716   0.034   2.276   7.060 -0.4703  1.7034  0.4263
  181SOPE   H7Y20717  -0.034   2.366   6.916 -0.5269 -0.1212 -0.2939
  181SOPE   C3820718   0.104   2.467   7.056  0.4894 -0.6990 -0.1330
  181SOPE   H8X20719   0.124   2.555   6.990  1.3399 -0.6741  0.1504
  181SOPE   H8Y20720   0.202   2.444   7.103  1.4976 -0.1470 -1.8683
  181SOPE   C3920721  -0.002   2.508   7.162 -0.5265 -0.4461 -0.3413
  181SOPE   H9X20722  -0.026   2.427   7.234 -0.3003  0.3853  0.7022
  181SOPE   H9Y20723  -0.098   2.536   7.113 -0.8219  0.9787  0.9690
  181SOPE  C31020724   0.052   2.631   7.239  0.1706 -0.4279 -0.1615
  181SOPE  H10X20725  -0.034   2.682   7.289  0.4883  0.5004 -0.5391
  181SOPE  H10Y20726   0.104   2.708   7.178 -0.3397 -0.9892 -1.3231
  181SOPE  C31120727   0.156   2.578   7.342  0.3434 -0.4726 -0.6704
  181SOPE  H11X20728   0.252   2.555   7.291  0.7693 -0.4290  0.1043
  181SOPE  H11Y20729   0.144   2.483   7.398  1.6369 -0.7603 -0.8631
  181SOPE  C31220730   0.166   2.680   7.456 -0.2698  0.0491 -0.1226
  181SOPE  H12X20731   0.159   2.782   7.412  0.7693 -0.9352 -2.7775
  181SOPE  H12Y20732   0.266   2.667   7.504 -0.4117  1.2446  0.5339
  181SOPE  C31320733   0.058   2.657   7.571 -0.0418 -1.1441 -0.1706
  181SOPE  H13X20734   0.070   2.554   7.609  0.1635 -1.5796 -1.3568
  181SOPE  H13Y20735  -0.044   2.650   7.529 -0.0925  0.0587 -0.2777
  181SOPE  C31420736   0.069   2.774   7.673  0.3798  0.2425 -0.5243
  181SOPE  H14X20737   0.042   2.866   7.617 -0.0575  0.4457  0.0199
  181SOPE  H14Y20738   0.175   2.779   7.706 -0.3169  1.3117  1.7268
  181SOPE  C31520739  -0.019   2.773   7.802  0.2439  0.5133 -0.2675
  181SOPE  H15X20740  -0.016   2.677   7.859 -2.0868  0.4062 -0.2290
  181SOPE  H15Y20741  -0.125   2.787   7.772  0.0100  1.1215  0.7848
  181SOPE  C31620742   0.028   2.885   7.899  0.3642  0.2181  0.1711
  181SOPE  H16X20743   0.035   2.985   7.850  1.3576  0.8400  1.5276
  181SOPE  H16Y20744   0.129   2.870   7.942  0.1682 -4.1967 -0.5344
  181SOPE  C31720745  -0.073   2.906   8.009 -0.2274  0.6373 -0.0943
  181SOPE  H17X20746  -0.096   2.809   8.059  2.4148 -0.5731 -1.0294
  181SOPE  H17Y20747  -0.166   2.953   7.972 -1.7235 -1.3167  0.9962
  181SOPE  C31820748  -0.024   3.000   8.119  0.1924  0.3019  0.1188
  181SOPE  H18X20749   0.038   2.949   8.196 -2.6374 -3.8581 -0.0069
  181SOPE  H18Y20750  -0.111   3.048   8.169 -0.7375 -0.6649 -0.5258
  181SOPE  H18Z20751   0.038   3.078   8.069  0.7605 -0.4780 -0.4132
  182SOPE     N20752   2.086   4.607   6.403 -0.5040  0.5759  0.1879
  182SOPE   HN120753   2.078   4.706   6.371 -0.1545  0.8796  1.0252
  182SOPE   HN220754   2.010   4.558   6.455 -0.1135 -0.0971  0.1433
  182SOPE   HN320755   2.177   4.595   6.452  0.1807 -0.3678 -1.2157
  182SOPE   C1220756   2.101   4.519   6.277  0.1901 -0.7565  0.0972
  182SOPE  H12A20757   2.137   4.419   6.306  0.2558 -0.7193  0.1433
  182SOPE  H12B20758   2.176   4.571   6.213  2.1240 -2.3244  1.0072
  182SOPE   C1120759   1.962   4.512   6.200  0.2057 -0.2748  0.0988
  182SOPE  H11A20760   1.891   4.458   6.266 -0.5820 -0.7087 -1.0926
  182SOPE  H11B20761   1.973   4.445   6.112  1.3129 -1.6282  1.2068
  182SOPE     P20762   1.776   4.673   6.105  0.2700 -0.6701  0.0939
  182SOPE   O1320763   1.771   4.596   5.981 -1.2615  0.4281 -0.3315
  182SOPE   O1420764   1.756   4.822   6.095 -0.6098  0.4966  0.2724
  182SOPE   O1220765   1.919   4.642   6.162  0.2407 -0.8989  0.0437
  182SOPE   O1120766   1.678   4.606   6.213  0.5948  0.1307  0.0208
  182SOPE    C120767   1.597   4.683   6.298 -0.0881  0.0766 -0.6100
  182SOPE    HA20768   1.491   4.649   6.299 -0.0571 -0.0102  0.7286
  182SOPE    HB20769   1.594   4.792   6.275 -0.9827  0.1525 -0.1886
  182SOPE    C220770   1.640   4.683   6.440  0.0694  0.4755 -0.0314
  182SOPE    HS20771   1.742   4.727   6.450 -0.1354  0.9298  0.0332
  182SOPE   O2120772   1.634   4.550   6.497 -0.0195  0.0070  0.5748
  182SOPE   C2120773   1.745   4.502   6.548  0.9384  0.1740 -0.1897
  182SOPE   O2220774   1.856   4.546   6.531 -0.1291 -0.0563  0.7326
  182SOPE   C2220775   1.705   4.402   6.656  0.1089  0.2856  0.3486
  182SOPE   H2R20776   1.793   4.340   6.684  0.7942  1.2052  0.3067
  182SOPE   H2S20777   1.633   4.328   6.616 -1.1452  2.5352 -1.8506
  182SOPE    C320778   1.538   4.774   6.517 -0.5612 -0.4859 -0.2760
  182SOPE    HX20779   1.441   4.720   6.515  0.5237 -2.6023  0.4926
  182SOPE    HY20780   1.528   4.876   6.475  1.1913  0.1054  0.6716
  182SOPE   O3120781   1.584   4.795   6.652 -0.2367 -0.3536  0.3354
  182SOPE   C3120782   1.505   4.885   6.731  0.1016 -1.0332 -0.1647
  182SOPE   O3220783   1.408   4.936   6.681 -0.2130  0.0700  0.0288
  182SOPE   C3220784   1.583   4.928   6.852  0.1105 -0.4369 -0.2383
  182SOPE   H2X20785   1.690   4.936   6.824  0.1909  0.6280  0.3045
  182SOPE   H2Y20786   1.576   4.838   6.917  1.2320  0.5961  1.3777
  182SOPE   C2320787   1.675   4.475   6.791 -0.2844  0.4912  0.7590
  182SOPE   H3R20788   1.583   4.538   6.779 -1.3633 -0.9039  1.4251
  182SOPE   H3S20789   1.760   4.539   6.822 -1.9161  2.6949  0.9794
  182SOPE   C2420790   1.642   4.384   6.910 -0.2634 -0.5121 -0.0867
  182SOPE   H4R20791   1.545   4.333   6.896 -1.5992  0.8275  3.1977
  182SOPE   H4S20792   1.724   4.310   6.915  1.4847  1.3776  0.4915
  182SOPE   C2520793   1.636   4.466   7.037 -0.1004 -0.3694 -0.1695
  182SOPE   H5R20794   1.732   4.521   7.049 -1.5018  2.5222 -1.1413
  182SOPE   H5S20795   1.550   4.532   7.012 -0.5954 -1.2630 -0.8843
  182SOPE   C2620796   1.621   4.396   7.178  0.3398 -0.0636 -0.1344
  182SOPE   H6R20797   1.513   4.381   7.198  0.0042  0.2292 -1.6205
  182SOPE   H6S20798   1.666   4.294   7.182 -0.1439 -0.3086 -0.8189
  182SOPE   C2720799   1.697   4.476   7.293 -0.7128  0.0469 -0.1085
  182SOPE   H7R20800   1.777   4.407   7.329 -0.3158  0.3252 -0.4482
  182SOPE   H7S20801   1.750   4.564   7.252  0.2787 -0.1503  0.7109
  182SOPE   C2820802   1.612   4.515   7.419 -0.4882 -0.1369  1.0132
  182SOPE   H8R20803   1.528   4.572   7.375  0.2263 -0.6388 -1.1356
  182SOPE   H8S20804   1.577   4.420   7.465 -1.2284 -0.8208 -0.8340
  182SOPE   C2920805   1.693   4.602   7.512  0.3980 -0.8449  1.0103
  182SOPE   H9120806   1.727   4.697   7.468 -1.6224  0.1866  1.5913
  182SOPE  C21020807   1.731   4.565   7.637  0.0959 -0.6187 -0.6603
  182SOPE  H10120808   1.779   4.640   7.703 -1.5449  0.8509 -1.0680
  182SOPE  C21120809   1.694   4.438   7.699 -0.0888 -0.2831 -1.5205
  182SOPE  H11R20810   1.770   4.360   7.678 -0.9633 -1.3756 -0.7223
  182SOPE  H11S20811   1.602   4.399   7.652 -0.8847  0.6097 -0.7383
  182SOPE  C21220812   1.683   4.448   7.854  0.0075  0.6821  0.4249
  182SOPE  H12R20813   1.776   4.494   7.893 -0.2749  2.6485 -1.1132
  182SOPE  H12S20814   1.678   4.349   7.905 -0.8967  1.1739  1.3215
  182SOPE  C21320815   1.567   4.537   7.904 -0.4720 -0.3331  0.4233
  182SOPE  H13R20816   1.471   4.509   7.855  0.1992  0.4376 -1.4096
  182SOPE  H13S20817   1.576   4.640   7.863 -1.0711 -0.4823 -0.0893
  182SOPE  C21420818   1.555   4.555   8.058  0.0900 -0.5620  0.1188
  182SOPE  H14R20819   1.657   4.554   8.103  0.6860 -0.7555 -1.1817
  182SOPE  H14S20820   1.503   4.468   8.104 -0.0258 -0.3903  0.3144
  182SOPE  C21520821   1.486   4.687   8.096 -0.0172  0.3710  0.6544
  182SOPE  H15R20822   1.385   4.691   8.049 -0.0511  1.3900  0.7964
  182SOPE  H15S20823   1.536   4.781   8.065 -2.9394  2.6941  2.4160
  182SOPE  C21620824   1.453   4.710   8.242  0.0070 -0.2223  0.5883
  182SOPE  H16R20825   1.548   4.728   8.297 -0.2394 -1.6239  1.5213
  182SOPE  H16S20826   1.425   4.618   8.297 -3.3989  0.4300  0.1999
  182SOPE  C21720827   1.364   4.827   8.274 -0.6917  0.0474  0.6513
  182SOPE  H17R20828   1.268   4.820   8.217 -0.8968 -0.5346  1.0607
  182SOPE  H17S20829   1.429   4.907   8.234 -0.3507 -1.1120 -1.2497
  182SOPE  C21820830   1.342   4.824   8.417  0.2564 -0.1951  0.8862
  182SOPE  H18R20831   1.276   4.741   8.448  1.5393 -1.0559  1.4025
  182SOPE  H18S20832   1.298   4.923   8.444  1.9120  1.0265 -0.6246
  182SOPE  H18T20833   1.432   4.819   8.481  0.7038 -0.6783  0.2373
  182SOPE   C3320834   1.537   5.043   6.944 -0.4912 -0.2520  0.6201
  182SOPE   H3X20835   1.497   5.124   6.878 -1.1023 -0.7942  0.3093
  182SOPE   H3Y20836   1.616   5.089   7.006 -1.6897  0.1035  1.9329
  182SOPE   C3420837   1.419   4.994   7.029  0.0083  0.2159 -0.0515
  182SOPE   H4X20838   1.332   4.947   6.978 -0.1373 -0.4900  0.8136
  182SOPE   H4Y20839   1.369   5.088   7.061  1.1403  1.5080 -1.9428
  182SOPE   C3520840   1.456   4.908   7.146  0.1635  0.0452 -0.2713
  182SOPE   H5X20841   1.555   4.939   7.187 -0.8856  2.7493  0.4235
  182SOPE   H5Y20842   1.459   4.800   7.121  1.3324  0.5433 -2.5323
  182SOPE   C3620843   1.363   4.924   7.263 -0.1852  0.4980 -0.6748
  182SOPE   H6X20844   1.261   4.902   7.223  0.1461  1.3851 -2.0765
  182SOPE   H6Y20845   1.366   5.028   7.302 -0.8043  0.2487  0.0776
  182SOPE   C3720846   1.389   4.833   7.385 -0.2998  0.5407 -1.0621
  182SOPE   H7X20847   1.487   4.860   7.431 -0.8553 -0.6704  0.9526
  182SOPE   H7Y20848   1.407   4.726   7.360  0.8959  0.2368  0.9152
  182SOPE   C3820849   1.283   4.852   7.492 -0.2955 -0.5894 -0.0862
  182SOPE   H8X20850   1.183   4.835   7.447  0.0257  1.8743 -1.9002
  182SOPE   H8Y20851   1.290   4.956   7.531 -1.2286 -0.6222  0.2051
  182SOPE   C3920852   1.289   4.759   7.609 -0.0960  0.6739 -0.5244
  182SOPE   H9X20853   1.383   4.753   7.668  0.2834 -1.0916 -1.2565
  182SOPE   H9Y20854   1.276   4.656   7.569 -0.4919  1.2455 -1.9522
  182SOPE  C31020855   1.184   4.780   7.719 -0.1533  0.2744  0.0415
  182SOPE  H10X20856   1.085   4.798   7.672 -0.2616  1.9818  0.8541
  182SOPE  H10Y20857   1.203   4.875   7.774 -1.2963  1.8507 -2.1018
  182SOPE  C31120858   1.172   4.655   7.810  0.0932  0.2494 -0.1208
  182SOPE  H11X20859   1.269   4.642   7.862  0.0704  0.1581 -0.0990
  182SOPE  H11Y20860   1.151   4.573   7.738  1.9392 -1.3056  1.0026
  182SOPE  C31220861   1.059   4.650   7.915 -0.0785 -0.6255 -0.1930
  182SOPE  H12X20862   0.967   4.651   7.853 -2.6749 -0.5705  3.3681
  182SOPE  H12Y20863   1.064   4.741   7.978  0.6486  0.0074 -1.1354
  182SOPE  C31320864   1.045   4.518   7.999 -1.2726 -1.0126 -0.0830
  182SOPE  H13X20865   1.139   4.515   8.059  1.6166  1.1347 -4.0437
  182SOPE  H13Y20866   1.043   4.435   7.926  0.5725 -2.1368  1.0700
  182SOPE  C31420867   0.938   4.503   8.105  0.4347  0.1544  1.2597
  182SOPE  H14X20868   0.841   4.483   8.055 -0.7701  0.4711  3.3604
  182SOPE  H14Y20869   0.929   4.602   8.155 -0.1925  0.0555  1.3492
  182SOPE  C31520870   0.971   4.398   8.213  0.4687 -0.3004 -0.5661
  182SOPE  H15X20871   1.069   4.423   8.258  0.9991 -0.2967 -1.6969
  182SOPE  H15Y20872   0.973   4.304   8.154 -0.9446 -0.5956 -0.1813
  182SOPE  C31620873   0.863   4.373   8.316 -0.1410 -0.1352 -0.3851
  182SOPE  H16X20874   0.869   4.460   8.385 -3.1469 -1.0068  1.1826
  182SOPE  H16Y20875   0.885   4.271   8.354 -1.5932 -0.4897 -0.4358
  182SOPE  C31720876   0.717   4.364   8.276 -0.2046 -0.0593  0.1755
  182SOPE  H17X20877   0.695   4.461   8.227  0.5429  0.2207  0.3836
  182SOPE  H17Y20878   0.660   4.349   8.370  0.4916 -2.7540  0.2347
  182SOPE  C31820879   0.677   4.250   8.189  0.1614  0.2911  0.2765
  182SOPE  H18X20880   0.568   4.229   8.198  0.1622 -0.0916 -0.5515
  182SOPE  H18Y20881   0.727   4.155   8.218  0.4124  0.1329 -0.6432
  182SOPE  H18Z20882   0.709   4.270   8.085 -1.5174 -2.4662 -0.9046
  183SOPE     N20883   3.330   1.157   5.994 -0.2649  0.9682  0.4044
  183SOPE   HN120884   3.369   1.115   5.907 -1.9904  0.8396 -0.3455
  183SOPE   HN220885   3.407   1.172   6.062 -0.2775 -1.5495  1.0767
  183SOPE   HN320886   3.267   1.085   6.036  0.7572 -0.2738 -0.1119
  183SOPE   C1220887   3.269   1.287   5.975 -0.3584 -0.3862  0.4552
  183SOPE  H12A20888   3.224   1.324   6.070  0.7641  1.9514  0.1425
  183SOPE  H12B20889   3.197   1.283   5.890  1.7560 -0.0572 -1.4516
  183SOPE   C1120890   3.380   1.387   5.938 -0.3874  0.2082 -0.1290
  183SOPE  H11A20891   3.335   1.488   5.924 -1.3936 -0.1170  0.6246
  183SOPE  H11B20892   3.412   1.354   5.837  0.2830  1.5200 -0.3563
  183SOPE     P20893   3.502   1.512   6.132  0.2630  0.1341 -0.1636
  183SOPE   O1320894   3.455   1.640   6.078  0.3828 -0.1821  0.0230
  183SOPE   O1420895   3.630   1.524   6.188  0.1757 -0.2252 -0.4006
  183SOPE   O1220896   3.484   1.391   6.034 -0.5224 -0.6328 -0.0696
  183SOPE   O1120897   3.409   1.478   6.251  0.0151  0.3677 -0.6940
  183SOPE    C120898   3.418   1.359   6.327 -1.1804  0.3910 -0.1693
  183SOPE    HA20899   3.523   1.323   6.333 -1.4168 -0.1750  0.8287
  183SOPE    HB20900   3.355   1.281   6.279  1.2912 -1.7084 -0.1822
  183SOPE    C220901   3.372   1.380   6.466  0.4343  0.1363  0.4661
  183SOPE    HS20902   3.393   1.298   6.538  0.4867  0.0496  0.3522
  183SOPE   O2120903   3.229   1.410   6.467 -0.5934  0.0662  0.1313
  183SOPE   C2120904   3.153   1.306   6.456  0.9632  0.2774  0.0936
  183SOPE   O2220905   3.188   1.193   6.445 -0.0999  0.5301 -0.1166
  183SOPE   C2220906   3.014   1.353   6.472  0.4344 -0.4260 -0.4189
  183SOPE   H2R20907   2.939   1.278   6.438  0.9071 -1.6259  1.0457
  183SOPE   H2S20908   3.002   1.445   6.412  0.6403 -0.2354 -0.1701
  183SOPE    C320909   3.445   1.506   6.523  0.2912  0.6725  0.6071
  183SOPE    HX20910   3.391   1.591   6.475 -0.5793  1.5843  3.0548
  183SOPE    HY20911   3.551   1.501   6.490 -0.0086  0.9692 -0.4394
  183SOPE   O3120912   3.431   1.508   6.665 -0.7492  0.0884 -0.2484
  183SOPE   C3120913   3.394   1.619   6.729  0.2994  0.8521 -0.1056
  183SOPE   O3220914   3.368   1.727   6.681 -0.0278  0.5260  0.0215
  183SOPE   C3220915   3.354   1.569   6.871 -0.5390  0.1400 -0.4954
  183SOPE   H2X20916   3.435   1.528   6.935 -0.0016 -0.0695 -1.2993
  183SOPE   H2Y20917   3.295   1.479   6.847 -0.1314 -0.5057  0.7926
  183SOPE   C2320918   2.976   1.387   6.615  0.3674  0.4348 -0.0420
  183SOPE   H3R20919   2.878   1.437   6.626 -0.2775 -1.0346  1.2374
  183SOPE   H3S20920   3.056   1.454   6.654  2.2172 -1.1124 -0.9880
  183SOPE   C2420921   2.978   1.268   6.712  0.3730  0.0054 -0.8066
  183SOPE   H4R20922   2.897   1.201   6.677 -0.6266  0.8670 -0.1905
  183SOPE   H4S20923   3.073   1.214   6.695 -0.4545 -1.0782 -2.2130
  183SOPE   C2520924   2.978   1.316   6.859 -0.6552 -0.3137  0.4414
  183SOPE   H5R20925   3.066   1.383   6.867 -1.7678  1.4851 -1.4605
  183SOPE   H5S20926   2.889   1.382   6.867 -1.5761 -1.0417 -2.4737
  183SOPE   C2620927   2.980   1.209   6.968  0.6036  0.7266  0.0379
  183SOPE   H6R20928   2.885   1.152   6.963  0.8193  0.4815 -1.8697
  183SOPE   H6S20929   3.075   1.157   6.942  1.5934  2.0515  0.8458
  183SOPE   C2720930   2.987   1.285   7.108 -0.3837  0.0805  0.6589
  183SOPE   H7R20931   3.090   1.324   7.116  0.7651 -2.8943  2.2378
  183SOPE   H7S20932   2.909   1.363   7.120  1.0713  1.3187  2.7328
  183SOPE   C2820933   2.989   1.183   7.216  0.2544  0.1015  1.1366
  183SOPE   H8R20934   2.915   1.102   7.202 -0.1165  0.3212  1.7558
  183SOPE   H8S20935   3.082   1.124   7.199 -1.8094 -3.3608  0.8992
  183SOPE   C2920936   3.002   1.235   7.351  0.3090 -0.3672  0.1617
  183SOPE   H9120937   3.102   1.229   7.395 -0.0833  0.5437  1.2283
  183SOPE  C21020938   2.899   1.275   7.430  0.1389  0.1954  0.8825
  183SOPE  H10120939   2.920   1.307   7.534  0.5749  1.9029  0.3033
  183SOPE  C21120940   2.759   1.278   7.391  0.2337 -0.1403  1.1147
  183SOPE  H11R20941   2.734   1.246   7.288 -0.5701  1.0850  0.9120
  183SOPE  H11S20942   2.741   1.387   7.381  1.6058  0.0581  0.6158
  183SOPE  C21220943   2.658   1.211   7.488 -0.3139 -0.4096  0.1050
  183SOPE  H12R20944   2.670   1.257   7.589  0.8026 -0.5575  0.0484
  183SOPE  H12S20945   2.684   1.104   7.502 -1.6703 -0.6894  0.5954
  183SOPE  C21320946   2.516   1.223   7.439  0.2875 -1.0250 -0.1465
  183SOPE  H13R20947   2.504   1.239   7.330 -1.3217  2.8866  0.4179
  183SOPE  H13S20948   2.494   1.326   7.476  1.9700 -0.6306 -0.1855
  183SOPE  C21420949   2.419   1.129   7.511  0.5461  0.4379 -0.4040
  183SOPE  H14R20950   2.310   1.140   7.494 -0.1678 -1.8268  2.0954
  183SOPE  H14S20951   2.431   1.152   7.619  1.3050  0.2178 -0.4384
  183SOPE  C21520952   2.446   0.984   7.477  0.6696  0.6593 -0.0025
  183SOPE  H15R20953   2.546   0.944   7.504  0.0006 -0.5529  0.7486
  183SOPE  H15S20954   2.447   0.992   7.366 -1.3552 -0.1865 -0.1286
  183SOPE  C21620955   2.334   0.884   7.503  0.3538 -0.1750 -1.0414
  183SOPE  H16R20956   2.345   0.782   7.461 -0.3729 -1.1337  0.9400
  183SOPE  H16S20957   2.239   0.931   7.472 -0.2138 -1.0567 -0.6801
  183SOPE  C21720958   2.307   0.862   7.653  0.2628 -0.3352 -0.9564
  183SOPE  H17R20959   2.257   0.763   7.660  2.4915 -1.4546  0.3815
  183SOPE  H17S20960   2.236   0.937   7.694  1.6839 -0.2646  1.5352
  183SOPE  C21820961   2.428   0.864   7.742  0.1822 -0.7300  0.0914
  183SOPE  H18R20962   2.475   0.965   7.747  0.1021 -0.6755 -0.1911
  183SOPE  H18S20963   2.501   0.790   7.703  0.7040 -0.5762  0.7588
  183SOPE  H18T20964   2.388   0.839   7.842 -1.1383  0.6734 -0.0435
  183SOPE   C3320965   3.254   1.669   6.939  0.1390 -0.6406 -0.3424
  183SOPE   H3X20966   3.163   1.671   6.874 -1.3069 -0.1798  1.5956
  183SOPE   H3Y20967   3.306   1.767   6.939  1.1791 -1.0828 -3.7427
  183SOPE   C3420968   3.212   1.619   7.081  0.2069  0.4979 -0.0444
  183SOPE   H4X20969   3.305   1.596   7.137  0.4366  1.2047 -0.1278
  183SOPE   H4Y20970   3.176   1.514   7.069  1.4434 -0.0071  0.5027
  183SOPE   C3520971   3.125   1.711   7.161  0.1210 -0.7145  0.0367
  183SOPE   H5X20972   3.032   1.717   7.100  0.8708  0.4096 -1.0431
  183SOPE   H5Y20973   3.181   1.807   7.165 -0.7292 -0.1848 -0.4579
  183SOPE   C3620974   3.084   1.658   7.305  0.0843 -0.3625  0.0997
  183SOPE   H6X20975   3.169   1.622   7.367  1.0449  0.0260 -0.9663
  183SOPE   H6Y20976   3.022   1.569   7.283  0.2628 -0.5436  0.3249
  183SOPE   C3720977   3.001   1.753   7.392 -0.6583  0.1746 -0.7078
  183SOPE   H7X20978   2.932   1.817   7.333 -0.6182 -0.8867 -1.9515
  183SOPE   H7Y20979   3.069   1.821   7.448 -2.2421  0.2948  1.1569
  183SOPE   C3820980   2.919   1.685   7.504 -0.1050  0.0653  0.0055
  183SOPE   H8X20981   2.846   1.610   7.467  0.2049 -0.2055 -0.0672
  183SOPE   H8Y20982   2.860   1.758   7.564 -1.9177 -0.7281 -0.7379
  183SOPE   C3920983   3.007   1.605   7.598  0.4128 -0.1403 -0.1192
  183SOPE   H9X20984   3.096   1.664   7.630  0.5010 -0.5668  0.4415
  183SOPE   H9Y20985   3.062   1.519   7.554  1.6637 -0.4081  1.8520
  183SOPE  C31020986   2.933   1.559   7.727  0.8244  0.2268  0.1569
  183SOPE  H10X20987   2.867   1.473   7.705  1.0084 -0.0713  0.7366
  183SOPE  H10Y20988   2.871   1.643   7.766  1.6046  1.2185 -0.6639
  183SOPE  C31120989   3.028   1.512   7.843 -0.1243  0.2076  0.4559
  183SOPE  H11X20990   3.095   1.597   7.871 -0.4758  0.6157  0.0760
  183SOPE  H11Y20991   3.095   1.436   7.797 -0.1145 -0.1427  1.0426
  183SOPE  C31220992   2.967   1.454   7.971 -0.1573 -1.0692 -0.1741
  183SOPE  H12X20993   2.915   1.535   8.026 -0.0859 -0.7346 -0.5891
  183SOPE  H12Y20994   3.052   1.427   8.037 -1.3720  0.3783  2.1284
  183SOPE  C31320995   2.870   1.335   7.964 -0.3935  0.3246  0.1655
  183SOPE  H13X20996   2.925   1.245   7.930 -0.3871  1.3747 -2.9824
  183SOPE  H13Y20997   2.807   1.353   7.874 -2.5457 -1.4898  1.2069
  183SOPE  C31420998   2.801   1.322   8.098  1.0109  0.2389 -0.1816
  183SOPE  H14X20999   2.743   1.415   8.111  0.2959 -0.3853  1.2713
  183SOPE  H14Y21000   2.857   1.312   8.194 -1.3890 -0.8465  1.1999
  183SOPE  C31521001   2.694   1.211   8.101  0.0624 -0.2206  0.0839
  183SOPE  H15X21002   2.617   1.231   8.023 -0.4283  1.3391  0.9421
  183SOPE  H15Y21003   2.646   1.202   8.201  0.8545 -0.0486  0.4830
  183SOPE  C31621004   2.750   1.067   8.082 -0.4814 -0.5208  0.2523
  183SOPE  H16X21005   2.809   1.030   8.169 -2.7645 -2.9538  0.8805
  183SOPE  H16Y21006   2.798   1.066   7.981  0.9482 -0.9060  0.9068
  183SOPE  C31721007   2.633   0.967   8.056 -0.4235  0.7116 -0.3595
  183SOPE  H17X21008   2.547   0.997   7.992  0.0288  0.7502 -0.9524
  183SOPE  H17Y21009   2.590   0.941   8.155 -0.3927 -1.6045 -0.9084
  183SOPE  C31821010   2.669   0.828   7.998  0.8337 -0.3054 -0.4984
  183SOPE  H18X21011   2.584   0.757   7.986 -1.6230  2.5560 -1.4372
  183SOPE  H18Y21012   2.746   0.778   8.059 -0.6318 -0.8363  0.9815
  183SOPE  H18Z21013   2.707   0.847   7.895  2.4058  0.9686  0.2738
  184SOPE     N21014   3.708   0.410   6.228  0.8497  0.4841 -0.0676
  184SOPE   HN121015   3.673   0.438   6.135  2.3075  1.3978 -0.3531
  184SOPE   HN221016   3.692   0.493   6.288  1.6805  0.8860 -0.3954
  184SOPE   HN321017   3.809   0.389   6.219  0.8565  0.3904  0.2040
  184SOPE   C1221018   3.627   0.288   6.269 -1.1293 -0.1535 -0.6398
  184SOPE  H12A21019   3.680   0.252   6.360  0.3141  1.2748 -0.8773
  184SOPE  H12B21020   3.635   0.216   6.185  0.3866  0.4421 -1.0469
  184SOPE   C1121021   3.481   0.319   6.310  0.1613  0.3375  1.0901
  184SOPE  H11A21022   3.472   0.360   6.413  0.9370  0.2654  1.1930
  184SOPE  H11B21023   3.427   0.221   6.312  0.5322  0.0567 -0.9019
  184SOPE     P21024   3.272   0.423   6.183 -0.4095 -0.6005 -0.2572
  184SOPE   O1321025   3.233   0.294   6.124  0.2406  0.3032  0.6360
  184SOPE   O1421026   3.258   0.543   6.097  0.2230 -0.0328 -0.0873
  184SOPE   O1221027   3.431   0.421   6.218 -0.2824 -0.7217 -0.1158
  184SOPE   O1121028   3.204   0.438   6.322  0.1783 -0.4967 -0.1001
  184SOPE    C121029   3.240   0.534   6.424 -1.1060 -0.9216 -0.4231
  184SOPE    HA21030   3.301   0.614   6.377  0.3258 -0.0275  2.6966
  184SOPE    HB21031   3.289   0.483   6.510 -2.3093  0.9579  1.4692
  184SOPE    C221032   3.122   0.617   6.473  0.0265  0.3143  0.5422
  184SOPE    HS21033   3.085   0.676   6.387 -0.8153 -0.0397  0.6529
  184SOPE   O2121034   3.161   0.699   6.587 -0.0066 -0.1456 -0.4256
  184SOPE   C2121035   3.093   0.809   6.604 -0.3662  0.1288  0.8305
  184SOPE   O2221036   3.007   0.844   6.526  0.1482 -0.1905  0.1615
  184SOPE   C2221037   3.130   0.883   6.732 -0.3209  0.4530 -0.3264
  184SOPE   H2R21038   3.038   0.938   6.761  1.1116  1.1971  3.3344
  184SOPE   H2S21039   3.191   0.973   6.710  0.9396 -0.0809  0.8377
  184SOPE    C321040   2.998   0.526   6.510  0.2666  0.4766  0.1719
  184SOPE    HX21041   2.967   0.472   6.419  0.0256  0.1089  0.4675
  184SOPE    HY21042   2.903   0.578   6.534 -0.0893 -1.0694  2.4492
  184SOPE   O3121043   3.035   0.439   6.619  0.3578 -0.0561 -0.3781
  184SOPE   C3121044   3.046   0.309   6.589  0.9540  0.3134 -0.5222
  184SOPE   O3221045   2.993   0.258   6.493 -0.2002  0.4593  0.3391
  184SOPE   C3221046   3.117   0.243   6.707 -0.2483  0.6763  0.4703
  184SOPE   H2X21047   3.227   0.245   6.691 -0.0935  1.6377  1.4957
  184SOPE   H2Y21048   3.086   0.136   6.715 -1.3693  1.0861  2.4089
  184SOPE   C2321049   3.174   0.792   6.849 -0.6821 -0.0725 -0.7979
  184SOPE   H3R21050   3.283   0.770   6.852 -0.0619  2.6737 -0.4513
  184SOPE   H3S21051   3.118   0.696   6.845 -0.8259 -0.1289  1.5274
  184SOPE   C2421052   3.143   0.844   6.994  0.2579 -0.6629  1.1026
  184SOPE   H4R21053   3.177   0.949   6.998 -0.6741 -0.3540  1.2544
  184SOPE   H4S21054   3.033   0.844   7.010  0.2931  0.9564  1.5357
  184SOPE   C2521055   3.207   0.758   7.100  0.5810 -0.0664 -0.1281
  184SOPE   H5R21056   3.163   0.656   7.095  0.1316 -0.0068  1.8607
  184SOPE   H5S21057   3.315   0.755   7.075  0.7431  0.2606  0.5158
  184SOPE   C2621058   3.177   0.808   7.241 -0.4508  0.1309 -0.4421
  184SOPE   H6R21059   3.276   0.825   7.289  0.2566 -0.7634 -1.5120
  184SOPE   H6S21060   3.138   0.912   7.244 -0.5256  0.0975 -0.2769
  184SOPE   C2721061   3.088   0.723   7.330  0.7820 -0.7232 -0.1512
  184SOPE   H7R21062   2.987   0.722   7.284  0.4858 -0.9528  0.4824
  184SOPE   H7S21063   3.129   0.620   7.321 -2.0294 -2.0786  1.2521
  184SOPE   C2821064   3.101   0.763   7.483 -0.0894 -0.5737 -0.0201
  184SOPE   H8R21065   3.099   0.668   7.540  0.2486  0.6609  2.1731
  184SOPE   H8S21066   3.205   0.802   7.497 -0.3667  0.5894 -1.0266
  184SOPE   C2921067   2.996   0.863   7.534 -0.3955  0.1968  0.7360
  184SOPE   H9121068   2.897   0.853   7.487  0.8528 -1.6095 -1.7568
  184SOPE  C21021069   3.024   0.952   7.629  0.7704 -0.4687  0.2083
  184SOPE  H10121070   2.939   1.006   7.672 -0.9842 -1.4612 -1.8110
  184SOPE  C21121071   3.153   0.971   7.701  0.4736 -0.9250  0.9296
  184SOPE  H11R21072   3.153   1.078   7.731 -1.7708 -0.6954  0.3171
  184SOPE  H11S21073   3.236   0.962   7.627 -1.5896  0.7697 -1.7983
  184SOPE  C21221074   3.182   0.870   7.812 -0.5963 -0.5166 -0.9451
  184SOPE  H12R21075   3.271   0.899   7.873 -0.5237  0.2724 -1.4054
  184SOPE  H12S21076   3.190   0.770   7.765 -2.0330 -0.6573 -0.9472
  184SOPE  C21321077   3.065   0.844   7.912  0.1791 -0.4786  0.8850
  184SOPE  H13R21078   2.981   0.804   7.851  1.3085  0.8552 -1.6726
  184SOPE  H13S21079   3.047   0.944   7.956  2.0354  1.1238 -1.7479
  184SOPE  C21421080   3.099   0.738   8.017 -1.0192 -0.5666 -0.3040
  184SOPE  H14R21081   3.152   0.650   7.975 -0.4740 -0.3810 -0.0163
  184SOPE  H14S21082   3.004   0.693   8.053 -0.5338 -1.5292 -0.1981
  184SOPE  C21521083   3.173   0.800   8.139  0.3590 -0.5618 -0.4032
  184SOPE  H15R21084   3.116   0.886   8.181  0.1130  0.3950 -2.5227
  184SOPE  H15S21085   3.267   0.841   8.098 -1.7253  2.0545 -3.0759
  184SOPE  C21621086   3.185   0.706   8.261  0.3818 -0.1234  0.6318
  184SOPE  H16R21087   3.233   0.768   8.339  1.8613  0.8475 -0.9630
  184SOPE  H16S21088   3.254   0.625   8.230  1.4841  0.6152  1.0706
  184SOPE  C21721089   3.053   0.646   8.303 -0.0006 -0.1874  0.7507
  184SOPE  H17R21090   3.026   0.555   8.245  0.4083 -0.0001  0.2632
  184SOPE  H17S21091   2.976   0.723   8.282 -0.7113 -1.2398 -0.6692
  184SOPE  C21821092   3.065   0.609   8.450 -0.8425 -0.0796 -0.0132
  184SOPE  H18R21093   3.061   0.704   8.507 -0.6225 -0.7913  1.2203
  184SOPE  H18S21094   3.150   0.544   8.481  1.4216  2.2431 -1.0024
  184SOPE  H18T21095   2.974   0.557   8.487  0.6045 -2.2250  0.7529
  184SOPE   C3321096   3.091   0.311   6.842  0.6266 -1.3513 -0.1721
  184SOPE   H3X21097   2.985   0.344   6.851  1.8841  3.3855  0.3273
  184SOPE   H3Y21098   3.141   0.410   6.852  2.0498 -2.1721  1.6190
  184SOPE   C3421099   3.132   0.235   6.970 -0.4552  0.3151  0.3095
  184SOPE   H4X21100   3.242   0.218   6.963 -0.4001  0.3619  0.9909
  184SOPE   H4Y21101   3.099   0.129   6.975  0.0515 -0.0016 -1.9222
  184SOPE   C3521102   3.109   0.315   7.103  0.0645 -0.6489  0.1013
  184SOPE   H5X21103   3.000   0.335   7.117  0.1339  0.1906 -0.4621
  184SOPE   H5Y21104   3.170   0.408   7.100 -0.0839 -0.4824  1.5116
  184SOPE   C3621105   3.161   0.223   7.218  0.4726 -0.8280  0.5300
  184SOPE   H6X21106   3.270   0.211   7.198  0.3765  1.2832 -1.7624
  184SOPE   H6Y21107   3.113   0.124   7.235  1.7480 -1.4053  0.8442
  184SOPE   C3721108   3.150   0.301   7.347  0.1296 -0.5989 -0.3210
  184SOPE   H7X21109   3.045   0.337   7.358  0.6980  0.4694  2.7681
  184SOPE   H7Y21110   3.215   0.391   7.357 -1.3260  0.3193  1.6700
  184SOPE   C3821111   3.157   0.211   7.482  0.1713  0.0379  0.4332
  184SOPE   H8X21112   3.263   0.181   7.498 -0.0463 -0.3441  1.2205
  184SOPE   H8Y21113   3.101   0.116   7.464 -0.2829  0.3178  0.3640
  184SOPE   C3921114   3.102   0.286   7.601  0.1190 -0.2406 -0.8314
  184SOPE   H9X21115   2.993   0.264   7.611 -0.0164  0.7767  0.0818
  184SOPE   H9Y21116   3.122   0.395   7.590  0.5230 -0.3025 -0.7014
  184SOPE  C31021117   3.163   0.241   7.743  0.3182 -0.7508  0.1209
  184SOPE  H10X21118   3.273   0.254   7.751  0.2073  0.2001  0.3054
  184SOPE  H10Y21119   3.140   0.134   7.758  1.8173 -1.2154 -0.7401
  184SOPE  C31121120   3.111   0.326   7.858 -0.7904  0.1375 -0.1260
  184SOPE  H11X21121   3.126   0.432   7.832 -0.1501 -0.1516 -0.9667
  184SOPE  H11Y21122   3.179   0.313   7.945  0.0068  0.7661 -0.6558
  184SOPE  C31221123   2.964   0.300   7.902 -0.2014 -0.0363 -0.2835
  184SOPE  H12X21124   2.958   0.190   7.912  0.0589 -0.1432 -1.2247
  184SOPE  H12Y21125   2.893   0.328   7.821  1.8373  1.1263 -1.7649
  184SOPE  C31321126   2.938   0.378   8.027 -0.3071 -0.2514  0.6941
  184SOPE  H13X21127   2.913   0.483   8.003  0.0339 -0.3972 -0.3359
  184SOPE  H13Y21128   3.036   0.377   8.080  0.4742 -0.4479 -0.7122
  184SOPE  C31421129   2.842   0.313   8.130 -0.2194  0.6424 -0.1750
  184SOPE  H14X21130   2.887   0.216   8.162  0.8126  1.0187 -0.4548
  184SOPE  H14Y21131   2.751   0.290   8.070 -0.4355 -0.1198  0.4189
  184SOPE  C31521132   2.799   0.380   8.259  0.3377  0.0295 -0.1001
  184SOPE  H15X21133   2.891   0.409   8.314  0.2713 -0.1936  0.1331
  184SOPE  H15Y21134   2.743   0.311   8.326 -1.5891  0.2381 -1.4110
  184SOPE  C31621135   2.709   0.509   8.244 -0.4741 -0.2321 -0.5661
  184SOPE  H16X21136   2.612   0.469   8.209 -0.6588 -0.6608  0.4092
  184SOPE  H16Y21137   2.749   0.584   8.172 -0.5931  2.2408  1.7758
  184SOPE  C31721138   2.679   0.578   8.375 -0.9349  0.1198  0.4148
  184SOPE  H17X21139   2.657   0.685   8.355  1.4944  0.5779 -0.1040
  184SOPE  H17Y21140   2.776   0.592   8.427 -1.5905  4.1640  0.8643
  184SOPE  C31821141   2.589   0.501   8.474  0.6713  0.1993 -0.0648
  184SOPE  H18X21142   2.483   0.501   8.441  0.3537 -1.5583  0.7911
  184SOPE  H18Y21143   2.597   0.535   8.579 -0.9364 -1.3786  0.6266
  184SOPE  H18Z21144   2.627   0.397   8.465  0.5594  0.0929  0.6090
  185SAPI   C1221145   5.427   0.195  11.060 -0.4270  0.8507 -0.6496
  185SAPI    H221146   5.505   0.116  11.055 -2.0092 -0.7767 -0.8257
  185SAPI    O221147   5.327   0.140  11.145 -0.2211 -0.3906  0.5712
  185SAPI   HO221148   5.303   0.057  11.103  4.3364 -1.6253 -0.1261
  185SAPI   C1321149   5.491   0.320  11.127 -0.1966 -0.5799  0.3508
  185SAPI    H321150   5.578   0.330  11.059 -0.7273 -0.6939 -0.3544
  185SAPI    O321151   5.549   0.283  11.256 -0.1902 -0.4277 -0.5062
  185SAPI   HO321152   5.639   0.318  11.253 -0.1807 -0.4486 -0.4537
  185SAPI   C1421153   5.393   0.433  11.131  0.6916  0.5904 -0.5890
  185SAPI    H421154   5.310   0.398  11.196  1.9016 -1.2910  0.0439
  185SAPI    O421155   5.454   0.545  11.187 -0.1780 -0.2982  0.1085
  185SAPI   HO421156   5.411   0.572  11.268 -0.6805  1.4196 -0.6780
  185SAPI   C1521157   5.330   0.461  10.992 -0.1583  0.2933 -0.6177
  185SAPI    H521158   5.416   0.475  10.923  1.8145  1.2636  1.8571
  185SAPI    O521159   5.239   0.570  10.995  0.9275 -0.3350  0.1559
  185SAPI   HO521160   5.289   0.651  11.005  2.5644 -1.1167 -1.1953
  185SAPI   C1621161   5.267   0.342  10.934 -0.1736  0.4145 -0.5539
  185SAPI    H621162   5.197   0.298  11.009  1.0881  0.7591  0.8431
  185SAPI    O621163   5.206   0.358  10.806 -0.4076  0.4695  0.5018
  185SAPI   HO621164   5.176   0.272  10.775  0.1818 -0.4959  2.4702
  185SAPI   C1121165   5.371   0.221  10.926  0.1079  0.3018 -0.1262
  185SAPI    H121166   5.450   0.258  10.858  0.8022 -1.5923 -0.4064
  185SAPI     P21167   5.399  -0.013  10.801 -0.5320 -0.1191  0.0359
  185SAPI   O1321168   5.311  -0.129  10.763  0.7820  0.1580 -0.2805
  185SAPI   O1421169   5.525  -0.047  10.876 -0.3954 -0.3432 -0.3649
  185SAPI   O1221170   5.308   0.103  10.871  0.7783  0.3231  0.4781
  185SAPI   O1121171   5.436   0.054  10.670  0.5469  0.2598  0.3672
  185SAPI    C121172   5.455   0.005  10.538  0.1850  0.0492 -0.9222
  185SAPI    HA21173   5.361  -0.040  10.499  1.0729  0.2186 -3.4369
  185SAPI    HB21174   5.463   0.096  10.475 -1.2725  0.0164 -1.1936
  185SAPI    C221175   5.575  -0.081  10.523 -0.4823  0.4126  0.2248
  185SAPI    HS21176   5.586  -0.127  10.624 -0.6986 -0.2032 -0.0271
  185SAPI   O2121177   5.692  -0.001  10.493 -0.2407 -0.5010  0.5892
  185SAPI   C2121178   5.815  -0.062  10.513 -0.1539 -0.4622 -0.0543
  185SAPI   O2221179   5.821  -0.176  10.560  0.0610 -0.5654 -0.2910
  185SAPI   C2221180   5.933   0.034  10.482 -0.1214 -0.4797  0.6971
  185SAPI   H2R21181   5.889   0.088  10.396 -2.4081 -2.2644  0.6308
  185SAPI   H2S21182   5.947   0.104  10.568 -1.0243  1.2341 -0.4881
  185SAPI    C321183   5.549  -0.200  10.425  0.8427 -0.2095  0.4517
  185SAPI    HX21184   5.459  -0.254  10.460  0.1744 -1.1480 -2.4686
  185SAPI    HY21185   5.638  -0.266  10.415  0.6465 -0.2233 -1.6247
  185SAPI   O3121186   5.503  -0.145  10.298 -0.2949  0.0004 -0.0504
  185SAPI   C3121187   5.596  -0.118  10.205  0.6059 -0.6902 -0.4776
  185SAPI   O3221188   5.709  -0.159  10.203  0.1030  0.0679  0.6317
  185SAPI   C3221189   5.534  -0.017  10.105  0.1346  0.0096  0.0369
  185SAPI   H2X21190   5.586   0.079  10.125  0.3715  0.7692 -3.4467
  185SAPI   H2Y21191   5.427  -0.001  10.128  0.1336 -0.5196  0.4187
  185SAPI   C2321192   6.060  -0.033  10.446  0.1592  0.2575 -0.3919
  185SAPI   H3R21193   6.075  -0.112  10.523 -3.4170  1.1916  1.4544
  185SAPI   H3S21194   6.137   0.046  10.461  1.7206 -1.0263 -1.2869
  185SAPI   C2421195   6.059  -0.093  10.303 -0.4499 -0.4502  0.2763
  185SAPI   H4R21196   6.046  -0.012  10.229 -3.6441 -0.2117  0.9654
  185SAPI   H4S21197   5.975  -0.160  10.275  0.1683 -0.3439 -2.0610
  185SAPI   C2521198   6.189  -0.166  10.284 -0.4486 -0.3945  0.2065
  185SAPI   H5R21199   6.200  -0.254  10.349  0.9801  0.4373  1.1433
  185SAPI   C2621200   6.289  -0.128  10.201 -0.3600 -0.6272  0.5242
  185SAPI   H6R21201   6.379  -0.190  10.194  1.3096  1.8444 -1.4761
  185SAPI   C2721202   6.289  -0.009  10.116  0.4387  0.6470 -0.1777
  185SAPI   H7R21203   6.388   0.007  10.068  0.5262 -2.5468 -1.2649
  185SAPI   H7S21204   6.255   0.084  10.168 -0.0871 -0.3718  1.3653
  185SAPI   C2821205   6.207  -0.042   9.995 -0.1198  0.1909  0.2963
  185SAPI   H8R21206   6.136  -0.125  10.002 -1.0697  1.0913  2.5586
  185SAPI   C2921207   6.206   0.041   9.889 -0.8153  0.3164 -0.1259
  185SAPI   H9R21208   6.139   0.020   9.805 -0.4448 -1.4553 -0.0212
  185SAPI  C21021209   6.287   0.168   9.882 -0.1063 -0.1719 -0.1025
  185SAPI  H10R21210   6.362   0.143   9.804  1.7138 -0.3562  1.6345
  185SAPI  H10S21211   6.349   0.197   9.970 -2.7856  0.2080  1.7843
  185SAPI  C21121212   6.213   0.295   9.848 -0.2592 -0.2794 -0.2682
  185SAPI  H11R21213   6.165   0.347   9.933  1.8118 -1.7835  1.9568
  185SAPI  C21221214   6.180   0.340   9.727  0.0625  0.0535  0.0661
  185SAPI  H12R21215   6.119   0.431   9.729 -0.2692 -0.0978 -1.6974
  185SAPI  C21321216   6.211   0.290   9.589  0.0120 -0.0195 -0.5634
  185SAPI  H13R21217   6.270   0.196   9.593  1.1639  0.7298  1.5543
  185SAPI  H13S21218   6.269   0.370   9.539 -1.3886  0.8588 -0.8574
  185SAPI  C21421219   6.088   0.274   9.508  0.3201  0.7450 -0.1973
  185SAPI  H14R21220   6.009   0.346   9.532 -2.7935 -1.7128 -2.1591
  185SAPI  C21521221   6.059   0.186   9.406 -0.1699  0.0151 -0.2031
  185SAPI  H15R21222   5.960   0.197   9.360 -0.3839  1.6358  0.5625
  185SAPI  C21621223   6.152   0.085   9.344 -0.2494  0.4349  0.6589
  185SAPI  H16R21224   6.091   0.029   9.270  1.7669 -2.3755  0.9882
  185SAPI  H16S21225   6.195   0.025   9.427  2.4709  3.4625  1.6321
  185SAPI  C21721226   6.271   0.149   9.261 -0.2103  0.3525  0.1783
  185SAPI  H17R21227   6.343   0.075   9.221  0.4162 -0.2259  2.2995
  185SAPI  H17S21228   6.331   0.215   9.327 -0.4879 -0.2626  1.0616
  185SAPI  C21821229   6.221   0.230   9.140  0.5046  0.3389  0.4801
  185SAPI  H18R21230   6.152   0.307   9.181  0.5530 -0.1120  1.4276
  185SAPI  H18S21231   6.162   0.158   9.079  0.0950  3.0248 -2.6071
  185SAPI  C21921232   6.341   0.300   9.061  0.0578  0.4286  0.7132
  185SAPI  H19R21233   6.423   0.230   9.035  0.3284  0.1696  2.1748
  185SAPI  H19S21234   6.378   0.369   9.140 -1.1016  1.3520  0.4759
  185SAPI  C22021235   6.292   0.390   8.947  0.6379  0.0568 -0.2554
  185SAPI  H20R21236   6.231   0.330   8.876  0.3734  2.1337 -1.8781
  185SAPI  H20S21237   6.365   0.448   8.887  2.3667 -1.2261  0.4955
  185SAPI  H20T21238   6.221   0.464   8.990  3.2493  2.2818  0.4659
  185SAPI   C3321239   5.566  -0.065   9.959  0.5388 -0.4446 -0.1717
  185SAPI   H3X21240   5.535  -0.171   9.943 -1.4423  0.3715 -2.2810
  185SAPI   H3Y21241   5.676  -0.078   9.953  0.4993 -0.5171 -0.7740
  185SAPI   C3421242   5.515   0.031   9.853  0.3661  0.4111  0.1229
  185SAPI   H4X21243   5.564   0.128   9.876 -0.5693  0.8231  0.4345
  185SAPI   H4Y21244   5.405   0.048   9.861  0.2966 -0.1146  0.3415
  185SAPI   C3521245   5.543  -0.024   9.713 -0.0666 -0.4188  0.2447
  185SAPI   H5X21246   5.470   0.033   9.652 -0.6651  1.8952  2.9039
  185SAPI   H5Y21247   5.519  -0.131   9.701  0.3215 -0.6142  1.1417
  185SAPI   C3621248   5.689   0.007   9.668  0.1170 -0.0800 -0.1350
  185SAPI   H6X21249   5.752  -0.061   9.730  0.5247  0.0856 -0.3643
  185SAPI   H6Y21250   5.709   0.114   9.692 -0.4455 -0.3463  1.6899
  185SAPI   C3721251   5.720  -0.037   9.521  0.0513  0.3279 -0.3372
  185SAPI   H7X21252   5.685  -0.142   9.507  0.0979 -0.0103  1.8257
  185SAPI   H7Y21253   5.828  -0.029   9.500  0.5923 -3.0974  0.4915
  185SAPI   C3821254   5.673   0.060   9.405  0.0870  0.0811 -0.6078
  185SAPI   H8X21255   5.732   0.153   9.421  0.1654 -0.0213 -0.3053
  185SAPI   H8Y21256   5.565   0.086   9.399  0.2655  0.5998 -1.8562
  185SAPI   C3921257   5.705   0.002   9.268  0.5566 -0.0531  0.9003
  185SAPI   H9X21258   5.684  -0.106   9.284 -1.4873  0.0353 -0.7637
  185SAPI   H9Y21259   5.811   0.025   9.244  0.3702  1.2739  1.2627
  185SAPI  C31021260   5.617   0.052   9.149  0.2207  0.5159 -0.5856
  185SAPI  H10X21261   5.669   0.148   9.127  2.4934 -1.0222 -2.5134
  185SAPI  H10Y21262   5.510   0.062   9.177  0.5000  2.8686 -0.1799
  185SAPI  C31121263   5.638  -0.024   9.014 -0.7626  0.0189 -0.3648
  185SAPI  H11X21264   5.605  -0.129   9.029 -0.9137  0.3992  2.4445
  185SAPI  H11Y21265   5.742  -0.029   8.974 -0.9004  3.4744 -1.4640
  185SAPI  C31221266   5.544   0.025   8.902 -0.7191  0.3729  0.0151
  185SAPI  H12X21267   5.574   0.126   8.867  2.3082 -0.3835  0.1087
  185SAPI  H12Y21268   5.442   0.028   8.945 -0.8055  0.4042 -0.1910
  185SAPI  C31321269   5.548  -0.079   8.792  0.7367 -0.2445 -0.1310
  185SAPI  H13X21270   5.510  -0.179   8.824  1.2285 -0.2674  0.4052
  185SAPI  H13Y21271   5.651  -0.087   8.751  0.6226  0.6120 -0.6088
  185SAPI  C31421272   5.456  -0.048   8.670  0.0486  0.0571 -0.7748
  185SAPI  H14X21273   5.473   0.052   8.626 -0.6427  0.6820  0.3213
  185SAPI  H14Y21274   5.357  -0.040   8.720  0.9602 -1.6333  1.4950
  185SAPI  C31521275   5.460  -0.165   8.570 -0.3978 -0.5405  0.1512
  185SAPI  H15X21276   5.565  -0.195   8.548 -0.0385 -0.2241  1.3629
  185SAPI  H15Y21277   5.436  -0.135   8.465  1.6486  0.0236 -0.2071
  185SAPI  C31621278   5.375  -0.283   8.615  0.2995  0.2272  1.1585
  185SAPI  H16X21279   5.267  -0.256   8.606  0.2530 -0.5082 -1.1171
  185SAPI  H16Y21280   5.396  -0.305   8.722  1.2955  2.5376  1.5038
  185SAPI  C31721281   5.391  -0.406   8.520 -0.2071 -1.0614 -0.2681
  185SAPI  H17X21282   5.499  -0.430   8.510 -0.1810 -0.6173 -1.0993
  185SAPI  H17Y21283   5.352  -0.382   8.419 -1.0801 -1.1132  0.0532
  185SAPI  C31821284   5.306  -0.527   8.556  0.3684 -0.1792 -0.4901
  185SAPI  H18X21285   5.199  -0.498   8.552  0.7463  1.1937 -1.5398
  185SAPI  H18Y21286   5.318  -0.560   8.661 -1.0197  1.9927  0.4306
  185SAPI  H18Z21287   5.316  -0.605   8.478 -3.0996  1.0920 -2.4589
  186SAPI   C1221288   0.646   4.211  10.351 -0.4548  0.8335 -0.4876
  186SAPI    H221289   0.727   4.182  10.282 -1.9619 -1.1755 -1.5179
  186SAPI    O221290   0.579   4.324  10.290 -0.0122  0.6586  0.2514
  186SAPI   HO221291   0.581   4.308  10.195  2.8494 -0.9155  0.4640
  186SAPI   C1321292   0.552   4.094  10.367  0.5771  0.4241 -0.2977
  186SAPI    H321293   0.597   4.007  10.419  2.7367  1.0408 -1.0250
  186SAPI    O321294   0.507   4.052  10.235  0.4195 -0.3287  0.2237
  186SAPI   HO321295   0.444   3.981  10.248  0.9599 -0.9804 -0.6496
  186SAPI   C1421296   0.433   4.141  10.449 -1.0701  0.6615 -0.0905
  186SAPI    H421297   0.375   4.223  10.401 -0.8469  1.1463  0.4617
  186SAPI    O421298   0.338   4.039  10.452 -0.4311  0.1454 -0.1161
  186SAPI   HO421299   0.373   3.971  10.511  4.9908  2.7988  0.2648
  186SAPI   C1521300   0.482   4.181  10.586  1.1437 -0.2229  0.1419
  186SAPI    H521301   0.522   4.093  10.641 -1.7258 -0.8429  1.4141
  186SAPI    O521302   0.369   4.218  10.661  0.4715 -0.6381  0.7438
  186SAPI   HO521303   0.338   4.301  10.625 -0.3393 -2.4259 -3.1840
  186SAPI   C1621304   0.584   4.292  10.575 -0.5390 -0.1307 -0.3960
  186SAPI    H621305   0.543   4.387  10.535  0.8546  0.7158  0.0822
  186SAPI    O621306   0.632   4.319  10.709  0.2082 -0.5883 -0.2328
  186SAPI   HO621307   0.689   4.396  10.706  0.1227 -0.5458 -1.1490
  186SAPI   C1121308   0.695   4.249  10.483  0.1449  0.0082  0.4082
  186SAPI    H121309   0.742   4.160  10.530  0.3077  0.5820  1.3614
  186SAPI     P21310   0.956   4.332  10.471 -0.0073  0.0636 -0.7067
  186SAPI   O1321311   0.989   4.207  10.531  0.0840 -0.3563 -0.2291
  186SAPI   O1421312   1.017   4.450  10.535 -0.5007 -0.2947  0.3819
  186SAPI   O1221313   0.795   4.356  10.479  0.2581 -0.0324 -0.2028
  186SAPI   O1121314   1.009   4.333  10.324  0.3435  0.0120 -0.1383
  186SAPI    C121315   0.948   4.387  10.205 -0.1234  0.3969 -1.2386
  186SAPI    HA21316   0.843   4.351  10.196  0.1693 -0.8658  0.0712
  186SAPI    HB21317   0.946   4.498  10.215  2.0460  0.4432 -0.9177
  186SAPI    C221318   1.021   4.349  10.070  0.0652 -0.0685 -0.6076
  186SAPI    HS21319   1.028   4.238  10.064  2.0998 -0.2127  2.2069
  186SAPI   O2121320   1.154   4.403  10.078 -0.0209  0.4143  0.2078
  186SAPI   C2121321   1.249   4.326  10.018  0.4522 -0.4836 -0.1237
  186SAPI   O2221322   1.233   4.213   9.986  0.6676  0.0261 -0.8129
  186SAPI   C2221323   1.370   4.412   9.988  0.5237 -0.3741  0.6995
  186SAPI   H2R21324   1.446   4.340   9.948  0.5509  0.8909 -1.7039
  186SAPI   H2S21325   1.344   4.471   9.898 -0.5839  0.1399  1.3444
  186SAPI    C321326   0.944   4.401   9.944  0.2311  0.1855 -0.1559
  186SAPI    HX21327   0.947   4.512   9.949 -0.3270  0.1465  1.4339
  186SAPI    HY21328   0.841   4.365   9.965 -0.3168  2.2256  0.8884
  186SAPI   O3121329   0.994   4.345   9.814 -0.3880  0.2204  0.2292
  186SAPI   C3121330   0.984   4.427   9.714  0.0738 -0.5818  1.0468
  186SAPI   O3221331   0.936   4.539   9.716  0.4329 -0.3820  0.0489
  186SAPI   C3221332   1.008   4.350   9.584  0.1583 -0.3039 -0.9054
  186SAPI   H2X21333   1.004   4.241   9.605 -1.2057  0.1725  1.7491
  186SAPI   H2Y21334   1.112   4.384   9.564  1.1307 -2.2102  0.5773
  186SAPI   C2321335   1.435   4.506  10.093  0.4284 -0.4563 -0.0911
  186SAPI   H3R21336   1.463   4.448  10.184  1.3112 -0.4347 -0.3313
  186SAPI   H3S21337   1.363   4.586  10.120 -0.3005 -1.0816 -0.1681
  186SAPI   C2421338   1.558   4.576  10.034  0.3895 -0.2742  0.4805
  186SAPI   H4R21339   1.595   4.662  10.095  0.7193  0.2147 -0.3888
  186SAPI   H4S21340   1.521   4.632   9.945  0.0154 -1.5211 -0.1702
  186SAPI   C2521341   1.672   4.483  10.003 -0.5584 -0.1365  0.9823
  186SAPI   H5R21342   1.675   4.387  10.056  1.1738 -1.0671 -0.6629
  186SAPI   C2621343   1.759   4.502   9.899  0.3358 -0.3637  0.2732
  186SAPI   H6R21344   1.841   4.431   9.883  0.9145 -0.4978  3.1680
  186SAPI   C2721345   1.768   4.623   9.812 -0.3202 -0.3997 -0.5637
  186SAPI   H7R21346   1.787   4.708   9.881  2.3176 -0.8282 -0.6498
  186SAPI   H7S21347   1.673   4.633   9.755 -0.3228  2.7051 -0.2165
  186SAPI   C2821348   1.877   4.628   9.705 -0.3171  0.0399  0.5797
  186SAPI   H8R21349   1.960   4.558   9.721  0.4115  0.8958  0.5973
  186SAPI   C2921350   1.879   4.712   9.602  0.5234 -0.1584 -0.1622
  186SAPI   H9R21351   1.973   4.709   9.546  0.9269 -1.3187  0.5398
  186SAPI  C21021352   1.770   4.817   9.567 -0.0441  0.0535  0.4015
  186SAPI  H10R21353   1.808   4.921   9.567  1.8767 -0.5580  2.8958
  186SAPI  H10S21354   1.697   4.822   9.650 -1.8524 -0.7344 -1.0737
  186SAPI  C21121355   1.694   4.787   9.441  0.3228 -0.2865 -0.2479
  186SAPI  H11R21356   1.606   4.723   9.457  0.2830  0.3084  2.2097
  186SAPI  C21221357   1.740   4.810   9.326 -0.4046 -0.5489  0.9196
  186SAPI  H12R21358   1.675   4.805   9.238  0.6314  0.5360  0.0564
  186SAPI  C21321359   1.868   4.875   9.287  0.4022  0.9160  0.2830
  186SAPI  H13R21360   1.948   4.798   9.276 -1.1806 -1.0073  1.6368
  186SAPI  H13S21361   1.902   4.946   9.365 -0.2954  0.7435  0.7464
  186SAPI  C21421362   1.868   4.928   9.149 -0.4096  0.0623  0.6001
  186SAPI  H14R21363   1.858   4.848   9.073  2.1906 -1.0124  1.2494
  186SAPI  C21521364   1.867   5.055   9.112  0.0227 -0.5265  0.1333
  186SAPI  H15R21365   1.868   5.083   9.005 -1.9500 -0.6581  0.0437
  186SAPI  C21621366   1.863   5.182   9.196 -0.3233  0.4573  0.0590
  186SAPI  H16R21367   1.877   5.158   9.304  1.3829 -1.3900 -0.5124
  186SAPI  H16S21368   1.768   5.235   9.179 -0.1761  0.2724 -1.4536
  186SAPI  C21721369   1.980   5.273   9.153  0.2465  0.0531 -0.1508
  186SAPI  H17R21370   1.974   5.303   9.046  0.9555  0.7031 -0.0251
  186SAPI  H17S21371   2.073   5.213   9.149  1.0293  1.2704 -1.5731
  186SAPI  C21821372   2.004   5.406   9.237 -0.1025  0.4257 -0.5353
  186SAPI  H18R21373   1.934   5.490   9.217  2.0352  2.5654  0.4843
  186SAPI  H18S21374   2.106   5.429   9.199 -0.9277  2.4059 -1.6846
  186SAPI  C21921375   2.028   5.389   9.390 -0.1635  0.3376  0.7779
  186SAPI  H19R21376   2.104   5.308   9.397 -0.8580 -0.3449  0.4655
  186SAPI  H19S21377   1.938   5.354   9.445  0.9968 -1.9550  1.3605
  186SAPI  C22021378   2.078   5.510   9.462 -0.6844 -0.0581 -1.1370
  186SAPI  H20R21379   2.113   5.473   9.560 -0.7603 -1.6887 -1.7019
  186SAPI  H20S21380   1.991   5.579   9.468 -0.9064 -0.4436  0.7820
  186SAPI  H20T21381   2.168   5.555   9.415  0.2078 -1.1910 -0.5507
  186SAPI   C3321382   0.921   4.399   9.462  0.0402  0.2287  0.3558
  186SAPI   H3X21383   0.916   4.510   9.462  0.1222  0.2848 -1.9698
  186SAPI   H3Y21384   0.822   4.350   9.470  0.3635 -0.2401  1.6920
  186SAPI   C3421385   0.981   4.358   9.327  0.2060  0.5999  0.2241
  186SAPI   H4X21386   0.994   4.248   9.340  0.2260  0.6467  0.6264
  186SAPI   H4Y21387   1.084   4.392   9.300  0.6739  0.1490  1.3608
  186SAPI   C3521388   0.866   4.373   9.226 -0.2731 -0.0835 -0.7436
  186SAPI   H5X21389   0.785   4.304   9.259  1.4371 -1.9895 -0.2882
  186SAPI   H5Y21390   0.914   4.336   9.133 -0.8393 -0.1913 -0.9992
  186SAPI   C3621391   0.821   4.516   9.204  0.0219  0.2589  0.2967
  186SAPI   H6X21392   0.904   4.589   9.189  0.3881 -0.3958 -1.0696
  186SAPI   H6Y21393   0.764   4.544   9.295  0.3686 -2.8427  1.5912
  186SAPI   C3721394   0.748   4.538   9.068  1.0008 -0.2881  0.2360
  186SAPI   H7X21395   0.719   4.645   9.062 -2.8230 -1.2280 -0.6233
  186SAPI   H7Y21396   0.663   4.469   9.056 -1.3102  2.0203  2.1992
  186SAPI   C3821397   0.846   4.508   8.948 -0.2241 -0.1202 -0.0857
  186SAPI   H8X21398   0.856   4.402   8.919  0.8457 -0.2194  0.6023
  186SAPI   H8Y21399   0.942   4.537   8.996  0.6118 -1.3010 -0.9789
  186SAPI   C3921400   0.847   4.581   8.813  0.3608  0.6433 -0.4111
  186SAPI   H9X21401   0.799   4.681   8.814 -0.6650  0.2441 -2.9171
  186SAPI   H9Y21402   0.783   4.526   8.741 -2.2106  1.7033  0.9355
  186SAPI  C31021403   0.989   4.600   8.761  0.0153 -0.7883  0.8032
  186SAPI  H10X21404   1.068   4.628   8.834  0.1597  0.0479  0.3388
  186SAPI  H10Y21405   0.978   4.679   8.684  0.3754 -1.4740  0.0420
  186SAPI  C31121406   1.041   4.474   8.695 -0.2849 -0.2168  0.7813
  186SAPI  H11X21407   0.979   4.451   8.606 -0.4521 -1.5540  1.2133
  186SAPI  H11Y21408   1.031   4.390   8.768 -0.0629  1.1042  2.4084
  186SAPI  C31221409   1.188   4.476   8.666 -0.2323 -0.3653 -0.5450
  186SAPI  H12X21410   1.250   4.474   8.759  1.3911 -0.1112 -1.5826
  186SAPI  H12Y21411   1.213   4.574   8.619  0.5819  0.0631  0.7144
  186SAPI  C31321412   1.229   4.372   8.555  0.1626 -0.5225 -0.8351
  186SAPI  H13X21413   1.151   4.375   8.477 -0.7142 -0.4650  0.0258
  186SAPI  H13Y21414   1.224   4.269   8.596  0.1863 -1.1634 -2.3632
  186SAPI  C31421415   1.361   4.399   8.493  0.2547  0.0370  0.1328
  186SAPI  H14X21416   1.427   4.383   8.581  1.0143 -2.7853 -0.8149
  186SAPI  H14Y21417   1.376   4.506   8.468  3.7457 -0.3247  0.1495
  186SAPI  C31521418   1.398   4.312   8.372 -0.0244 -0.0648 -0.5614
  186SAPI  H15X21419   1.322   4.320   8.292 -0.3647 -0.8224 -0.3218
  186SAPI  H15Y21420   1.392   4.204   8.396 -2.1248 -0.1444 -1.2847
  186SAPI  C31621421   1.542   4.340   8.320  1.0363 -0.5271 -0.2880
  186SAPI  H16X21422   1.580   4.444   8.313 -0.2588  0.0023  0.2496
  186SAPI  H16Y21423   1.542   4.301   8.216  1.4983 -2.0665  0.2627
  186SAPI  C31721424   1.645   4.248   8.400 -0.1237 -0.2902  0.1154
  186SAPI  H17X21425   1.617   4.142   8.383 -2.6394  0.2880  0.2935
  186SAPI  H17Y21426   1.643   4.278   8.507  1.1584  3.5225 -0.7472
  186SAPI  C31821427   1.791   4.282   8.362  0.2469  0.5588  0.5178
  186SAPI  H18X21428   1.805   4.222   8.269 -0.9787  0.4226  0.4017
  186SAPI  H18Y21429   1.864   4.241   8.434  1.9678  0.9713 -0.9244
  186SAPI  H18Z21430   1.821   4.388   8.345  1.4689  0.4317  1.7786
  187SAPI   C1221431   4.111   3.661   6.381  0.2502  0.5132  0.8794
  187SAPI    H221432   4.097   3.720   6.474 -1.6879 -0.5148  1.2998
  187SAPI    O221433   4.143   3.537   6.437 -0.7522  0.4087 -0.0846
  187SAPI   HO221434   4.233   3.552   6.469 -1.2668  2.0663  0.6746
  187SAPI   C1321435   3.978   3.648   6.305 -0.7748 -0.1162 -0.1293
  187SAPI    H321436   3.959   3.752   6.269 -1.1761 -0.5462 -1.1963
  187SAPI    O321437   3.867   3.626   6.395 -0.4079 -0.1138 -0.1128
  187SAPI   HO321438   3.897   3.557   6.454  0.5454 -0.0818 -0.5481
  187SAPI   C1421439   3.983   3.559   6.180 -0.2355  0.7140 -0.1322
  187SAPI    H421440   4.026   3.460   6.208 -1.9268 -0.0931 -0.3042
  187SAPI    O421441   3.854   3.543   6.123 -0.3727 -0.6765  0.0119
  187SAPI   HO421442   3.827   3.457   6.156 -1.4053 -0.5586 -0.4814
  187SAPI   C1521443   4.087   3.628   6.081  0.4272  0.9695  0.2588
  187SAPI    H521444   4.050   3.730   6.058 -0.5728  0.9636  1.6997
  187SAPI    O521445   4.088   3.550   5.963 -0.3242  0.1686 -0.2681
  187SAPI   HO521446   4.022   3.595   5.910 -2.0105  0.7572  2.1568
  187SAPI   C1621447   4.220   3.649   6.148 -0.2784  0.1677 -0.6718
  187SAPI    H621448   4.270   3.552   6.170  1.0392  0.7421 -1.0594
  187SAPI    O621449   4.308   3.724   6.068 -0.0262  0.2397  0.3317
  187SAPI   HO621450   4.385   3.666   6.066 -0.1606  0.0343  0.8424
  187SAPI   C1121451   4.212   3.724   6.281  0.1737  0.2674 -0.2804
  187SAPI    H121452   4.182   3.830   6.264  2.8636  0.9947 -0.9248
  187SAPI     P21453   4.443   3.851   6.356 -0.2173 -0.1627  0.0531
  187SAPI   O1321454   4.409   3.960   6.261  0.0110 -0.7691  0.2148
  187SAPI   O1421455   4.583   3.802   6.350  0.0078  0.6997 -0.0723
  187SAPI   O1221456   4.342   3.724   6.341  0.6574 -0.2708  0.3197
  187SAPI   O1121457   4.420   3.898   6.503 -0.1958  0.3278 -0.1082
  187SAPI    C121458   4.338   4.015   6.533  0.0820 -0.3058 -0.4566
  187SAPI    HA21459   4.378   4.108   6.488  0.7212 -0.4660 -0.2319
  187SAPI    HB21460   4.230   4.008   6.506  0.4528  0.4205 -2.2200
  187SAPI    C221461   4.330   4.025   6.688 -0.1247  0.1684 -0.0405
  187SAPI    HS21462   4.244   4.092   6.712  1.8502  3.1540 -0.6471
  187SAPI   O2121463   4.459   4.074   6.737  0.3982 -0.2397  0.0920
  187SAPI   C2121464   4.491   4.206   6.714  0.4194  0.2325 -0.4216
  187SAPI   O2221465   4.425   4.284   6.649 -0.2086 -0.9000 -0.0848
  187SAPI   C2221466   4.621   4.243   6.780  0.0784 -0.1125 -0.4834
  187SAPI   H2R21467   4.676   4.149   6.804 -0.4205 -0.7490 -1.7545
  187SAPI   H2S21468   4.672   4.316   6.714  1.1521 -1.4096 -1.1615
  187SAPI    C321469   4.309   3.882   6.750 -0.0570 -0.2678  0.2467
  187SAPI    HX21470   4.404   3.824   6.743 -0.2915 -0.4910 -2.3847
  187SAPI    HY21471   4.234   3.826   6.689  0.0351  0.3409 -0.4355
  187SAPI   O3121472   4.262   3.888   6.887  0.4699 -0.6845 -0.0621
  187SAPI   C3121473   4.266   3.775   6.958  0.1655  0.8657  0.0197
  187SAPI   O3221474   4.294   3.661   6.911 -0.6330  0.1026  0.2212
  187SAPI   C3221475   4.234   3.809   7.104 -0.3138 -0.6059  0.2983
  187SAPI   H2X21476   4.168   3.897   7.117  1.1459  0.5291  0.3028
  187SAPI   H2Y21477   4.332   3.819   7.157  0.1882 -1.3849 -0.4483
  187SAPI   C2321478   4.602   4.308   6.916 -0.1473 -0.0169 -0.5730
  187SAPI   H3R21479   4.529   4.392   6.922 -1.8037 -1.4086 -0.5036
  187SAPI   H3S21480   4.699   4.355   6.940 -0.0636  0.0766 -1.0832
  187SAPI   C2421481   4.585   4.209   7.028 -0.4363 -0.4026 -0.5288
  187SAPI   H4R21482   4.682   4.159   7.047 -0.2429  0.3979  0.6670
  187SAPI   H4S21483   4.527   4.119   6.997  0.3828 -1.0731 -0.1376
  187SAPI   C2521484   4.533   4.280   7.154 -0.4973  0.4720 -0.3827
  187SAPI   H5R21485   4.600   4.350   7.206  0.0015  0.9509 -1.6278
  187SAPI   C2621486   4.412   4.251   7.206 -0.3057 -0.7920 -0.0649
  187SAPI   H6R21487   4.364   4.315   7.281 -0.6075  0.6551 -1.4410
  187SAPI   C2721488   4.312   4.151   7.151  0.5225 -0.1756  0.0708
  187SAPI   H7R21489   4.250   4.119   7.237  0.0483  1.2731  0.2933
  187SAPI   H7S21490   4.366   4.056   7.130 -1.1760 -2.1253  3.6917
  187SAPI   C2821491   4.231   4.201   7.033  0.2731  0.2734  0.3494
  187SAPI   H8R21492   4.277   4.197   6.933 -1.2519 -2.2511 -0.3666
  187SAPI   C2921493   4.109   4.256   7.042 -0.1196 -0.0588 -0.3305
  187SAPI   H9R21494   4.061   4.292   6.950 -0.0559 -2.5320 -1.4141
  187SAPI  C21021495   4.034   4.275   7.173 -0.1685 -0.6752 -0.5788
  187SAPI  H10R21496   4.015   4.382   7.192  0.9953 -0.9336  2.6316
  187SAPI  H10S21497   4.093   4.229   7.255  3.3039  2.3951 -1.1223
  187SAPI  C21121498   3.897   4.196   7.175 -0.8997  0.0172 -0.0186
  187SAPI  H11R21499   3.829   4.247   7.106  2.0895  1.6128 -2.0518
  187SAPI  C21221500   3.870   4.091   7.256 -0.1570 -0.1945  0.5669
  187SAPI  H12R21501   3.768   4.052   7.248  1.0523 -3.3694 -1.2136
  187SAPI  C21321502   3.964   4.036   7.363 -0.7159  0.6849 -0.4673
  187SAPI  H13R21503   4.066   4.038   7.318 -1.0003  1.0417 -1.1034
  187SAPI  H13S21504   3.943   3.927   7.372  0.5539  0.4025 -0.7700
  187SAPI  C21421505   3.964   4.102   7.494 -0.2732 -0.2813  0.0088
  187SAPI  H14R21506   3.880   4.165   7.524  1.2309  1.6645  0.3702
  187SAPI  C21521507   4.073   4.111   7.565 -0.3458  0.2503  0.0728
  187SAPI  H15R21508   4.068   4.178   7.653 -1.1029  0.5895 -0.2137
  187SAPI  C21621509   4.205   4.038   7.543  0.2517 -0.0854 -0.8022
  187SAPI  H16R21510   4.225   4.013   7.436  0.8918  2.3992 -1.3417
  187SAPI  H16S21511   4.196   3.939   7.592 -2.1734  0.3165 -0.3196
  187SAPI  C21721512   4.340   4.111   7.592  0.4243  0.8313  0.8609
  187SAPI  H17R21513   4.340   4.103   7.702  0.0512 -2.5191  0.7144
  187SAPI  H17S21514   4.347   4.215   7.554  3.1009  0.8891  1.2602
  187SAPI  C21821515   4.462   4.038   7.535 -0.5858  0.5647 -0.1714
  187SAPI  H18R21516   4.487   4.080   7.435 -3.9214  0.0903 -1.3392
  187SAPI  H18S21517   4.433   3.932   7.521  0.1663  0.2829  0.3641
  187SAPI  C21921518   4.576   4.061   7.636  0.1754 -0.1428  0.7347
  187SAPI  H19R21519   4.561   4.027   7.740  1.6892 -2.8871  0.1508
  187SAPI  H19S21520   4.597   4.170   7.645 -1.4140  0.1978  0.6767
  187SAPI  C22021521   4.707   3.991   7.584  0.2725 -0.1232  0.2743
  187SAPI  H20R21522   4.737   3.901   7.641  1.2167  0.4964  0.7818
  187SAPI  H20S21523   4.792   4.062   7.593 -0.3108  0.3928  2.4629
  187SAPI  H20T21524   4.698   3.969   7.476 -0.2773 -3.4282  0.8903
  187SAPI   C3321525   4.158   3.689   7.173 -0.4050  0.4307 -0.1981
  187SAPI   H3X21526   4.192   3.588   7.139 -0.8666  0.0934  0.3140
  187SAPI   H3Y21527   4.050   3.704   7.151 -0.1909  2.5125 -0.0081
  187SAPI   C3421528   4.171   3.697   7.326 -0.5772 -0.0252  0.4085
  187SAPI   H4X21529   4.115   3.786   7.361  0.7525  0.5773  1.1004
  187SAPI   H4Y21530   4.279   3.719   7.344 -0.0237 -3.6700  2.5772
  187SAPI   C3521531   4.135   3.581   7.415 -0.0357 -0.1476  0.1074
  187SAPI   H5X21532   4.201   3.493   7.404  0.3343  0.0037  0.9882
  187SAPI   H5Y21533   4.028   3.562   7.395 -0.1252 -1.0296  1.3094
  187SAPI   C3621534   4.150   3.625   7.565 -0.0392  0.6013  0.5894
  187SAPI   H6X21535   4.098   3.553   7.631  0.6374 -1.0301 -0.5868
  187SAPI   H6Y21536   4.109   3.728   7.570  0.2491  0.7638 -0.1620
  187SAPI   C3721537   4.289   3.628   7.624  0.8597  1.4266  0.7616
  187SAPI   H7X21538   4.344   3.717   7.587 -0.0078  1.3309 -0.8240
  187SAPI   H7Y21539   4.350   3.543   7.586 -0.2647  0.3744  1.2248
  187SAPI   C3821540   4.296   3.637   7.776 -0.0396 -0.6362 -0.7008
  187SAPI   H8X21541   4.404   3.619   7.795  0.3982  0.9353 -1.5553
  187SAPI   H8Y21542   4.232   3.557   7.817  1.0242 -1.2494 -0.1960
  187SAPI   C3921543   4.252   3.769   7.841 -0.3784 -0.7346 -0.2653
  187SAPI   H9X21544   4.153   3.803   7.804 -0.1962  1.2981  0.9988
  187SAPI   H9Y21545   4.328   3.848   7.819 -1.2900  0.3289  0.3203
  187SAPI  C31021546   4.256   3.757   7.996 -0.1376 -0.6221  0.4130
  187SAPI  H10X21547   4.365   3.756   8.017 -0.4891 -0.6702  2.4198
  187SAPI  H10Y21548   4.214   3.658   8.025 -0.0236  0.0079  2.9420
  187SAPI  C31121549   4.186   3.878   8.069 -0.1159 -0.2956 -0.0832
  187SAPI  H11X21550   4.076   3.869   8.078 -0.2121  0.3567 -0.5215
  187SAPI  H11Y21551   4.204   3.962   7.998 -1.3845 -0.3553 -0.5090
  187SAPI  C31221552   4.247   3.904   8.206  0.8663  0.3560 -0.0892
  187SAPI  H12X21553   4.353   3.939   8.211  1.3177 -1.1395  2.4198
  187SAPI  H12Y21554   4.250   3.799   8.243 -3.4087 -0.3778 -1.3673
  187SAPI  C31321555   4.174   4.001   8.304  0.2911  0.5102  0.0698
  187SAPI  H13X21556   4.069   3.965   8.310  0.2356  0.7466  0.6592
  187SAPI  H13Y21557   4.151   4.105   8.271  0.6676  0.4247 -0.4749
  187SAPI  C31421558   4.236   4.009   8.444 -0.9887  0.2045  0.5640
  187SAPI  H14X21559   4.347   4.007   8.434 -0.8282 -1.3354  2.1836
  187SAPI  H14Y21560   4.199   3.920   8.499  0.5708 -2.3584 -2.2006
  187SAPI  C31521561   4.204   4.139   8.516 -0.0706 -0.0723  0.9123
  187SAPI  H15X21562   4.094   4.143   8.528 -0.1911  1.6243 -0.3365
  187SAPI  H15Y21563   4.223   4.228   8.452 -1.8227 -0.3211 -0.0208
  187SAPI  C31621564   4.287   4.140   8.645  0.0756  0.6970  0.3280
  187SAPI  H16X21565   4.389   4.172   8.613  0.5931 -2.5753 -1.7018
  187SAPI  H16Y21566   4.289   4.043   8.698  1.6629  1.0676  1.0339
  187SAPI  C31721567   4.249   4.260   8.730  0.4767 -0.8736  0.4935
  187SAPI  H17X21568   4.318   4.258   8.817 -0.6348  0.0343  1.4197
  187SAPI  H17Y21569   4.145   4.236   8.758 -0.1864  1.6089  0.4096
  187SAPI  C31821570   4.263   4.393   8.671 -0.1561 -0.2929  0.1036
  187SAPI  H18X21571   4.186   4.423   8.597  0.7187  0.0408 -0.6728
  187SAPI  H18Y21572   4.364   4.403   8.627 -0.5990 -0.3719 -0.9451
  187SAPI  H18Z21573   4.254   4.468   8.753  0.0466  0.6810 -0.7488
  188SAPI   C1221574   4.990   1.965   6.167  0.0907 -0.1194  0.4047
  188SAPI    H221575   4.923   2.028   6.230 -0.4389  2.3431 -2.3861
  188SAPI    O221576   4.933   1.989   6.036 -0.4230  0.3542 -0.2018
  188SAPI   HO221577   4.880   2.069   6.042 -0.0865  0.6806 -1.3299
  188SAPI   C1321578   5.130   2.020   6.191  0.2704 -0.7607 -0.0890
  188SAPI    H321579   5.166   1.997   6.293  1.5302 -2.3820 -0.8461
  188SAPI    O321580   5.136   2.164   6.174 -0.3751 -0.0167 -0.0205
  188SAPI   HO321581   5.221   2.186   6.212  0.3470 -3.1395  0.4313
  188SAPI   C1421582   5.233   1.941   6.099  0.3977 -0.2664 -0.1045
  188SAPI    H421583   5.200   1.972   5.998 -1.7377  1.9759  1.1747
  188SAPI    O421584   5.367   1.994   6.115  0.5382 -0.4417  0.0288
  188SAPI   HO421585   5.388   1.976   6.206  0.0424  0.7631  0.3949
  188SAPI   C1521586   5.223   1.785   6.120 -0.6762 -0.8107 -0.2415
  188SAPI    H521587   5.270   1.761   6.218 -1.2199  1.1217  0.5216
  188SAPI    O521588   5.300   1.717   6.017  0.3084  0.2639  0.2774
  188SAPI   HO521589   5.327   1.633   6.054  3.9263  1.0873 -0.1265
  188SAPI   C1621590   5.083   1.740   6.111  0.2045 -1.2615 -0.1112
  188SAPI    H621591   5.045   1.760   6.009 -1.6108 -0.3384  0.6984
  188SAPI    O621592   5.071   1.600   6.132  0.0403 -0.2293 -0.6148
  188SAPI   HO621593   4.981   1.590   6.164 -0.3781  2.8406 -0.5205
  188SAPI   C1121594   4.985   1.816   6.206 -0.0289  0.4237 -0.2990
  188SAPI    H121595   5.033   1.806   6.305  0.6284  1.2443 -0.5199
  188SAPI     P21596   4.745   1.774   6.334 -0.0420 -0.2758 -0.0681
  188SAPI   O1321597   4.611   1.779   6.274  0.3713  0.8722  0.1043
  188SAPI   O1421598   4.783   1.879   6.429  0.1443  0.1931  0.2165
  188SAPI   O1221599   4.847   1.772   6.212 -0.8218 -0.0764  0.2368
  188SAPI   O1121600   4.766   1.635   6.406 -0.1601 -0.0635  0.3596
  188SAPI    C121601   4.664   1.569   6.471 -0.4043 -0.0053 -0.7655
  188SAPI    HA21602   4.579   1.532   6.410 -1.4075  1.9997 -0.6435
  188SAPI    HB21603   4.714   1.474   6.500  2.7380  1.9399  0.6144
  188SAPI    C221604   4.620   1.631   6.608 -0.1336 -0.3708 -0.3598
  188SAPI    HS21605   4.559   1.723   6.592 -1.6319 -1.2031  0.3623
  188SAPI   O2121606   4.737   1.662   6.686 -0.0173  0.3808 -0.1997
  188SAPI   C2121607   4.742   1.771   6.756  0.4242  0.4368 -0.3372
  188SAPI   O2221608   4.646   1.848   6.771 -0.1543 -0.2491 -0.0971
  188SAPI   C2221609   4.884   1.795   6.802 -0.1280 -0.2391  0.3195
  188SAPI   H2R21610   4.915   1.718   6.875  1.9039 -0.3552 -0.5921
  188SAPI   H2S21611   4.947   1.775   6.712 -0.6802 -1.1084  0.1094
  188SAPI    C321612   4.538   1.524   6.680 -0.0559 -0.1364  0.3419
  188SAPI    HX21613   4.598   1.432   6.663 -0.6967 -0.2180 -1.8628
  188SAPI    HY21614   4.438   1.529   6.631  0.0497  0.2535  0.1583
  188SAPI   O3121615   4.525   1.561   6.820 -0.2788  0.3795  0.1620
  188SAPI   C3121616   4.473   1.462   6.887  0.2080  0.6857 -0.3819
  188SAPI   O3221617   4.419   1.363   6.839 -0.5827  0.3894 -0.3324
  188SAPI   C3221618   4.476   1.491   7.040  0.2543  0.3324 -0.4173
  188SAPI   H2X21619   4.394   1.565   7.054  0.1938  0.2916 -0.5486
  188SAPI   H2Y21620   4.565   1.547   7.075  0.0926  1.2964 -1.4709
  188SAPI   C2321621   4.911   1.939   6.860  0.6367 -0.1195 -0.0436
  188SAPI   H3R21622   4.824   1.963   6.924  0.1818  0.8646 -1.0085
  188SAPI   H3S21623   4.898   2.016   6.781  0.2104 -1.2697 -1.1444
  188SAPI   C2421624   5.043   1.963   6.940  0.0435  0.0117  0.0877
  188SAPI   H4R21625   5.033   1.897   7.029 -1.3560  0.3528  0.2055
  188SAPI   H4S21626   5.047   2.062   6.992 -1.8109  0.2669 -0.1759
  188SAPI   C2521627   5.171   1.949   6.855  0.4603  0.0650  0.1604
  188SAPI   H5R21628   5.183   2.021   6.773 -2.1599 -0.3929 -0.7104
  188SAPI   C2621629   5.272   1.856   6.875  1.1582  0.3846 -0.6438
  188SAPI   H6R21630   5.358   1.859   6.807  0.9457  1.1376 -0.8844
  188SAPI   C2721631   5.270   1.743   6.983  0.1485 -0.1214  0.0075
  188SAPI   H7R21632   5.165   1.717   7.009  0.5751 -1.7594  0.2026
  188SAPI   H7S21633   5.310   1.785   7.078 -4.0131 -0.1190  2.0045
  188SAPI   C2821634   5.340   1.625   6.933 -0.4519  0.5603  0.3843
  188SAPI   H8R21635   5.319   1.585   6.833 -0.0148 -1.8388  1.1684
  188SAPI   C2921636   5.430   1.557   7.010  0.2417  0.7005 -0.5263
  188SAPI   H9R21637   5.487   1.475   6.964  1.4271  0.4506  1.2863
  188SAPI  C21021638   5.477   1.596   7.148  0.0119 -0.1090 -0.6621
  188SAPI  H10R21639   5.539   1.687   7.130 -0.3240  0.6750  1.7796
  188SAPI  H10S21640   5.552   1.525   7.190 -1.1685  0.2983  2.3590
  188SAPI  C21121641   5.383   1.616   7.261  0.7096  0.2619  0.7532
  188SAPI  H11R21642   5.287   1.561   7.264 -1.6013  3.9416  0.6339
  188SAPI  C21221643   5.402   1.700   7.364  0.2187  0.3642  0.4890
  188SAPI  H12R21644   5.327   1.708   7.443 -0.9072  0.5475 -0.5628
  188SAPI  C21321645   5.521   1.785   7.387 -0.9039 -0.6671  0.2959
  188SAPI  H13R21646   5.504   1.885   7.432 -0.7227 -0.1761 -0.6928
  188SAPI  H13S21647   5.565   1.822   7.291  0.9014 -0.4402  1.1613
  188SAPI  C21421648   5.614   1.703   7.470 -0.2185  0.6559  0.0192
  188SAPI  H14R21649   5.671   1.634   7.406 -0.5529 -0.0879  0.5086
  188SAPI  C21521650   5.633   1.703   7.607 -0.6493  0.5385  0.0468
  188SAPI  H15R21651   5.702   1.631   7.654  0.3238  0.9145 -0.7651
  188SAPI  C21621652   5.556   1.784   7.708 -0.9746 -0.0450 -0.4954
  188SAPI  H16R21653   5.593   1.889   7.705 -0.6379 -0.1398  0.2298
  188SAPI  H16S21654   5.584   1.747   7.809  2.3137  1.7574 -0.5997
  188SAPI  C21721655   5.400   1.788   7.691 -0.2213 -0.4059 -0.2848
  188SAPI  H17R21656   5.368   1.683   7.672  1.8174 -1.0965 -0.1780
  188SAPI  H17S21657   5.374   1.854   7.605 -2.9374 -0.1385  0.6388
  188SAPI  C21821658   5.332   1.827   7.825  0.6703  0.7710 -0.3606
  188SAPI  H18R21659   5.371   1.916   7.879  1.0245 -0.7188  1.9935
  188SAPI  H18S21660   5.349   1.752   7.905  3.0116  1.1104 -0.4573
  188SAPI  C21921661   5.178   1.834   7.800  0.3357 -0.7655 -0.1863
  188SAPI  H19R21662   5.145   1.738   7.755 -4.6342  0.4130  0.3689
  188SAPI  H19S21663   5.153   1.915   7.728 -1.0642 -1.1371 -0.1396
  188SAPI  C22021664   5.091   1.873   7.919 -0.3917 -0.2698  0.4156
  188SAPI  H20R21665   5.103   1.794   7.996  0.1380 -0.8954 -0.3001
  188SAPI  H20S21666   4.981   1.873   7.900 -0.0615 -1.5810 -1.7395
  188SAPI  H20T21667   5.121   1.970   7.965 -1.3284 -1.2185  3.2621
  188SAPI   C3321668   4.452   1.367   7.127 -0.0849 -0.0374  0.7135
  188SAPI   H3X21669   4.523   1.284   7.106  0.5376  0.9272 -1.1576
  188SAPI   H3Y21670   4.350   1.328   7.106 -0.7806  1.9439  0.2497
  188SAPI   C3421671   4.475   1.402   7.281 -0.1701  0.0796  0.3924
  188SAPI   H4X21672   4.419   1.494   7.309 -0.2414  0.2533 -0.3207
  188SAPI   H4Y21673   4.583   1.419   7.301  0.8669 -2.3270 -2.3942
  188SAPI   C3521674   4.445   1.279   7.382 -0.3653  0.7622 -0.3115
  188SAPI   H5X21675   4.525   1.202   7.375 -2.6266 -1.6489 -2.2193
  188SAPI   H5Y21676   4.349   1.230   7.355 -0.8791  1.4652  0.2100
  188SAPI   C3621677   4.436   1.317   7.532 -0.1064  0.2160  0.0152
  188SAPI   H6X21678   4.360   1.396   7.544  0.0655  0.1727  1.6606
  188SAPI   H6Y21679   4.531   1.362   7.568  1.4885 -3.0461  0.2685
  188SAPI   C3721680   4.403   1.200   7.621  0.0093 -0.4600 -0.0201
  188SAPI   H7X21681   4.488   1.131   7.636 -1.3591 -1.9763  1.1441
  188SAPI   H7Y21682   4.331   1.146   7.554 -0.6006  0.7833 -0.4078
  188SAPI   C3821683   4.329   1.233   7.752 -0.5192 -0.0441  0.1264
  188SAPI   H8X21684   4.247   1.162   7.777 -0.2564 -0.2280  0.4778
  188SAPI   H8Y21685   4.287   1.336   7.751 -1.6172 -0.4417  1.4748
  188SAPI   C3921686   4.427   1.238   7.873  0.7291 -0.3183 -1.1490
  188SAPI   H9X21687   4.487   1.325   7.839  0.6651 -0.5360 -1.8560
  188SAPI   H9Y21688   4.482   1.143   7.891 -0.9367 -0.7554  2.5126
  188SAPI  C31021689   4.351   1.281   7.998  0.4563  0.1595 -0.8668
  188SAPI  H10X21690   4.262   1.217   8.017  0.1381  0.3561 -1.6692
  188SAPI  H10Y21691   4.328   1.390   7.995  0.1063  0.1402  0.2758
  188SAPI  C31121692   4.448   1.277   8.118 -0.4831  0.7072 -0.7595
  188SAPI  H11X21693   4.545   1.316   8.081 -0.3912  1.9282  0.6797
  188SAPI  H11Y21694   4.460   1.168   8.134  2.3225  0.9018 -1.0522
  188SAPI  C31221695   4.402   1.347   8.242  0.1699 -1.1182  0.0626
  188SAPI  H12X21696   4.292   1.353   8.250 -0.0061  0.1131 -2.4681
  188SAPI  H12Y21697   4.447   1.448   8.247 -0.8739 -0.5701 -1.0533
  188SAPI  C31321698   4.471   1.289   8.366  0.0867  0.1735  0.5499
  188SAPI  H13X21699   4.581   1.281   8.351  0.3354  1.8499  1.2901
  188SAPI  H13Y21700   4.439   1.183   8.381  0.2288 -0.2437 -1.6846
  188SAPI  C31421701   4.434   1.365   8.492  0.1125 -0.7987  0.1445
  188SAPI  H14X21702   4.494   1.332   8.580  0.0582  1.0338  0.9208
  188SAPI  H14Y21703   4.329   1.343   8.520 -0.7577  1.5505 -1.0185
  188SAPI  C31521704   4.449   1.520   8.468 -0.5253 -0.5276 -1.0950
  188SAPI  H15X21705   4.368   1.555   8.400 -2.0893 -0.5902  0.6418
  188SAPI  H15Y21706   4.550   1.525   8.423 -0.3459 -1.4380 -0.8214
  188SAPI  C31621707   4.456   1.596   8.601  0.5919  0.2910  0.0313
  188SAPI  H16X21708   4.366   1.569   8.660  0.5399 -0.5648 -0.4148
  188SAPI  H16Y21709   4.449   1.703   8.572 -0.8633 -0.1821 -1.5129
  188SAPI  C31721710   4.581   1.579   8.687 -0.6741 -0.5515 -0.5581
  188SAPI  H17X21711   4.677   1.596   8.634 -1.2247  1.3289 -1.0287
  188SAPI  H17Y21712   4.585   1.474   8.722 -0.1667 -0.7571 -1.2156
  188SAPI  C31821713   4.582   1.665   8.815  0.3452 -0.5128  0.2107
  188SAPI  H18X21714   4.478   1.661   8.855 -0.0821  0.7934 -0.6973
  188SAPI  H18Y21715   4.595   1.773   8.793 -3.9645 -0.0820 -1.1440
  188SAPI  H18Z21716   4.654   1.631   8.893  0.8187 -0.2873 -0.1232
  189POPC     N21717   4.623   3.769  11.212 -0.0917 -0.9862 -0.2068
  189POPC   C1221718   4.734   3.737  11.115  0.1930  0.1467 -0.2282
  189POPC  H12A21719   4.748   3.630  11.123  1.2257  0.2503 -0.5352
  189POPC  H12B21720   4.826   3.783  11.146 -1.3525  2.0996  1.7477
  189POPC   C1321721   4.513   3.675  11.197 -0.6268 -0.1023  0.0716
  189POPC  H13A21722   4.437   3.690  11.272 -1.4497  0.0693 -0.7661
  189POPC  H13B21723   4.463   3.676  11.101 -2.2326 -1.1588  0.8474
  189POPC  H13C21724   4.557   3.578  11.215 -0.3425  0.4756  2.9172
  189POPC   C1421725   4.675   3.746  11.350  0.2927  0.2472 -0.3337
  189POPC  H14A21726   4.701   3.641  11.356  0.6441  0.1966 -2.1251
  189POPC  H14B21727   4.764   3.805  11.362 -0.0895  0.5978  0.9606
  189POPC  H14C21728   4.605   3.762  11.430  1.1252  0.3823  0.3787
  189POPC   C1521729   4.571   3.908  11.208 -0.6188 -0.3466 -0.2452
  189POPC  H15A21730   4.479   3.895  11.263  1.6449 -0.6889  3.9017
  189POPC  H15B21731   4.568   3.952  11.109  1.6977 -2.2781 -1.2816
  189POPC  H15C21732   4.636   3.965  11.273  2.3131 -2.9940 -0.6250
  189POPC   C1121733   4.700   3.760  10.967 -0.2763 -0.1165  0.2919
  189POPC  H11A21734   4.610   3.700  10.941 -1.0309  0.6149  1.1301
  189POPC  H11B21735   4.779   3.721  10.900 -0.4461  1.8546 -1.1649
  189POPC     P21736   4.798   3.993  10.889  0.3295  0.1158 -0.1152
  189POPC   O1321737   4.911   3.948  10.973  0.0459 -0.0955 -0.0402
  189POPC   O1421738   4.749   4.132  10.913 -0.2533  0.4573 -0.4246
  189POPC   O1221739   4.674   3.897  10.929 -0.5228  0.5015  0.0340
  189POPC   O1121740   4.822   3.969  10.733 -0.5990 -0.1732 -0.5993
  189POPC    C121741   4.712   3.972  10.632 -0.2532 -0.3480 -0.3593
  189POPC    HA21742   4.670   4.075  10.635 -1.5945 -0.8034 -1.9912
  189POPC    HB21743   4.640   3.890  10.650  0.8724 -1.1802  0.5046
  189POPC    C221744   4.768   3.947  10.486 -0.0827  0.7049 -0.1915
  189POPC    HS21745   4.865   4.002  10.480  1.3939 -1.8889 -4.1160
  189POPC   O2121746   4.678   3.991  10.395  0.9478 -0.3023  0.0986
  189POPC   C2121747   4.724   4.047  10.281 -0.0488 -0.0620  0.1421
  189POPC   O2221748   4.840   4.037  10.245 -0.4729  0.4109  0.2752
  189POPC   C2221749   4.616   4.102  10.192  0.2114  0.4810 -0.2438
  189POPC   H2R21750   4.661   4.188  10.138 -0.6395  1.0206 -0.1196
  189POPC   H2S21751   4.542   4.152  10.259  2.2144  1.5986  1.2450
  189POPC    C321752   4.805   3.794  10.467  0.2598  0.1801 -0.1317
  189POPC    HX21753   4.708   3.742  10.485  0.9740 -0.6132  1.6046
  189POPC    HY21754   4.881   3.760  10.541  1.0181 -1.6968 -1.6898
  189POPC   O3121755   4.830   3.755  10.330 -0.0634  0.1697  0.3162
  189POPC   C3121756   4.949   3.778  10.289  0.1989 -0.4778  0.7175
  189POPC   O3221757   5.040   3.834  10.349  0.2098 -0.0788 -0.0988
  189POPC   C3221758   4.957   3.730  10.144  0.4753 -0.8795 -0.1353
  189POPC   H2X21759   4.858   3.736  10.093  0.6026  2.5564 -0.2048
  189POPC   H2Y21760   4.980   3.624  10.164 -0.6025 -0.9200  1.0367
  189POPC   C2321761   4.553   4.011  10.086  0.4105  0.4122  0.5195
  189POPC   H3R21762   4.453   4.051  10.060  0.5815 -0.5697 -1.9313
  189POPC   H3S21763   4.532   3.906  10.115 -1.2213  0.2810 -0.9899
  189POPC   C2421764   4.637   4.001   9.958 -0.6597  0.0543  0.0842
  189POPC   H4R21765   4.744   3.985   9.984 -0.9146 -1.2180  0.4099
  189POPC   H4S21766   4.624   4.086   9.888 -0.5550 -1.4532 -1.8731
  189POPC   C2521767   4.590   3.881   9.876 -0.5519  0.6122  0.9112
  189POPC   H5R21768   4.480   3.882   9.856 -0.2270  0.6793 -1.0465
  189POPC   H5S21769   4.615   3.785   9.926 -2.3997  0.0695  0.8981
  189POPC   C2621770   4.668   3.885   9.743  0.2664 -0.0917  0.1213
  189POPC   H6R21771   4.773   3.851   9.754 -0.0148 -1.4001 -0.9752
  189POPC   H6S21772   4.666   3.990   9.707  1.6858  0.6304  1.9924
  189POPC   C2721773   4.594   3.795   9.640  0.2935 -1.2259  0.0029
  189POPC   H7R21774   4.622   3.823   9.536 -0.2239  1.4843  0.5233
  189POPC   H7S21775   4.485   3.806   9.653  0.4998 -1.1462  1.8870
  189POPC   C2821776   4.617   3.642   9.661 -0.3427 -0.8605  0.0795
  189POPC   H8R21777   4.534   3.585   9.614 -0.1473 -0.0440 -1.3295
  189POPC   H8S21778   4.608   3.635   9.771 -1.1985 -2.7030 -0.0796
  189POPC   C2921779   4.751   3.584   9.616 -0.1390 -0.6334  0.5645
  189POPC   H9121780   4.821   3.555   9.695  0.3614 -0.4568  0.1929
  189POPC  C21021781   4.789   3.582   9.489  0.1746 -0.4235  0.1752
  189POPC  H10121782   4.896   3.569   9.465 -0.0404 -0.9350 -0.5470
  189POPC  C21121783   4.714   3.630   9.363 -0.6748 -0.6123 -0.4121
  189POPC  H11R21784   4.768   3.713   9.314  0.6795  0.1278  2.1554
  189POPC  H11S21785   4.612   3.664   9.390  0.4293  1.5254  1.4015
  189POPC  C21221786   4.682   3.533   9.251 -0.1156  0.3741 -0.1706
  189POPC  H12R21787   4.604   3.459   9.281 -0.8972  0.6571 -1.3988
  189POPC  H12S21788   4.772   3.472   9.229 -1.0213 -1.3055  0.5899
  189POPC  C21321789   4.639   3.594   9.120 -0.0551 -0.0022  0.3584
  189POPC  H13R21790   4.729   3.622   9.060 -0.9494  0.3619 -0.8454
  189POPC  H13S21791   4.580   3.687   9.139 -1.0124 -1.1201  3.4859
  189POPC  C21421792   4.557   3.509   9.035  0.1432 -0.0440  0.0453
  189POPC  H14R21793   4.471   3.467   9.091  1.3253 -3.3827 -0.4224
  189POPC  H14S21794   4.615   3.418   9.007 -1.1715 -1.6190  2.0802
  189POPC  C21521795   4.495   3.578   8.913  0.1773  0.1820 -0.3245
  189POPC  H15R21796   4.471   3.506   8.831  0.5797 -1.4285  0.9323
  189POPC  H15S21797   4.563   3.651   8.864 -0.1075  0.0313 -0.9642
  189POPC  C21621798   4.361   3.657   8.947 -0.0464 -0.7932  0.3686
  189POPC  H16R21799   4.392   3.723   9.031  0.1070 -0.1848 -0.1515
  189POPC  H16S21800   4.281   3.596   8.993 -0.3523  1.1744  2.6121
  189POPC  C21721801   4.305   3.743   8.832  0.0202 -0.3837  0.2539
  189POPC  H17R21802   4.381   3.820   8.809 -1.7669  1.4892  0.3796
  189POPC  H17S21803   4.208   3.788   8.862 -1.1093 -2.7206  0.3471
  189POPC  C21821804   4.269   3.661   8.708 -0.1090  0.6600  0.4888
  189POPC  H18R21805   4.240   3.726   8.622 -0.7586  1.0261  0.9764
  189POPC  H18S21806   4.183   3.601   8.742  0.8457 -2.5916 -2.2769
  189POPC  H18T21807   4.349   3.592   8.675 -0.8104 -0.2465  0.6480
  189POPC   C3321808   5.068   3.805  10.062  0.3694  0.0874 -0.5056
  189POPC   H3X21809   5.166   3.766  10.098  1.0029  0.6334 -1.5835
  189POPC   H3Y21810   5.061   3.912  10.090  0.0552  0.2875 -1.3088
  189POPC   C3421811   5.049   3.791   9.905  0.3322  0.2880  0.1900
  189POPC   H4X21812   4.975   3.870   9.879  0.6448  1.4095  2.4506
  189POPC   H4Y21813   5.013   3.688   9.889  0.6649  0.2312 -0.2023
  189POPC   C3521814   5.182   3.797   9.831  0.1428  0.3312 -0.5154
  189POPC   H5X21815   5.247   3.713   9.864 -2.1706 -1.2754  0.1884
  189POPC   H5Y21816   5.221   3.901   9.841  1.6164 -0.3368  1.3256
  189POPC   C3621817   5.167   3.774   9.677 -0.3714 -0.6819  0.4206
  189POPC   H6X21818   5.122   3.673   9.663 -2.3165 -0.0313  1.6242
  189POPC   H6Y21819   5.264   3.764   9.624 -0.6820  0.6341 -0.4307
  189POPC   C3721820   5.077   3.869   9.601 -0.5950  0.2965  0.3335
  189POPC   H7X21821   5.111   3.973   9.622  3.3670 -0.6441 -0.5372
  189POPC   H7Y21822   4.973   3.865   9.639 -0.4404 -0.3026  0.6956
  189POPC   C3821823   5.092   3.849   9.452  0.0560 -0.0661 -0.2478
  189POPC   H8X21824   5.071   3.742   9.429 -0.0884 -0.5213  1.8340
  189POPC   H8Y21825   5.194   3.890   9.432  0.3092  0.7004  2.2902
  189POPC   C3921826   5.003   3.951   9.379  0.0387 -0.1785  0.3362
  189POPC   H9X21827   5.012   4.050   9.430 -4.2426  1.2604 -1.2853
  189POPC   H9Y21828   4.896   3.925   9.395 -1.1640  3.1082 -1.3619
  189POPC  C31021829   5.038   3.948   9.232  0.8310  0.0455  0.3376
  189POPC  H10X21830   5.048   3.842   9.199  0.8868  0.7244 -1.9706
  189POPC  H10Y21831   5.133   4.001   9.208  0.6174  1.1707  1.8134
  189POPC  C31121832   4.927   4.016   9.137  0.0188  0.5925  0.0745
  189POPC  H11X21833   4.971   4.013   9.035 -2.0969 -0.0443 -0.8905
  189POPC  H11Y21834   4.918   4.122   9.170 -1.0570  0.4696  0.2212
  189POPC  C31221835   4.794   3.948   9.126 -0.1665 -0.1033  0.0976
  189POPC  H12X21836   4.732   3.973   9.215 -0.6291  0.9165 -0.4862
  189POPC  H12Y21837   4.807   3.840   9.105  3.7620 -0.0319  1.2413
  189POPC  C31321838   4.705   4.019   9.019  0.3226 -0.3544 -0.6854
  189POPC  H13X21839   4.741   4.124   9.013 -0.8506  0.2385  1.7049
  189POPC  H13Y21840   4.597   4.021   9.046 -0.1534  0.4557 -2.4802
  189POPC  C31421841   4.716   3.945   8.885  0.3461  0.6993 -0.2891
  189POPC  H14X21842   4.698   3.839   8.913 -0.1539  1.3860  2.2830
  189POPC  H14Y21843   4.822   3.949   8.853  0.2224  0.7053 -0.6969
  189POPC  C31521844   4.628   4.002   8.773  0.3651 -0.2580 -0.6930
  189POPC  H15X21845   4.655   4.105   8.741  0.9577  1.0002  3.2498
  189POPC  H15Y21846   4.524   4.016   8.810  0.2039 -1.0458 -0.8369
  189POPC  C31621847   4.616   3.907   8.649  0.0642 -0.4991 -0.1665
  189POPC  H16X21848   4.565   3.977   8.580  3.8225  2.8481  0.0557
  189POPC  H16Y21849   4.560   3.815   8.677  2.4848 -1.6970  1.0618
  189POPC  H16Z21850   4.707   3.874   8.595 -0.5675 -1.9258 -0.3947
  190POPC     N21851   6.040   6.431  11.108  0.3015  0.4270 -0.1615
  190POPC   C1221852   5.978   6.364  10.982 -0.4840 -0.4606 -0.0773
  190POPC  H12A21853   6.036   6.378  10.892 -0.8777 -2.8936 -0.7684
  190POPC  H12B21854   5.886   6.414  10.957 -0.7373 -1.5159 -1.3660
  190POPC   C1321855   5.959   6.397  11.237 -0.2073 -0.8180  0.4830
  190POPC  H13A21856   5.935   6.293  11.247  0.3491 -1.2401 -2.0899
  190POPC  H13B21857   6.011   6.426  11.327 -0.2436  1.8531 -0.2449
  190POPC  H13C21858   5.865   6.451  11.237 -0.0921 -0.6008  1.3209
  190POPC   C1421859   6.179   6.392  11.118  0.2277  0.3354 -0.2951
  190POPC  H14A21860   6.242   6.435  11.042 -0.3781  0.5444 -0.6785
  190POPC  H14B21861   6.211   6.425  11.216 -0.2103  1.6376 -0.5724
  190POPC  H14C21862   6.189   6.285  11.103  0.9019  0.4843 -0.9588
  190POPC   C1521863   6.028   6.580  11.089  0.6444  0.1683  0.2965
  190POPC  H15A21864   6.051   6.634  11.180  4.8288 -4.1175  2.1760
  190POPC  H15B21865   5.923   6.597  11.069 -0.0547 -2.2462  1.4871
  190POPC  H15C21866   6.094   6.615  11.012  0.0478 -0.2840 -0.4484
  190POPC   C1121867   5.950   6.218  10.987  0.5226  0.0239  0.1717
  190POPC  H11A21868   5.888   6.182  10.903 -2.0900 -2.0540  2.7933
  190POPC  H11B21869   5.893   6.201  11.081  1.4665  0.6767  0.8863
  190POPC     P21870   6.108   6.019  10.934 -0.0600 -0.3270  0.1979
  190POPC   O1321871   6.002   5.920  10.953 -0.3949 -0.0065 -0.7886
  190POPC   O1421872   6.245   5.980  10.976 -0.8092 -0.3321  0.1334
  190POPC   O1221873   6.071   6.149  11.014  0.1276 -0.6138  0.4542
  190POPC   O1121874   6.107   6.070  10.781  0.4097  0.2350  0.6374
  190POPC    C121875   6.165   6.184  10.743 -0.2630 -0.2666  0.4524
  190POPC    HA21876   6.265   6.200  10.787 -0.3537 -1.1200  0.9769
  190POPC    HB21877   6.091   6.263  10.767 -0.4687 -0.9661  2.1961
  190POPC    C221878   6.200   6.178  10.587  0.4504  0.0779  0.0755
  190POPC    HS21879   6.254   6.270  10.556  2.4082 -0.5336  1.4451
  190POPC   O2121880   6.071   6.174  10.519  0.6054  0.3263 -0.2237
  190POPC   C2121881   6.006   6.283  10.511 -0.5162 -0.2620 -0.2402
  190POPC   O2221882   6.057   6.396  10.522  0.2991 -0.0448  0.3357
  190POPC   C2221883   5.859   6.250  10.494 -0.0298 -0.3250 -0.2427
  190POPC   H2R21884   5.793   6.339  10.484 -1.9635 -1.1995  3.1037
  190POPC   H2S21885   5.830   6.203  10.590  2.1365 -0.2579  0.4965
  190POPC    C321886   6.296   6.064  10.543 -0.6889 -0.4344  0.3937
  190POPC    HX21887   6.263   5.967  10.585  2.3743 -1.7525  0.0426
  190POPC    HY21888   6.399   6.080  10.582 -0.1261 -0.0985 -1.1423
  190POPC   O3121889   6.306   6.054  10.397 -0.8589  0.1989 -0.0402
  190POPC   C3121890   6.235   5.961  10.347 -0.0925  0.9700  0.6831
  190POPC   O3221891   6.142   5.904  10.396  0.3310  0.4403  0.4231
  190POPC   C3221892   6.273   5.943  10.197  1.0775  0.6275  0.0175
  190POPC   H2X21893   6.379   5.977  10.192  0.7916  1.4496 -0.6133
  190POPC   H2Y21894   6.217   6.020  10.141  0.6757  0.2322 -0.1255
  190POPC   C2321895   5.817   6.172  10.368 -1.2903 -0.3877 -0.4767
  190POPC   H3R21896   5.707   6.173  10.359 -1.2235 -0.3205 -1.3711
  190POPC   H3S21897   5.852   6.068  10.386  0.8877  0.4526  0.5479
  190POPC   C2421898   5.879   6.227  10.231  0.9172 -0.0357 -0.0312
  190POPC   H4R21899   5.846   6.159  10.149  0.8361  0.3048 -0.2806
  190POPC   H4S21900   5.989   6.230  10.248  1.2357  0.6343 -1.9096
  190POPC   C2521901   5.834   6.369  10.187  1.0563 -0.0638  0.3477
  190POPC   H5R21902   5.818   6.439  10.272 -1.6291 -1.0855  0.7992
  190POPC   H5S21903   5.734   6.359  10.140  1.3934  1.1553 -0.7078
  190POPC   C2621904   5.924   6.440  10.080  0.0337  0.0681 -0.8486
  190POPC   H6R21905   6.012   6.469  10.141  0.2471 -0.0297 -1.1076
  190POPC   H6S21906   5.877   6.537  10.053 -1.0849 -0.4752 -0.9035
  190POPC   C2721907   5.968   6.358   9.968  0.5580  0.2481 -0.0793
  190POPC   H7R21908   5.888   6.313   9.907  0.4880  1.9194 -1.2649
  190POPC   H7S21909   6.022   6.273  10.015  0.4526  0.7493  0.9835
  190POPC   C2821910   6.069   6.420   9.870  0.3148 -0.3157  0.0287
  190POPC   H8R21911   6.106   6.335   9.809 -0.6137  0.5704 -1.8584
  190POPC   H8S21912   6.145   6.474   9.931 -0.7630  1.8813 -0.4554
  190POPC   C2921913   6.006   6.534   9.785  1.1175  0.4175  0.4221
  190POPC   H9121914   5.953   6.614   9.839  0.2687  0.1758 -0.0302
  190POPC  C21021915   6.022   6.555   9.650 -0.5863  0.6085 -0.2989
  190POPC  H10121916   5.978   6.641   9.598 -0.1377  1.7154  1.1086
  190POPC  C21121917   6.111   6.465   9.564 -0.1368  0.0114  0.4443
  190POPC  H11R21918   6.160   6.383   9.620  0.9488  0.0023 -0.4819
  190POPC  H11S21919   6.198   6.524   9.527 -0.5931  0.5411  0.1906
  190POPC  C21221920   6.031   6.420   9.435 -0.1835  0.1753  0.1672
  190POPC  H12R21921   5.932   6.387   9.475 -0.4711  2.1644  1.2198
  190POPC  H12S21922   6.089   6.332   9.399 -0.7340 -0.2645  0.3288
  190POPC  C21321923   6.025   6.527   9.322  0.9364  0.1226 -0.7727
  190POPC  H13R21924   6.127   6.533   9.280  1.1764  3.7792 -0.0062
  190POPC  H13S21925   6.001   6.619   9.379 -0.6492  0.1534 -1.4518
  190POPC  C21421926   5.917   6.482   9.215 -0.1527  0.4427  0.0991
  190POPC  H14R21927   5.881   6.558   9.142 -2.0634  0.2062  0.7430
  190POPC  H14S21928   5.832   6.447   9.277  1.5710  0.0274  2.3467
  190POPC  C21521929   5.960   6.362   9.134  0.7466  0.1464  0.3311
  190POPC  H15R21930   6.004   6.283   9.198 -0.6558 -0.9091  0.0416
  190POPC  H15S21931   6.040   6.379   9.059  0.7161 -0.0431  0.2540
  190POPC  C21621932   5.851   6.298   9.053 -0.2552  0.2058 -0.0241
  190POPC  H16R21933   5.797   6.224   9.116  0.3159  0.0895  0.3330
  190POPC  H16S21934   5.907   6.241   8.976  1.0926  1.6527 -0.1789
  190POPC  C21721935   5.750   6.383   8.978 -0.1086 -0.3496 -0.9904
  190POPC  H17R21936   5.801   6.452   8.907  1.8015 -1.5425 -0.8690
  190POPC  H17S21937   5.692   6.448   9.048 -0.9850 -0.1056 -1.9234
  190POPC  C21821938   5.647   6.295   8.918  0.0580  0.6778  0.1664
  190POPC  H18R21939   5.580   6.253   8.997  1.9772  1.2766  2.2034
  190POPC  H18S21940   5.695   6.215   8.859  1.6011  2.2247 -0.7473
  190POPC  H18T21941   5.576   6.349   8.852 -1.3356  0.2237  1.2266
  190POPC   C3321942   6.259   5.799  10.140  0.1928 -0.3741 -0.0182
  190POPC   H3X21943   6.176   5.747  10.192  1.2266 -1.8480  0.2111
  190POPC   H3Y21944   6.353   5.742  10.158 -0.2523 -1.5965 -1.3347
  190POPC   C3421945   6.217   5.798   9.989  0.2044  0.1844 -0.2953
  190POPC   H4X21946   6.138   5.876   9.976 -1.1932 -1.0636  0.4076
  190POPC   H4Y21947   6.163   5.708   9.953  1.5299  0.0196 -1.9972
  190POPC   C3521948   6.340   5.815   9.907  0.3930 -0.0941 -0.0951
  190POPC   H5X21949   6.420   5.744   9.938  2.3298  1.8175 -0.5154
  190POPC   H5Y21950   6.386   5.916   9.915  2.6138 -1.1245  0.9703
  190POPC   C3621951   6.319   5.779   9.758  0.5642 -0.1133 -0.0463
  190POPC   H6X21952   6.232   5.826   9.708 -0.5471 -0.8808  1.1257
  190POPC   H6Y21953   6.297   5.670   9.759 -1.5715  0.2714 -0.3644
  190POPC   C3721954   6.435   5.813   9.658  0.0393  0.0163 -0.0261
  190POPC   H7X21955   6.522   5.768   9.711 -0.2401  0.9643  1.2778
  190POPC   H7Y21956   6.430   5.922   9.643  0.1456  0.0907  0.4548
  190POPC   C3821957   6.405   5.768   9.517 -0.7920 -0.3719  0.4621
  190POPC   H8X21958   6.329   5.827   9.461 -0.7172 -0.8123 -0.1190
  190POPC   H8Y21959   6.389   5.658   9.527  0.3452 -0.4849  1.1807
  190POPC   C3921960   6.536   5.790   9.421 -0.0299 -0.4678 -0.6396
  190POPC   H9X21961   6.634   5.774   9.470 -0.5532  0.0394  0.6273
  190POPC   H9Y21962   6.539   5.898   9.392  0.8338 -0.3247 -0.0578
  190POPC  C31021963   6.524   5.700   9.285 -0.4064 -0.4996 -0.1281
  190POPC  H10X21964   6.512   5.591   9.299 -0.3948 -1.0528 -3.5529
  190POPC  H10Y21965   6.621   5.705   9.232  0.4791 -0.7696  1.4174
  190POPC  C31121966   6.418   5.754   9.187  0.3741  0.2818 -0.5157
  190POPC  H11X21967   6.396   5.863   9.186 -1.6875  0.0497 -4.6849
  190POPC  H11Y21968   6.317   5.714   9.210 -0.2209  1.8123 -0.3713
  190POPC  C31221969   6.442   5.698   9.042 -0.1288 -0.0723  0.1640
  190POPC  H12X21970   6.386   5.602   9.041 -1.7492  0.8141  0.8696
  190POPC  H12Y21971   6.550   5.677   9.026 -0.8012 -1.6123 -3.1046
  190POPC  C31321972   6.395   5.779   8.923  0.0658  0.4379  0.6065
  190POPC  H13X21973   6.421   5.883   8.951 -0.7257  0.1296  2.6364
  190POPC  H13Y21974   6.284   5.771   8.919 -0.0145  0.6604  1.8725
  190POPC  C31421975   6.458   5.755   8.783  0.7945  0.0958  0.3787
  190POPC  H14X21976   6.567   5.779   8.782  0.5038  1.4981  0.2174
  190POPC  H14Y21977   6.422   5.841   8.723  2.0962  0.5192  0.1693
  190POPC  C31521978   6.441   5.615   8.716  0.3081 -0.0028  0.0776
  190POPC  H15X21979   6.482   5.636   8.615 -1.1496  0.0742 -0.5129
  190POPC  H15Y21980   6.339   5.572   8.717  0.6330 -0.8083  1.5713
  190POPC  C31621981   6.537   5.509   8.782  0.5785 -0.1853  0.2184
  190POPC  H16X21982   6.602   5.551   8.862 -1.1256  1.9600  0.5928
  190POPC  H16Y21983   6.593   5.454   8.704 -0.5895 -1.7275  0.4357
  190POPC  H16Z21984   6.473   5.434   8.832  0.5597 -1.7175 -1.9735
  191POPC     N21985   0.950   0.341   5.933 -0.4893  0.6112  0.1545
  191POPC   C1221986   0.903   0.349   6.076 -0.2486  0.1971  0.1531
  191POPC  H12A21987   0.829   0.273   6.097 -0.0360 -0.8708 -2.5395
  191POPC  H12B21988   0.849   0.443   6.082  0.5360  0.5927  1.2566
  191POPC   C1321989   0.995   0.484   5.884 -0.3516  0.5199  0.1126
  191POPC  H13A21990   1.078   0.534   5.932  0.2501  0.9862 -1.3541
  191POPC  H13B21991   1.021   0.471   5.780  1.9013  0.2377  0.6422
  191POPC  H13C21992   0.902   0.539   5.890  0.1177  1.3858 -0.3719
  191POPC   C1421993   1.070   0.250   5.910 -0.1158  0.3737 -0.0613
  191POPC  H14A21994   1.097   0.237   5.806 -0.6493  0.8471 -0.2703
  191POPC  H14B21995   1.160   0.281   5.960 -0.8120  1.0102  0.8112
  191POPC  H14C21996   1.048   0.150   5.942  1.2053  0.5965  1.6451
  191POPC   C1521997   0.832   0.297   5.852  0.0773 -0.4158 -0.4664
  191POPC  H15A21998   0.816   0.198   5.893 -0.2490 -0.8084 -1.5077
  191POPC  H15B21999   0.854   0.290   5.747  0.6254  2.8748 -0.6899
  191POPC  H15C22000   0.750   0.367   5.847  1.1763  0.8214 -2.7141
  191POPC   C1122001   1.012   0.342   6.187 -0.1319  0.5332  0.0680
  191POPC  H11A22002   0.967   0.392   6.275 -0.7553 -1.3147  0.8655
  191POPC  H11B22003   1.103   0.400   6.160  1.2659 -1.1512  0.9115
  191POPC     P22004   0.951   0.083   6.243  0.1601  0.2564 -0.5437
  191POPC   O1322005   1.037  -0.031   6.250 -0.2865  0.3586 -0.3787
  191POPC   O1422006   0.833   0.092   6.156  0.3443 -0.3085 -0.5557
  191POPC   O1222007   1.049   0.209   6.218  0.6361 -0.0978 -0.5115
  191POPC   O1122008   0.899   0.108   6.389 -0.3223  0.2001  0.4403
  191POPC    C122009   0.992   0.153   6.492 -0.3557  0.2467  0.5547
  191POPC    HA22010   1.015   0.262   6.491  3.2433 -0.3362 -1.9344
  191POPC    HB22011   1.092   0.108   6.473 -0.6496  0.2239 -1.0928
  191POPC    C222012   0.943   0.101   6.632 -0.0029  0.1329  0.3388
  191POPC    HS22013   1.020   0.123   6.708  1.4467 -1.4255 -0.5945
  191POPC   O2122014   0.929  -0.043   6.636  0.4336 -0.6399 -0.1908
  191POPC   C2122015   1.031  -0.123   6.639 -0.7284 -0.2615 -0.6653
  191POPC   O2222016   1.149  -0.092   6.615  0.1355 -0.5386  0.0115
  191POPC   C2222017   0.987  -0.262   6.679 -0.5145 -0.0401  0.9101
  191POPC   H2R22018   1.077  -0.327   6.683 -0.6636 -0.3511 -0.3484
  191POPC   H2S22019   0.921  -0.304   6.601  2.5649 -1.3882 -1.1680
  191POPC    C322020   0.822   0.175   6.687  0.2466 -0.5706  0.5619
  191POPC    HX22021   0.737   0.134   6.627  0.1390 -2.7084  2.0325
  191POPC    HY22022   0.838   0.282   6.662  2.5548 -0.9032  0.3768
  191POPC   O3122023   0.796   0.153   6.824  0.2825 -0.1156 -0.4753
  191POPC   C3122024   0.686   0.214   6.864  0.2637  0.1505 -0.1805
  191POPC   O3222025   0.597   0.259   6.792 -0.2385 -0.1523 -0.3258
  191POPC   C3222026   0.677   0.208   7.019 -0.1929 -0.0971  0.9194
  191POPC   H2X22027   0.593   0.143   7.050  0.5143 -1.4618  0.0412
  191POPC   H2Y22028   0.652   0.310   7.057 -0.5866  1.0563 -2.1291
  191POPC   C2322029   0.921  -0.265   6.812  0.0860  0.5847  0.0974
  191POPC   H3R22030   0.906  -0.375   6.827 -0.4679  0.6962  0.3756
  191POPC   H3S22031   0.830  -0.202   6.821  0.0960  0.5984  0.1045
  191POPC   C2422032   1.004  -0.208   6.928 -0.5299  0.2034  0.1928
  191POPC   H4R22033   1.016  -0.100   6.907 -0.8307  0.0605 -0.7577
  191POPC   H4S22034   1.104  -0.255   6.916 -0.2139  0.4206  1.7704
  191POPC   C2522035   0.947  -0.239   7.069  0.1044  0.1321  0.3376
  191POPC   H5R22036   0.963  -0.344   7.101  1.9171  0.3153  0.1549
  191POPC   H5S22037   0.841  -0.208   7.082 -0.0613 -0.4206  0.3307
  191POPC   C2622038   1.020  -0.155   7.183 -0.3110  0.1369  0.8619
  191POPC   H6R22039   0.938  -0.134   7.255  0.3564 -2.0342  2.3474
  191POPC   H6S22040   1.046  -0.055   7.142 -0.6765  0.4358  1.3514
  191POPC   C2722041   1.134  -0.225   7.241  0.9213  0.6683  0.1971
  191POPC   H7R22042   1.216  -0.245   7.169 -1.1819  1.8839 -2.7497
  191POPC   H7S22043   1.091  -0.320   7.278 -0.1764  1.5740  1.3452
  191POPC   C2822044   1.197  -0.151   7.356  0.7132  0.0141 -0.3348
  191POPC   H8R22045   1.253  -0.061   7.323  1.5531 -0.0131  0.9476
  191POPC   H8S22046   1.283  -0.211   7.394 -0.3498 -0.9909  0.5571
  191POPC   C2922047   1.103  -0.122   7.476 -0.7948 -0.5138  0.2707
  191POPC   H9122048   1.001  -0.108   7.438 -0.1327  0.6909 -1.1630
  191POPC  C21022049   1.128  -0.125   7.605 -0.2600 -0.0220 -0.3886
  191POPC  H10122050   1.047  -0.097   7.674 -1.8599  0.3740 -2.3380
  191POPC  C21122051   1.253  -0.170   7.674  0.4246  0.2685 -0.0702
  191POPC  H11R22052   1.292  -0.257   7.617 -0.6481 -1.1157  1.2374
  191POPC  H11S22053   1.218  -0.220   7.767  1.1949  1.0942  0.6761
  191POPC  C21222054   1.368  -0.075   7.703 -0.0721 -0.5927  0.2196
  191POPC  H12R22055   1.340   0.008   7.772  1.4915  1.9710 -2.0586
  191POPC  H12S22056   1.411  -0.043   7.606  0.0300 -1.8309 -0.1669
  191POPC  C21322057   1.476  -0.138   7.784 -0.3959 -0.0055 -0.0725
  191POPC  H13R22058   1.478  -0.249   7.778  0.9114  0.0400 -1.0015
  191POPC  H13S22059   1.475  -0.117   7.893  0.2641 -2.5822  0.5085
  191POPC  C21422060   1.614  -0.102   7.727  0.0473 -0.3499  0.3408
  191POPC  H14R22061   1.615  -0.001   7.680 -0.7082 -0.3146  0.3884
  191POPC  H14S22062   1.627  -0.170   7.640  3.2915  2.0466 -1.2847
  191POPC  C21522063   1.736  -0.122   7.820  0.0906 -0.4587  0.1566
  191POPC  H15R22064   1.697  -0.063   7.906 -4.3739 -1.1399 -1.1701
  191POPC  H15S22065   1.829  -0.075   7.781  1.5947 -2.7415  0.7901
  191POPC  C21622066   1.757  -0.262   7.866 -0.1400  0.3151 -0.1735
  191POPC  H16R22067   1.773  -0.341   7.789  1.7861 -0.8377  1.3294
  191POPC  H16S22068   1.663  -0.283   7.921  0.1756  0.7606  0.5381
  191POPC  C21722069   1.854  -0.273   7.978 -0.6057 -0.4085 -0.3430
  191POPC  H17R22070   1.837  -0.192   8.053  1.0527 -0.3390 -0.0080
  191POPC  H17S22071   1.954  -0.252   7.935 -0.4189  1.9762  1.0679
  191POPC  C21822072   1.841  -0.409   8.048  0.0663  0.0604 -0.2095
  191POPC  H18R22073   1.912  -0.430   8.131 -0.4713 -0.5526  0.0968
  191POPC  H18S22074   1.854  -0.496   7.980 -1.2086  0.6287 -1.2124
  191POPC  H18T22075   1.740  -0.409   8.095  0.0228  0.6665 -0.2899
  191POPC   C3322076   0.807   0.146   7.087 -0.4677  0.7917  0.0558
  191POPC   H3X22077   0.894   0.197   7.040 -0.3652 -1.3451 -2.2679
  191POPC   H3Y22078   0.815   0.038   7.064 -0.6891  0.7316  0.2543
  191POPC   C3422079   0.815   0.181   7.233 -0.6342 -0.1418  0.2099
  191POPC   H4X22080   0.792   0.290   7.233  1.0360  0.2381  0.2538
  191POPC   H4Y22081   0.920   0.184   7.268 -0.8408  0.0084  0.8286
  191POPC   C3522082   0.729   0.085   7.317 -0.5381 -0.3582 -0.6365
  191POPC   H5X22083   0.759  -0.022   7.319  0.4947 -0.0654 -0.1395
  191POPC   H5Y22084   0.623   0.083   7.282 -1.2301 -3.3134  1.3131
  191POPC   C3622085   0.710   0.150   7.456 -0.2599 -0.2246  0.2876
  191POPC   H6X22086   0.626   0.103   7.511 -0.3479 -0.8158 -0.3497
  191POPC   H6Y22087   0.686   0.257   7.436  0.5809 -0.2697 -1.0353
  191POPC   C3722088   0.839   0.134   7.542  0.2258  0.0515 -0.2280
  191POPC   H7X22089   0.926   0.179   7.490  1.0898 -0.1399  0.9819
  191POPC   H7Y22090   0.857   0.026   7.561  3.0397  0.6457  1.1437
  191POPC   C3822091   0.828   0.210   7.679 -0.0500  0.2186  0.9262
  191POPC   H8X22092   0.837   0.319   7.656 -0.1662 -0.2812 -1.6911
  191POPC   H8Y22093   0.918   0.181   7.737  0.0360 -1.7834 -0.1330
  191POPC   C3922094   0.698   0.178   7.758  0.2537 -0.2162  0.0089
  191POPC   H9X22095   0.676   0.070   7.747 -1.4387  0.1747 -0.7511
  191POPC   H9Y22096   0.613   0.234   7.713  0.7227  2.3471  2.0604
  191POPC  C31022097   0.705   0.223   7.906 -0.2154 -0.1710 -0.4894
  191POPC  H10X22098   0.747   0.326   7.914  0.2586 -0.3322 -0.8296
  191POPC  H10Y22099   0.784   0.160   7.952 -1.5426 -1.3997  0.1614
  191POPC  C31122100   0.574   0.211   7.984  0.0410 -0.0568 -0.0587
  191POPC  H11X22101   0.539   0.106   7.979 -0.7529  0.2526 -1.3598
  191POPC  H11Y22102   0.497   0.277   7.941 -1.2448 -2.1293 -1.0745
  191POPC  C31222103   0.599   0.247   8.135  0.2075 -0.2473  0.5684
  191POPC  H12X22104   0.646   0.346   8.156 -0.4477  0.3027 -0.4655
  191POPC  H12Y22105   0.678   0.180   8.174  1.1816  1.0171  0.8263
  191POPC  C31322106   0.466   0.233   8.212  0.4196 -0.5750  0.3084
  191POPC  H13X22107   0.408   0.143   8.183 -0.9586 -0.3070  2.0933
  191POPC  H13Y22108   0.405   0.319   8.177 -0.2010 -2.0279 -2.4520
  191POPC  C31422109   0.486   0.232   8.369  0.1245  0.1510  0.2092
  191POPC  H14X22110   0.391   0.267   8.415  0.0534 -0.4346  0.5225
  191POPC  H14Y22111   0.552   0.314   8.404 -0.4828  0.3227  0.9847
  191POPC  C31522112   0.526   0.098   8.425  0.2752 -0.1298  0.6074
  191POPC  H15X22113   0.613   0.066   8.365 -1.5370 -1.0246 -1.7206
  191POPC  H15Y22114   0.441   0.031   8.399  1.0000 -1.3545  1.2850
  191POPC  C31622115   0.544   0.091   8.580  0.0313  0.6543  0.2173
  191POPC  H16X22116   0.623   0.162   8.614  2.0666 -0.9982 -0.7691
  191POPC  H16Y22117   0.581  -0.010   8.609  1.8603  1.4577  0.8698
  191POPC  H16Z22118   0.454   0.106   8.643  0.6037  1.0725  0.9520
  192POPC     N22119   5.737   3.165   6.004 -0.0757  0.5696  0.8199
  192POPC   C1222120   5.824   3.042   6.018  0.6661 -0.5785 -0.1789
  192POPC  H12A22121   5.775   2.947   5.999  0.4160 -0.4998  0.0621
  192POPC  H12B22122   5.852   3.040   6.123 -1.0724  1.8143  0.4366
  192POPC   C1322123   5.795   3.298   6.039 -0.6809 -0.3960  0.0014
  192POPC  H13A22124   5.903   3.294   6.039 -0.5699  1.2660  1.9581
  192POPC  H13B22125   5.741   3.370   5.978 -1.2755 -1.4926 -0.8035
  192POPC  H13C22126   5.789   3.325   6.143  1.7900  2.1971 -0.4074
  192POPC   C1422127   5.685   3.179   5.862  0.7138 -0.0190 -0.2287
  192POPC  H14A22128   5.606   3.253   5.863  0.4136 -0.3406 -0.0486
  192POPC  H14B22129   5.757   3.223   5.795 -0.1430  0.1062 -1.0971
  192POPC  H14C22130   5.638   3.089   5.826 -0.0753  0.1296  0.3940
  192POPC   C1522131   5.624   3.133   6.092  0.2106 -0.0777  0.3472
  192POPC  H15A22132   5.567   3.219   6.124  0.3442  0.0078  0.3556
  192POPC  H15B22133   5.665   3.082   6.178  1.7812  1.1441  0.3493
  192POPC  H15C22134   5.549   3.064   6.055  0.1611 -0.3079  0.8621
  192POPC   C1122135   5.944   3.052   5.923 -0.2917 -0.5758 -0.0778
  192POPC  H11A22136   5.912   3.068   5.818  2.1754 -0.1636 -0.8319
  192POPC  H11B22137   5.996   2.955   5.908 -0.4219 -0.4044 -1.7480
  192POPC     P22138   6.172   3.109   6.036  0.0677  0.2559 -0.1770
  192POPC   O1322139   6.250   3.233   6.067 -0.7182 -0.1555  0.1342
  192POPC   O1422140   6.240   3.000   5.959  0.1003 -0.3947 -0.0467
  192POPC   O1222141   6.033   3.153   5.963  0.3312  0.0400 -0.8939
  192POPC   O1122142   6.120   3.039   6.173  0.3955 -0.0684 -0.3103
  192POPC    C122143   6.040   3.124   6.260  0.0165 -0.4038  0.9215
  192POPC    HA22144   5.941   3.074   6.267 -0.3797 -0.6991 -3.5609
  192POPC    HB22145   6.023   3.225   6.218 -1.3089 -1.4617 -1.2657
  192POPC    C222146   6.080   3.143   6.408 -0.0894  0.9493  1.0145
  192POPC    HS22147   6.027   3.231   6.451  0.1480  2.1697 -1.0600
  192POPC   O2122148   6.222   3.159   6.417 -0.1393  0.0310 -0.1474
  192POPC   C2122149   6.262   3.287   6.417 -0.0029  0.3327  0.2156
  192POPC   O2222150   6.191   3.384   6.418 -0.3177  0.7487 -0.2765
  192POPC   C2222151   6.410   3.280   6.386  0.3673  0.0634 -0.5753
  192POPC   H2R22152   6.426   3.286   6.277 -1.1058  2.2177 -0.7408
  192POPC   H2S22153   6.447   3.183   6.425 -0.2796 -0.1687 -0.5456
  192POPC    C322154   6.038   3.025   6.498 -0.3166 -0.3175 -0.1375
  192POPC    HX22155   6.105   2.939   6.475 -0.1031 -0.1996  0.0396
  192POPC    HY22156   5.933   3.007   6.466 -0.6102 -0.1882  0.7402
  192POPC   O3122157   6.047   3.061   6.637  0.6524  0.3949  0.5015
  192POPC   C3122158   5.944   3.111   6.696 -0.2031  0.2695 -0.2737
  192POPC   O3222159   5.827   3.113   6.654 -0.2114 -0.1615  0.0104
  192POPC   C3222160   5.974   3.142   6.842 -0.2993 -0.4862 -0.6043
  192POPC   H2X22161   5.886   3.194   6.885  1.3988  0.4650  1.9986
  192POPC   H2Y22162   6.057   3.216   6.841  0.8914 -1.2309  5.3245
  192POPC   C2322163   6.489   3.384   6.470 -0.1549 -0.8274  0.6245
  192POPC   H3R22164   6.452   3.489   6.465 -0.5056 -0.9206  1.1718
  192POPC   H3S22165   6.599   3.388   6.454 -0.3775 -1.6939 -1.4118
  192POPC   C2422166   6.489   3.345   6.617 -0.4396  0.3815  0.1696
  192POPC   H4R22167   6.555   3.257   6.626 -3.0368 -1.6111  1.0330
  192POPC   H4S22168   6.386   3.314   6.646  0.0748 -0.6507  0.9323
  192POPC   C2522169   6.538   3.463   6.699 -0.2826  0.7326 -0.3887
  192POPC   H5R22170   6.470   3.548   6.678  0.5747  1.9330  1.5058
  192POPC   H5S22171   6.631   3.503   6.654  0.8026 -2.7007 -1.5540
  192POPC   C2622172   6.564   3.447   6.847  0.5649  0.0342 -0.0080
  192POPC   H6R22173   6.626   3.358   6.876 -1.0137 -0.7192  1.2113
  192POPC   H6S22174   6.472   3.430   6.907 -0.0108 -0.2680 -0.9577
  192POPC   C2722175   6.620   3.581   6.899  0.3195  0.6016  0.7245
  192POPC   H7R22176   6.539   3.656   6.893  1.0438  1.3464  0.0943
  192POPC   H7S22177   6.701   3.611   6.829  1.0505  0.4011  1.4654
  192POPC   C2822178   6.661   3.571   7.041 -0.5642  0.0352 -0.5042
  192POPC   H8R22179   6.749   3.506   7.022  0.1594  1.1314 -0.9454
  192POPC   H8S22180   6.592   3.508   7.102 -0.7764  0.6441 -0.1046
  192POPC   C2922181   6.710   3.698   7.115 -0.4214  0.3074  0.4442
  192POPC   H9122182   6.784   3.760   7.063 -0.9889 -0.3086 -1.1473
  192POPC  C21022183   6.672   3.726   7.241  0.0835 -0.2143 -0.3242
  192POPC  H10122184   6.701   3.821   7.287 -3.4555  0.6496  0.3482
  192POPC  C21122185   6.574   3.640   7.321 -1.1019 -0.0281  0.1809
  192POPC  H11R22186   6.630   3.551   7.358 -0.9572  0.0377  0.1245
  192POPC  H11S22187   6.489   3.605   7.260 -1.8882  0.5978  0.9002
  192POPC  C21222188   6.532   3.730   7.440 -0.0816  0.2641  0.5891
  192POPC  H12R22189   6.454   3.670   7.491  0.5142 -0.1677  0.9981
  192POPC  H12S22190   6.486   3.828   7.415 -1.0487 -0.1699  0.6176
  192POPC  C21322191   6.636   3.741   7.556 -0.1643  0.2530  0.5740
  192POPC  H13R22192   6.711   3.808   7.508  0.1957  0.2618  1.1405
  192POPC  H13S22193   6.668   3.637   7.579 -2.7832 -0.4902  1.2136
  192POPC  C21422194   6.592   3.813   7.690 -0.6092  0.0341  0.0933
  192POPC  H14R22195   6.518   3.748   7.741 -2.1084  0.5588 -1.2836
  192POPC  H14S22196   6.544   3.910   7.664 -1.1770 -0.1708  0.3516
  192POPC  C21522197   6.712   3.839   7.781 -0.6093  0.2921  0.1695
  192POPC  H15R22198   6.779   3.912   7.731 -2.6984  3.2241  1.4103
  192POPC  H15S22199   6.767   3.743   7.793 -0.5840  0.4306  1.2249
  192POPC  C21622200   6.667   3.894   7.915  0.9304  0.5319 -0.7563
  192POPC  H16R22201   6.599   3.813   7.949  1.7161  0.0502 -0.3187
  192POPC  H16S22202   6.606   3.987   7.904 -1.4034 -0.1492  3.8836
  192POPC  C21722203   6.777   3.908   8.022 -0.1463  0.1165 -0.0955
  192POPC  H17R22204   6.856   3.977   7.985  2.3949 -2.0956  0.9019
  192POPC  H17S22205   6.833   3.814   8.039  0.9211  0.8739  0.7537
  192POPC  C21822206   6.731   3.953   8.167  0.7016  0.1881  0.1402
  192POPC  H18R22207   6.654   4.032   8.155  2.4603  2.3342  1.9929
  192POPC  H18S22208   6.822   3.999   8.211  0.7796  1.0797 -0.9142
  192POPC  H18T22209   6.682   3.874   8.230  0.7541  0.5094  0.5901
  192POPC   C3322210   6.013   3.021   6.924  0.1172  0.0283  0.7688
  192POPC   H3X22211   6.113   2.985   6.894 -0.7820 -2.0127  0.0134
  192POPC   H3Y22212   5.946   2.938   6.890  1.0935  0.0116 -1.2983
  192POPC   C3422213   5.983   3.032   7.074  0.0301  1.2240 -0.4122
  192POPC   H4X22214   6.010   3.129   7.121 -0.1918  0.2927  1.7334
  192POPC   H4Y22215   6.038   2.947   7.121 -0.8525  2.0265  2.1949
  192POPC   C3522216   5.835   3.009   7.110  0.0887 -0.1009 -0.6648
  192POPC   H5X22217   5.804   2.905   7.087  1.0949 -0.5328 -0.1283
  192POPC   H5Y22218   5.776   3.082   7.050  1.6265  0.4291 -1.6045
  192POPC   C3622219   5.804   3.019   7.260  0.5041 -0.0806 -0.2754
  192POPC   H6X22220   5.694   3.018   7.269  0.4639 -0.0544 -0.7633
  192POPC   H6Y22221   5.833   3.116   7.307 -0.8339 -0.6177  1.8119
  192POPC   C3722222   5.859   2.907   7.350 -0.3362  0.6392  0.1395
  192POPC   H7X22223   5.967   2.887   7.331  0.4880 -1.7205  5.4581
  192POPC   H7Y22224   5.805   2.813   7.324 -0.1083 -0.3935  3.0636
  192POPC   C3822225   5.850   2.920   7.500  0.2929  0.7969  0.1842
  192POPC   H8X22226   5.744   2.934   7.530  0.1998 -0.7254  0.6403
  192POPC   H8Y22227   5.911   3.012   7.515  1.5602 -0.3475  2.5664
  192POPC   C3922228   5.894   2.800   7.577  0.0939  0.1264 -0.2639
  192POPC   H9X22229   6.004   2.783   7.582 -0.0798 -1.2449 -0.7422
  192POPC   H9Y22230   5.866   2.701   7.537  1.5134 -0.2228 -0.4738
  192POPC  C31022231   5.838   2.809   7.720 -0.3210  0.5451 -0.5429
  192POPC  H10X22232   5.730   2.788   7.710 -0.1804 -0.6685  0.2816
  192POPC  H10Y22233   5.851   2.910   7.763  2.4736  0.4103 -0.8507
  192POPC  C31122234   5.868   2.696   7.827  0.4298 -0.9667  0.4087
  192POPC  H11X22235   5.976   2.678   7.845  0.4967 -1.7003 -0.6393
  192POPC  H11Y22236   5.833   2.600   7.783  2.2804  0.0920 -3.8540
  192POPC  C31222237   5.796   2.734   7.959  0.0584  0.0547  0.4739
  192POPC  H12X22238   5.773   2.641   8.016  2.2871 -0.0175  1.3609
  192POPC  H12Y22239   5.700   2.785   7.935  0.3263  1.1658  1.6422
  192POPC  C31322240   5.881   2.809   8.066 -0.2704 -0.7498  0.5229
  192POPC  H13X22241   5.884   2.916   8.037 -0.8843 -0.0107  2.9182
  192POPC  H13Y22242   5.985   2.771   8.068  0.6354  1.3812 -1.6361
  192POPC  C31422243   5.827   2.798   8.210  0.4481 -0.6201 -0.9703
  192POPC  H14X22244   5.722   2.835   8.211  1.0753  1.2870  0.4821
  192POPC  H14Y22245   5.883   2.869   8.275 -1.8392  2.1957 -1.8419
  192POPC  C31522246   5.834   2.655   8.272  1.2175  0.1748 -0.2620
  192POPC  H15X22247   5.791   2.575   8.209 -0.1674  1.4349 -0.9708
  192POPC  H15Y22248   5.755   2.666   8.349  2.6391  0.9785  1.1413
  192POPC  C31622249   5.969   2.623   8.330  0.3336  0.2048 -0.1576
  192POPC  H16X22250   5.956   2.543   8.406 -0.4391  0.2564 -0.2244
  192POPC  H16Y22251   6.009   2.713   8.381  0.4254  0.4515 -0.6629
  192POPC  H16Z22252   6.034   2.582   8.251 -0.2701 -1.6400  0.2355
  193SOD    SOD22253   0.929   5.924   5.851 -0.3176  0.0403  0.0205
  194SOD    SOD22254   3.626   1.184   3.582 -0.3355  0.7649 -0.0292
  195SOD    SOD22255   5.500   4.552  16.835 -0.0058 -0.8299  0.3088
  196SOD    SOD22256   1.252   1.775   0.230  0.3506  0.4107 -0.8589
  197SOD    SOD22257   1.113   1.639   3.869 -0.4776  0.2409 -0.4207
  198SOD    SOD22258   2.546   0.052  15.319  0.1787 -0.0770 -0.0986
  199SOD    SOD22259   4.956   4.895   1.667 -0.2311 -0.3563  0.9057
  200SOD    SOD22260   2.795   2.365  16.047  0.4154 -0.0988 -0.2617
  201SOD    SOD22261   3.201   2.437  11.551  0.2022  0.4962  0.1089
  202SOD    SOD22262   0.463   0.367  12.047 -0.2605  0.3950 -0.5041
  203SOD    SOD22263   2.252   3.117   6.138  0.0306  0.5115  0.4697
  204SOD    SOD22264   4.901   2.080  12.726  0.1409  0.5046 -0.9358
  205SOD    SOD22265   2.217   5.332   1.920 -0.2033  0.0054  0.2241
  206SOD    SOD22266   2.100   5.724   5.940 -0.0329 -0.4569  0.6060
  207SOD    SOD22267   1.610   1.748  10.647  0.0833  0.5655 -0.6588
  208SOD    SOD22268   1.777   6.535  12.723  0.2954 -0.0976 -0.0740
  209SOD    SOD22269   6.074   0.563  13.516 -0.1701  0.1335 -0.5813
  210SOD    SOD22270   6.678   4.030   3.260  0.1736 -0.2567 -0.0915
  211SOD    SOD22271   3.083   2.476   0.490  0.1045  0.6245 -0.5194
  212SOD    SOD22272   2.386   0.645   0.293  0.2619  0.2502 -0.1853
  213SOD    SOD22273   0.186   6.461  13.839 -0.1535  0.0184 -0.2956
  214SOD    SOD22274   5.606   5.163  13.973 -0.3718  0.2887  0.0403
  215SOD    SOD22275   0.818   2.148  11.287 -0.6329 -0.2704  0.3304
  216SOD    SOD22276   3.532   3.814   2.877  0.0196  0.1448  0.0810
  217SOD    SOD22277   5.900   2.364  14.218  0.0922 -0.1647 -0.0300
  218SOD    SOD22278   0.571   3.410   0.985  0.0025  0.3107  0.3664
  219SOD    SOD22279   6.757   1.861  12.150 -0.0670 -0.5453 -0.4969
  220SOD    SOD22280   5.110   0.581  10.772  0.8163  0.3514 -0.2492
  221SOD    SOD22281   4.634   2.899  13.527  0.5955  0.3955 -0.4598
  222SOD    SOD22282   2.012   3.688   4.872  0.0474  0.3514  0.2242
  223SOD    SOD22283   6.103   4.963   4.156 -0.0414  0.1318 -0.0434
  224SOD    SOD22284   4.463   0.468  11.265  0.0995 -0.3443  0.4691
  225SOD    SOD22285   6.467   3.344  11.891  0.3711 -0.1554  0.2477
  226SOD    SOD22286   0.381   6.443   0.014 -0.7881 -0.1111 -0.5312
  227SOD    SOD22287   2.694   0.321  10.739 -0.6946 -0.1496  0.2663
  228SOD    SOD22288   0.941   4.988   0.108 -0.2653 -0.3740 -0.2882
  229SOD    SOD22289   4.244   5.795   1.956 -0.2527 -0.2864  0.0111
  230SOD    SOD22290   1.554   6.134   6.586 -0.2339 -0.0311  0.0944
  231SOD    SOD22291   5.336   4.887   6.445  0.3073  0.4079  0.1652
  232SOD    SOD22292   5.506   4.087   5.206 -0.5677  0.1126 -0.3361
  233SOD    SOD22293   1.733   0.843  16.599  0.2742  0.2029  0.6236
  234SOD    SOD22294   0.725   1.592  13.670  0.0627 -0.1689 -0.1624
  235SOD    SOD22295   1.335   0.915   6.024 -0.5649 -0.3063  0.1375
  236SOD    SOD22296   1.447   2.738  15.226  0.2852  0.0313  0.0182
  237SOD    SOD22297   3.933   0.058  12.669  0.5694  0.0012  0.2049
  238SOD    SOD22298   0.580   1.178   2.523 -0.1008  0.5953  0.3167
  239SOD    SOD22299   3.058   4.225  11.792  0.4368 -0.5170 -0.3486
  240SOD    SOD22300   4.761   4.289  13.274 -0.1845  0.4701 -0.0347
  241SOD    SOD22301   5.956   3.350  10.733  0.1006  0.4564 -0.3071
  242SOD    SOD22302   2.206   5.279  14.552 -0.1002  0.0566 -0.1559
  243SOD    SOD22303   4.837   4.852  16.954  0.5103  0.3776  0.1098
  244SOD    SOD22304   1.139   3.290   1.705 -0.3526 -0.4612  0.2857
  245SOD    SOD22305   6.370   0.583   2.381  0.4435 -0.2249 -0.8794
  246SOD    SOD22306   0.536   5.192   5.162  0.2472  0.2012  0.1160
  247SOD    SOD22307   3.932   6.135  14.542  0.3542  0.1470 -0.1451
  248SOD    SOD22308   4.439   6.350   0.393  0.6961  0.0378 -0.0292
  249SOD    SOD22309   4.506   2.092   0.741 -0.2280  0.2071  0.3931
  250SOD    SOD22310   6.723   4.044  14.670  0.1832  0.2228  0.1968
  251SOD    SOD22311   3.061   4.323   1.311 -0.1466 -0.3709  0.1949
  252SOD    SOD22312   5.081   1.507   5.674 -0.2941  0.1953  0.1162
  253SOD    SOD22313   0.040   1.411   2.526 -0.2448 -0.0340  0.1426
  254SOD    SOD22314   2.337   1.360  14.255  0.2485  0.1154 -0.1729
  255SOD    SOD22315   0.464   4.306  10.893  0.0517  0.0354  0.5890
  256SOD    SOD22316   6.360   0.341   1.393  0.1781  0.1584 -0.0429
  257SOD    SOD22317   2.341   1.707   5.647 -0.7087 -0.1137  0.2759
  258SOD    SOD22318   4.025   2.815   6.389 -0.5500  0.0505  0.2340
  259SOD    SOD22319   4.024   4.123   3.019  0.5167 -0.3604  0.3145
  260SOD    SOD22320   0.684   0.762  10.954 -0.4524  0.5496 -0.1015
  261SOD    SOD22321   5.074   2.161   4.711 -0.3152  0.1816  0.1364
  262SOD    SOD22322   0.390   5.025   1.370  0.1943 -0.0540  0.0175
  263SOD    SOD22323   0.938   3.628   1.990 -0.4477  0.0409  0.3894
  264SOD    SOD22324   0.565   0.127   6.145  0.0607 -0.1624  0.4186
  265SOD    SOD22325   2.649   6.740  14.461  0.1207 -0.6034 -0.2655
  266SOD    SOD22326   1.813   0.683  11.560 -0.0647 -0.0042 -0.0074
  267SOD    SOD22327   0.383   6.443   1.211  0.6132  0.3217  0.4260
  268SOD    SOD22328   0.535   6.036  12.973 -0.0204  0.1277  0.3714
  269SOD    SOD22329   0.402   5.431  16.412 -0.2360  0.0700 -0.1993
  270CLA    CLA22330   4.414   0.731  16.223 -0.1229 -0.2741  0.1911
  271CLA    CLA22331   4.012   3.158   4.045  0.3527 -0.0650 -0.2919
  272CLA    CLA22332   0.599   4.156   0.984 -0.2615  0.3768  0.4027
  273CLA    CLA22333   5.220   1.863  16.069 -0.3658  0.2220  0.0545
  274CLA    CLA22334   4.645   0.302  14.094  0.0962  0.1839 -0.4675
  275CLA    CLA22335   0.844   6.732  11.273 -0.1239 -0.0761  0.0535
  276CLA    CLA22336   2.512   2.822   2.060  0.1245 -0.5677  0.3203
  277CLA    CLA22337   0.007   6.481  16.423  0.0458 -0.3091  0.0946
  278CLA    CLA22338   3.491   2.042   0.860  0.1985  0.0010 -0.3333
  279CLA    CLA22339   5.198   1.946   1.998  0.0649  0.0042  0.1338
  280CLA    CLA22340   3.465   4.110   1.534 -0.3189 -0.0735  0.1882
  281CLA    CLA22341   2.629   5.001  15.834 -0.2784 -0.4361  0.2559
  282CLA    CLA22342   1.335   1.191  16.787 -0.1601 -0.1443 -0.2052
  283CLA    CLA22343   6.265   4.107   2.029 -0.2064 -0.0009  0.0171
  284CLA    CLA22344   3.724   5.742   0.904  0.3417  0.0049 -0.0800
  285CLA    CLA22345   6.648   4.562   0.409  0.2808 -0.2796  0.0486
  286CLA    CLA22346   5.900   2.850  14.130 -0.3197 -0.0947  0.0687
  287CLA    CLA22347   5.730   0.805  13.813  0.1147 -0.0468 -0.1943
  288CLA    CLA22348   2.381   3.430  16.622  0.0659  0.1028  0.1644
  289CLA    CLA22349   3.489   6.450   4.060  0.0704 -0.1080 -0.0929
  290CLA    CLA22350   2.769   1.846   5.418 -0.1396  0.2576  0.1633
  291CLA    CLA22351   4.397   4.970  16.536 -0.1244 -0.1512  0.2475
  292CLA    CLA22352   0.060   1.538  13.145  0.0394  0.1972  0.2275
  293CLA    CLA22353   1.774   5.262  15.024 -0.4131 -0.2229 -0.2250
  294CLA    CLA22354   1.661   6.072   0.548  0.1392 -0.3066  0.2629
  295CLA    CLA22355   0.133   4.017  13.293  0.1293 -0.7109  0.0687
  296CLA    CLA22356   2.043   6.726  16.097 -0.1486  0.0195 -0.2476
  297CLA    CLA22357   1.649   5.948   5.992  0.1773  0.5561 -0.3240
  298CLA    CLA22358   3.519   2.264  12.792  0.3466  0.2303 -0.0877
  299CLA    CLA22359   2.390   4.955   4.975 -0.0382 -0.2381  0.1382
  300CLA    CLA22360   0.001   1.864   0.702  0.0827 -0.0949 -0.1155
  301CLA    CLA22361   0.007   0.147  13.219 -0.1353 -0.0542  0.4193
  302CLA    CLA22362   1.118   4.489   3.759  0.1903 -0.0653  0.1651
  303CLA    CLA22363   0.635   0.177   1.909  0.1245  0.1473 -0.8068
  304CLA    CLA22364   6.006   5.712  15.638  0.2063  0.1827 -0.4155
  305CLA    CLA22365   6.114   6.364   3.491 -0.4016  0.3820 -0.1505
  306CLA    CLA22366   3.752   5.429   1.538  0.2537 -0.3773  0.1521
  307CLA    CLA22367   4.897   6.307   1.215 -0.0687  0.0788  0.1628
  308CLA    CLA22368   5.474   2.827  14.989  0.4518 -0.0448  0.0640
  309CLA    CLA22369   2.161   5.502  12.886 -0.2640 -0.0515 -0.4145
  310CLA    CLA22370   0.890   6.353  13.835 -0.1093  0.1025 -0.1578
  311CLA    CLA22371   2.053   5.199  11.511  0.2719 -0.0195 -0.3339
  312CLA    CLA22372   5.605   5.210  13.005  0.0879  0.1878  0.2212
  313CLA    CLA22373   3.018   4.564  15.209  0.2906  0.2446  0.5342
  314CLA    CLA22374   6.808   2.000   4.657  0.5558 -0.1847 -0.1325
  315CLA    CLA22375   3.484   2.152  16.534 -0.0961 -0.4881  0.3074
  316CLA    CLA22376   0.370   2.416   3.331 -0.0187 -0.0745  0.4242
  317CLA    CLA22377   0.758   3.612   2.856  0.0773 -0.1077  0.2200
  318CLA    CLA22378   1.232   0.727   1.867 -0.1136 -0.1489  0.0438
  319CLA    CLA22379   4.364   1.016  12.063 -0.1303  0.2768 -0.2454
  320CLA    CLA22380   5.498   0.424   2.447  0.0356 -0.4020  0.3672
  321CLA    CLA22381   1.037   2.983   1.305  0.2723 -0.0204  0.2057
  322CLA    CLA22382   2.651   5.253  15.145  0.0419  0.1236 -0.3054
  323TIP3   OH222383   3.172   0.147  15.499 -0.1815 -0.4767 -0.2373
  323TIP3    H122384   3.180   0.242  15.498  0.8428 -0.5338  0.8134
  323TIP3    H222385   3.254   0.116  15.538 -0.4873 -1.7941 -0.5772
  324TIP3   OH222386   6.360   2.734   1.684 -0.3629 -0.0515 -0.2980
  324TIP3    H122387   6.360   2.830   1.690  3.8064  0.3160 -2.1634
  324TIP3    H222388   6.322   2.716   1.598  2.3158  0.3899 -1.6774
  325TIP3   OH222389   2.383   3.520   4.669 -0.4545  0.1788 -0.1422
  325TIP3    H122390   2.435   3.471   4.605 -0.4633 -0.2070  0.1415
  325TIP3    H222391   2.424   3.501   4.753  1.6376  3.2870 -0.2848
  326TIP3   OH222392   4.809   1.949   1.756 -0.2542  0.8404 -0.1839
  326TIP3    H122393   4.858   1.868   1.771 -1.5505  0.1149  0.3740
  326TIP3    H222394   4.815   1.965   1.662  0.3654  0.3243 -0.2349
  327TIP3   OH222395   1.955   2.372   1.952  0.0342  0.5554  0.1019
  327TIP3    H122396   1.878   2.315   1.957  1.7848 -1.9563  0.1900
  327TIP3    H222397   1.962   2.394   1.859 -0.3525  0.1282 -0.0348
  328TIP3   OH222398   4.299   5.386   6.305 -0.2313 -0.2394 -0.4393
  328TIP3    H122399   4.236   5.430   6.248 -1.7438 -1.3946  0.2620
  328TIP3    H222400   4.305   5.444   6.382  1.0099  0.7935 -1.2872
  329TIP3   OH222401   2.493   4.994  15.541 -0.4319  0.4361 -0.4305
  329TIP3    H122402   2.562   5.024  15.482 -1.9776  2.5331 -1.2757
  329TIP3    H222403   2.531   5.003  15.628 -0.4364  4.2586 -0.6707
  330TIP3   OH222404   0.643   1.534   1.044 -0.1384  0.6097  0.5548
  330TIP3    H122405   0.696   1.614   1.048  0.0074  0.4806  1.5080
  330TIP3    H222406   0.591   1.537   1.124 -1.5831  0.7259 -0.3547
  331TIP3   OH222407   0.772   5.971   3.872 -0.8552  0.4923  0.5210
  331TIP3    H122408   0.829   5.907   3.828  1.1193  1.5463  1.4173
  331TIP3    H222409   0.760   6.041   3.807 -1.2223  0.2347  0.3050
  332TIP3   OH222410   2.015   1.357   4.610 -0.3153 -0.0342 -0.1648
  332TIP3    H122411   2.003   1.262   4.604  0.2123 -0.2454  1.6065
  332TIP3    H222412   1.934   1.393   4.573 -1.2948 -1.2126  0.7378
  333TIP3   OH222413   1.816   0.611   4.119  0.0836  0.7308  0.1188
  333TIP3    H122414   1.910   0.615   4.134  0.1442  0.2118 -0.0863
  333TIP3    H222415   1.794   0.694   4.077  0.6971  0.2579 -1.1782
  334TIP3   OH222416   1.499   2.997  14.282 -0.2552  0.4078  0.5340
  334TIP3    H122417   1.554   2.959  14.213 -0.0793 -0.9343  1.3893
  334TIP3    H222418   1.427   3.037  14.234  0.7995  1.1044 -0.5358
  335TIP3   OH222419   1.746   4.385  13.588  0.4753  0.1361  0.9198
  335TIP3    H122420   1.670   4.338  13.623  0.2927 -0.0210  0.3128
  335TIP3    H222421   1.735   4.380  13.493  0.6979  1.0105  0.8473
  336TIP3   OH222422   3.712   1.523  12.379 -0.3126  0.2064  0.0635
  336TIP3    H122423   3.703   1.435  12.344  1.4491 -0.9799  2.2980
  336TIP3    H222424   3.624   1.548  12.408 -1.0743 -0.2294 -1.7720
  337TIP3   OH222425   5.807   4.363   0.764  0.1056 -0.2737  0.1505
  337TIP3    H122426   5.767   4.315   0.836  1.8711 -4.6576 -1.4567
  337TIP3    H222427   5.901   4.353   0.777  0.5026  0.9055 -1.4952
  338TIP3   OH222428   2.387   3.369  16.147 -1.0470 -0.2110 -0.3138
  338TIP3    H122429   2.355   3.458  16.159  1.1922  0.8612 -1.5328
  338TIP3    H222430   2.418   3.342  16.233 -0.4227  0.7777 -0.2216
  339TIP3   OH222431   2.498   2.874  11.757  0.8300 -0.5022  0.0957
  339TIP3    H122432   2.445   2.854  11.680  0.4698 -0.4985  0.3375
  339TIP3    H222433   2.527   2.788  11.788 -1.1556 -0.7642  1.4444
  340TIP3   OH222434   4.155   1.390   1.405  0.5937  0.0128 -0.3625
  340TIP3    H122435   4.196   1.477   1.407 -0.3465  0.4577  1.2518
  340TIP3    H222436   4.092   1.392   1.477 -2.4831 -0.5480 -2.8443
  341TIP3   OH222437   5.277   2.785  16.984  0.5908  0.3113 -0.2150
  341TIP3    H122438   5.274   2.875  17.018  0.0427  0.1976  0.0466
  341TIP3    H222439   5.296   2.796  16.891 -0.7319  0.7740 -0.4576
  342TIP3   OH222440   0.159   6.358   2.165  0.0796  0.0750 -0.5912
  342TIP3    H122441   0.250   6.386   2.170 -0.3629  1.3902  2.5319
  342TIP3    H222442   0.164   6.262   2.166  1.4348  0.1267  0.7481
  343TIP3   OH222443   1.053   5.185   4.980  0.6410  0.7085 -0.0866
  343TIP3    H122444   0.978   5.226   4.938  0.7855  0.7929 -0.2620
  343TIP3    H222445   1.092   5.255   5.033 -0.1357  0.3475  1.0110
  344TIP3   OH222446   5.787   5.239  10.963  0.2376  0.3616 -0.2415
  344TIP3    H122447   5.786   5.335  10.960 -0.1377  0.3818  0.3316
  344TIP3    H222448   5.791   5.218  11.056  1.0001 -0.1854 -0.3947
  345TIP3   OH222449   5.775   0.231  16.493  0.1585 -0.8656 -0.2782
  345TIP3    H122450   5.691   0.266  16.463  1.0249  0.2988 -1.4620
  345TIP3    H222451   5.772   0.240  16.589 -0.5042  0.5794 -0.4017
  346TIP3   OH222452   4.857   2.460   4.487  0.3901 -0.3838 -0.1512
  346TIP3    H122453   4.818   2.471   4.574 -1.2452  2.4801 -1.1151
  346TIP3    H222454   4.837   2.369   4.463 -1.3919 -0.4797  1.4425
  347TIP3   OH222455   0.778   2.600  12.017  0.3082 -0.7573 -0.0815
  347TIP3    H122456   0.704   2.646  11.975  1.1306 -0.7196 -1.5826
  347TIP3    H222457   0.769   2.509  11.987  0.3647 -0.9481  0.4763
  348TIP3   OH222458   5.228   0.202  13.394 -0.1822 -0.3718 -1.1284
  348TIP3    H122459   5.184   0.183  13.477  1.7561  1.5228  0.4575
  348TIP3    H222460   5.179   0.276  13.356 -0.9293 -1.0890 -1.5841
  349TIP3   OH222461   5.169   2.533  11.738 -0.1603 -0.3256 -0.3096
  349TIP3    H122462   5.127   2.611  11.703  1.3432  0.6402 -0.0416
  349TIP3    H222463   5.105   2.463  11.723 -1.1683  0.7708 -1.3794
  350TIP3   OH222464   4.482   0.419   3.068 -0.3917  0.2136 -0.4261
  350TIP3    H122465   4.472   0.446   3.159  0.9613 -0.5416 -0.0284
  350TIP3    H222466   4.472   0.324   3.069 -2.5905  0.3618 -1.4373
  351TIP3   OH222467   4.690   2.299  15.302  0.0423  0.2353 -0.1167
  351TIP3    H122468   4.681   2.220  15.355  1.0926  0.4461  0.4122
  351TIP3    H222469   4.701   2.369  15.366 -1.8325  0.9774 -0.5436
  352TIP3   OH222470   1.571   5.656   3.677 -0.5749  0.0106 -0.0742
  352TIP3    H122471   1.648   5.612   3.642 -0.7803 -0.3517 -0.0812
  352TIP3    H222472   1.531   5.698   3.601  0.1486  1.0278  0.0945
  353TIP3   OH222473   3.578   6.481  13.186 -0.2385 -0.4887  1.0264
  353TIP3    H122474   3.638   6.520  13.123 -0.4709 -0.9536  0.5106
  353TIP3    H222475   3.572   6.546  13.256 -2.6208  1.6671 -0.9687
  354TIP3   OH222476   1.302   1.737  16.199  0.4849 -0.1115  0.3657
  354TIP3    H122477   1.390   1.769  16.220  1.2119 -1.9743  0.2977
  354TIP3    H222478   1.294   1.656  16.249 -1.5442  0.4456  1.0297
  355TIP3   OH222479   4.074   4.356   5.400 -0.2024  0.6279  0.3827
  355TIP3    H122480   4.127   4.344   5.479  1.5483  5.2327  0.2198
  355TIP3    H222481   4.135   4.393   5.335 -2.8551  3.4915 -0.7738
  356TIP3   OH222482   5.521   0.520   5.242 -0.5326  0.0161  0.5016
  356TIP3    H122483   5.436   0.517   5.285 -0.7227 -0.1251  0.1146
  356TIP3    H222484   5.502   0.513   5.149 -0.1654  0.8932  0.3485
  357TIP3   OH222485   3.109   4.778   3.670 -0.1625 -0.3071  0.0905
  357TIP3    H122486   3.046   4.782   3.742 -0.5637 -1.6278 -0.1581
  357TIP3    H222487   3.190   4.748   3.711 -0.9341 -3.1506 -0.2705
  358TIP3   OH222488   0.455   5.179  14.470 -0.1295 -0.2609  0.4358
  358TIP3    H122489   0.391   5.194  14.400  0.6527  1.6334  0.0619
  358TIP3    H222490   0.509   5.106  14.438  1.4403  1.7748 -1.9361
  359TIP3   OH222491   0.250   4.035  10.853  0.3142  0.5662  0.4504
  359TIP3    H122492   0.162   4.020  10.819  0.0429  1.2928  0.8259
  359TIP3    H222493   0.289   4.099  10.793  0.9495 -0.4829 -0.2909
  360TIP3   OH222494   6.355   2.762   3.761 -0.1689 -0.4654  0.4030
  360TIP3    H122495   6.294   2.834   3.744 -0.2426 -0.8244 -0.9920
  360TIP3    H222496   6.399   2.786   3.843 -0.3592  1.0528  0.0827
  361TIP3   OH222497   3.494   2.310   5.455 -0.8026 -0.4201  0.7192
  361TIP3    H122498   3.515   2.400   5.429  2.6377 -0.8400  1.4978
  361TIP3    H222499   3.520   2.257   5.379  0.9431 -0.9820  1.6572
  362TIP3   OH222500   1.053   1.514  12.973  0.2409  0.0012  0.2030
  362TIP3    H122501   1.058   1.418  12.968  1.4539  0.0661 -0.1782
  362TIP3    H222502   0.966   1.535  12.939  0.5200 -0.8928 -1.1530
  363TIP3   OH222503   5.147   2.042   1.671  0.4673 -0.0405 -0.2224
  363TIP3    H122504   5.230   2.049   1.719  0.2539 -0.8115  0.2805
  363TIP3    H222505   5.098   1.974   1.718 -0.0932 -0.2097 -1.0328
  364TIP3   OH222506   5.305   6.095   4.645  0.3705  0.5283  0.4179
  364TIP3    H122507   5.326   6.128   4.557  2.6190 -3.5397 -0.7948
  364TIP3    H222508   5.209   6.101   4.650  0.2393  1.6266 -1.9625
  365TIP3   OH222509   6.539   3.061  15.607 -0.1209  0.2102 -0.0652
  365TIP3    H122510   6.621   3.106  15.627  0.1880  0.1805 -1.2253
  365TIP3    H222511   6.510   3.098  15.524 -0.7305 -0.5505 -0.2108
  366TIP3   OH222512   1.041   4.870   1.086  0.1086 -0.4709 -0.0559
  366TIP3    H122513   1.070   4.883   0.995 -1.1112 -1.1344 -0.5649
  366TIP3    H222514   1.097   4.799   1.118 -0.5838 -1.4282 -0.8777
  367TIP3   OH222515   6.316   2.567   4.072 -0.2878  0.6882  0.2054
  367TIP3    H122516   6.355   2.513   4.140  2.4061  1.8347 -0.2913
  367TIP3    H222517   6.331   2.518   3.991 -1.9873  0.1191  0.1759
  368TIP3   OH222518   6.768   4.708   1.467 -0.2823 -0.1793  0.0005
  368TIP3    H122519   6.736   4.679   1.552  0.5660 -0.7124  0.1596
  368TIP3    H222520   6.860   4.681   1.466 -0.6209 -1.4858 -1.6446
  369TIP3   OH222521   1.887   6.166   0.338  0.3747  0.2149 -0.1088
  369TIP3    H122522   1.968   6.116   0.352  0.3121  0.1831  0.1236
  369TIP3    H222523   1.823   6.127   0.397 -0.1608 -0.5718 -1.1778
  370TIP3   OH222524   0.251   6.297   0.455  0.3978 -0.2586 -0.4687
  370TIP3    H122525   0.199   6.226   0.417 -0.1816  0.1744 -0.5099
  370TIP3    H222526   0.271   6.355   0.382  0.5673 -0.2000 -0.3764
  371TIP3   OH222527   0.403   2.213  16.345  0.0527 -0.1202 -0.0159
  371TIP3    H122528   0.492   2.247  16.332  0.7034 -1.7795 -0.1866
  371TIP3    H222529   0.387   2.226  16.439  0.9021 -0.7239  0.2315
  372TIP3   OH222530   0.172   0.335   1.232 -0.1074  0.3445 -0.1968
  372TIP3    H122531   0.088   0.315   1.274  0.3840  0.5875  0.9221
  372TIP3    H222532   0.149   0.353   1.140 -0.9246 -2.6198 -0.6772
  373TIP3   OH222533   3.828   6.432   3.327 -0.3957  0.0985 -0.2448
  373TIP3    H122534   3.760   6.480   3.375 -1.2908  0.2942 -1.6756
  373TIP3    H222535   3.835   6.348   3.373 -0.0381  0.9074  1.2337
  374TIP3   OH222536   3.655   6.761  15.589 -0.3976  0.5093 -0.7862
  374TIP3    H122537   3.717   6.695  15.622 -0.5823  1.0530  0.7336
  374TIP3    H222538   3.708   6.815  15.530  0.3917  0.5038 -0.1064
  375TIP3   OH222539   5.983   5.724   5.449 -0.0360  0.1963 -0.3412
  375TIP3    H122540   5.903   5.677   5.473 -0.6860  1.5072  0.1032
  375TIP3    H222541   6.027   5.740   5.533  0.5986 -0.3227 -0.5658
  376TIP3   OH222542   4.631   4.800   3.062  0.4222  0.2300 -0.0216
  376TIP3    H122543   4.638   4.829   2.971  1.8225 -1.3484 -0.4713
  376TIP3    H222544   4.683   4.864   3.111 -2.3991  2.6047  0.1446
  377TIP3   OH222545   4.053   1.991  16.857 -0.2413 -0.2543 -0.2697
  377TIP3    H122546   4.008   1.935  16.793  0.0090 -2.1570  1.1355
  377TIP3    H222547   4.038   2.080  16.825 -0.7588 -1.0775 -2.5499
  378TIP3   OH222548   2.968   6.392   6.585  0.2658 -0.4839 -0.0760
  378TIP3    H122549   2.924   6.340   6.519  0.1324  0.8478 -1.0714
  378TIP3    H222550   2.914   6.471   6.595  0.9301 -0.1056  0.7318
  379TIP3   OH222551   0.111   6.304  14.340 -0.1017  0.0496  0.1564
  379TIP3    H122552   0.117   6.212  14.368 -2.7616 -0.2401  0.0078
  379TIP3    H222553   0.019   6.317  14.317  0.1256  2.8465  0.4192
  380TIP3   OH222554   6.663   4.640  11.912  0.3450  0.7911  0.7427
  380TIP3    H122555   6.619   4.561  11.945  1.4288 -0.1293  0.0476
  380TIP3    H222556   6.741   4.607  11.867 -0.4455  2.0593 -1.7213
  381TIP3   OH222557   5.433   2.858  12.503  0.2500 -0.1040 -0.4405
  381TIP3    H122558   5.480   2.799  12.443  1.2670 -0.1459  0.3591
  381TIP3    H222559   5.348   2.871  12.463  0.3591 -1.3620 -1.1228
  382TIP3   OH222560   4.741   3.731  15.118  0.7291  0.1353  0.3792
  382TIP3    H122561   4.719   3.729  15.211 -0.8835  1.8541  0.0897
  382TIP3    H222562   4.717   3.644  15.085 -1.6352  0.4908  0.9983
  383TIP3   OH222563   5.661   1.709  15.867 -0.6048  0.7073 -0.0158
  383TIP3    H122564   5.583   1.759  15.891 -1.4150  0.6765 -2.3177
  383TIP3    H222565   5.659   1.706  15.771  0.4876 -2.0740 -0.0419
  384TIP3   OH222566   2.853   5.314  13.712  0.0659 -0.1972  0.1977
  384TIP3    H122567   2.836   5.250  13.643 -1.7922  1.6103 -1.1839
  384TIP3    H222568   2.799   5.390  13.687  1.0559  1.3674  2.4799
  385TIP3   OH222569   6.480   2.945   5.944 -0.6703 -0.2856 -0.0372
  385TIP3    H122570   6.389   2.960   5.970 -0.8117 -0.6591 -0.3006
  385TIP3    H222571   6.524   3.029   5.959 -1.2711  0.1738 -0.7771
  386TIP3   OH222572   2.624   2.455  12.273  0.1024  0.1852 -0.1250
  386TIP3    H122573   2.693   2.389  12.271  1.2098  1.3152 -1.2731
  386TIP3    H222574   2.576   2.442  12.191 -0.1310  0.3161 -0.0078
  387TIP3   OH222575   0.031   0.748   3.684 -0.1495  0.1897 -0.1728
  387TIP3    H122576  -0.019   0.751   3.766  0.3959  0.3970  0.1561
  387TIP3    H222577  -0.032   0.718   3.619 -0.7665  0.6706  0.1925
  388TIP3   OH222578   1.457   6.130   1.172  0.0717 -0.1566 -0.2522
  388TIP3    H122579   1.395   6.203   1.178 -0.4939 -0.5868 -0.7088
  388TIP3    H222580   1.464   6.113   1.078 -0.2831 -1.0885 -0.1202
  389TIP3   OH222581   6.260   3.393  14.984  0.1446 -0.0857  0.1277
  389TIP3    H122582   6.181   3.419  14.936  0.9696  2.0102 -0.1808
  389TIP3    H222583   6.305   3.334  14.924 -0.1672  0.3614 -0.5615
  390TIP3   OH222584   0.618   0.428   3.395  1.0094 -0.8602 -0.0749
  390TIP3    H122585   0.556   0.374   3.346 -0.5098 -1.1644  2.0742
  390TIP3    H222586   0.703   0.407   3.357  0.0322 -1.8852 -1.8083
  391TIP3   OH222587   4.997   5.873  15.709  0.0020  0.4540  0.3036
  391TIP3    H122588   4.943   5.875  15.629 -0.4778  0.2814  0.6154
  391TIP3    H222589   5.019   5.780  15.719 -0.8066  0.3116  0.9293
  392TIP3   OH222590   0.835   2.808  12.179  0.8766  0.2391  0.1927
  392TIP3    H122591   0.847   2.740  12.113 -0.1314  0.2309  0.0134
  392TIP3    H222592   0.793   2.763  12.252 -0.2285  0.7673 -0.1124
  393TIP3   OH222593   0.380   5.243   2.212  0.0107 -0.1116 -0.1423
  393TIP3    H122594   0.396   5.152   2.235 -0.2144 -0.2014 -0.3382
  393TIP3    H222595   0.314   5.273   2.274  0.0848 -0.0823 -0.0779
  394TIP3   OH222596   0.564   4.922   4.831 -0.5737  0.0062  0.5180
  394TIP3    H122597   0.521   4.869   4.898  0.1884  0.6413  1.5494
  394TIP3    H222598   0.637   4.868   4.801 -1.0158 -0.3473  0.0728
  395TIP3   OH222599   1.770   0.284  15.809 -0.0781 -0.2602  0.1354
  395TIP3    H122600   1.854   0.240  15.805 -0.0153 -0.1364  0.0988
  395TIP3    H222601   1.720   0.248  15.735  0.1144  0.0228 -0.1328
  396TIP3   OH222602   6.607   3.436  14.688  0.0490  0.2148  0.5011
  396TIP3    H122603   6.528   3.463  14.640  0.8395 -0.1344 -1.0331
  396TIP3    H222604   6.676   3.493  14.654  0.6396 -0.0561  1.2230
  397TIP3   OH222605   0.250   0.117   5.790 -0.2216  0.1632  0.0467
  397TIP3    H122606   0.287   0.145   5.706  2.8422  0.7938  1.4639
  397TIP3    H222607   0.238   0.198   5.839 -0.6568 -0.3133  0.7341
  398TIP3   OH222608   3.368   3.436  14.019  0.5376  0.0587  0.5859
  398TIP3    H122609   3.411   3.355  13.992 -0.1967  0.2641 -1.3355
  398TIP3    H222610   3.278   3.426  13.990  0.0165  0.8904  1.8529
  399TIP3   OH222611   3.762   6.376  12.533 -0.2766  0.1574  0.3037
  399TIP3    H122612   3.794   6.318  12.603  0.7443  1.7728  1.2567
  399TIP3    H222613   3.701   6.435  12.578  0.0229  0.9051 -0.2591
  400TIP3   OH222614   1.116   2.492   5.755  0.4187 -0.7324  0.0165
  400TIP3    H122615   1.037   2.446   5.782  0.3915 -0.1388  1.0262
  400TIP3    H222616   1.187   2.431   5.773  0.3366 -0.5989  0.8579
  401TIP3   OH222617   3.762   6.366   2.191  0.1118  0.6932 -0.1692
  401TIP3    H122618   3.712   6.337   2.267  1.0868 -1.8604 -0.4138
  401TIP3    H222619   3.698   6.371   2.120 -0.3563  0.6763  0.2463
  402TIP3   OH222620   4.691   5.615  14.487  0.7810 -0.5141 -0.5288
  402TIP3    H122621   4.768   5.670  14.505  0.8493 -0.6387 -0.4380
  402TIP3    H222622   4.711   5.572  14.404  0.0975  0.7156 -1.3580
  403TIP3   OH222623   5.964   5.911   0.255  0.1758 -0.4354  0.0025
  403TIP3    H122624   5.989   5.888   0.345 -1.4943 -1.2867  0.2877
  403TIP3    H222625   5.917   5.994   0.265 -0.4157 -0.7646 -0.0100
  404TIP3   OH222626   4.126   6.435   4.731  0.3369  0.1598  0.2106
  404TIP3    H122627   4.058   6.420   4.665  1.7749 -0.6486 -1.1487
  404TIP3    H222628   4.162   6.348   4.748  0.9073  0.5536  1.0645
  405TIP3   OH222629   5.775   1.753  13.857  0.3323  0.3943 -0.0789
  405TIP3    H122630   5.755   1.675  13.806  0.2711  0.4918 -0.2056
  405TIP3    H222631   5.705   1.759  13.922  1.9722 -1.4232  2.0320
  406TIP3   OH222632   4.671   5.383  12.854 -0.2800 -0.0716  0.1326
  406TIP3    H122633   4.685   5.468  12.896  1.1808 -0.5029  0.5727
  406TIP3    H222634   4.749   5.370  12.800  0.2807 -1.7909  1.2512
  407TIP3   OH222635   0.768   1.647   5.120  0.1881  0.8085 -0.5444
  407TIP3    H122636   0.833   1.688   5.063  1.1745  0.2284  0.1233
  407TIP3    H222637   0.722   1.585   5.064  2.4847 -1.2173 -0.3387
  408TIP3   OH222638   3.597   0.053  12.401  0.3517 -0.1283  0.2413
  408TIP3    H122639   3.503   0.038  12.402  0.3688 -0.6045 -1.7842
  408TIP3    H222640   3.608   0.136  12.356  0.9424 -0.7412 -0.7818
  409TIP3   OH222641   5.591   0.160   4.573  0.4319  0.2263  0.3708
  409TIP3    H122642   5.544   0.078   4.590  2.1369 -1.0399 -0.6640
  409TIP3    H222643   5.658   0.163   4.640  0.0781  1.0668  0.7038
  410TIP3   OH222644   1.788   1.976  13.623  0.4933  0.1676  0.8002
  410TIP3    H122645   1.832   1.995  13.706  1.8031  1.7178 -0.1716
  410TIP3    H222646   1.709   2.030  13.625  1.4197  1.6151  0.3632
  411TIP3   OH222647   4.211   5.678   4.400  0.1841 -0.2314 -0.6551
  411TIP3    H122648   4.131   5.711   4.440  1.5571  0.6714  1.5321
  411TIP3    H222649   4.261   5.642   4.473  2.5224  0.8274 -1.6422
  412TIP3   OH222650   6.216   5.189  14.546 -0.4217 -0.4297 -0.4248
  412TIP3    H122651   6.276   5.117  14.566  0.1924  0.3713  0.8155
  412TIP3    H222652   6.226   5.204  14.452 -0.7583 -2.0970 -0.7620
  413TIP3   OH222653   2.464   1.817  13.880  0.2269 -0.3226 -0.3947
  413TIP3    H122654   2.450   1.797  13.973  0.6756 -1.3015 -0.5193
  413TIP3    H222655   2.381   1.853  13.850  0.2834  0.6564  0.5451
  414TIP3   OH222656   3.364   1.890  13.670  0.5846 -0.4052 -0.2172
  414TIP3    H122657   3.414   1.811  13.651  2.7001  0.9707 -0.6952
  414TIP3    H222658   3.422   1.944  13.724  0.0049  1.6519 -1.5123
  415TIP3   OH222659   4.271   0.596   5.850  0.0513 -0.2690 -0.2351
  415TIP3    H122660   4.222   0.592   5.932 -0.2369 -1.4870 -0.4479
  415TIP3    H222661   4.308   0.509   5.840  2.2661  0.5972 -0.0965
  416TIP3   OH222662   3.390   5.115  10.507  0.0716 -0.0961  0.2719
  416TIP3    H122663   3.462   5.125  10.444 -0.5863  1.3241 -0.3057
  416TIP3    H222664   3.324   5.065  10.460 -0.6991  1.5352 -0.4808
  417TIP3   OH222665   5.325   3.640   5.265 -0.1111 -1.1234  0.3823
  417TIP3    H122666   5.372   3.576   5.212  0.7162 -0.6914  0.5731
  417TIP3    H222667   5.250   3.666   5.211  0.2868 -1.2709 -0.2495
  418TIP3   OH222668   5.860   1.700  14.738  0.2830  0.2293 -0.1487
  418TIP3    H122669   5.787   1.696  14.800  1.1111  1.9230  0.9969
  418TIP3    H222670   5.936   1.673  14.789  0.6298 -0.6525 -1.0935
  419TIP3   OH222671   0.846   6.223   0.150  0.3985  0.5066 -0.1370
  419TIP3    H122672   0.902   6.269   0.212  1.0437  0.3306 -0.5843
  419TIP3    H222673   0.830   6.286   0.080 -0.3700  0.7225  0.2220
  420TIP3   OH222674   4.930   4.991   4.993 -0.3467  0.5298 -0.5043
  420TIP3    H122675   4.901   5.082   4.991  0.2413  0.7169 -0.9794
  420TIP3    H222676   4.912   4.961   5.082 -0.6169  1.0853 -0.3708
  421TIP3   OH222677   2.338   3.898   5.159 -0.4257  0.6609  0.0150
  421TIP3    H122678   2.398   3.892   5.084 -0.9524  1.4052 -0.4887
  421TIP3    H222679   2.371   3.834   5.221  1.9679  2.2188  0.5084
  422TIP3   OH222680   3.152   2.527  12.180 -0.3967 -0.3235 -0.6428
  422TIP3    H122681   3.137   2.595  12.246 -0.7398 -1.2379  0.2397
  422TIP3    H222682   3.115   2.564  12.100  0.5664  1.0538 -0.4987
  423TIP3   OH222683   2.120   3.954   5.388 -0.4288  0.0871 -0.2452
  423TIP3    H122684   2.193   4.007   5.356 -1.5443  1.9497  0.1024
  423TIP3    H222685   2.133   3.949   5.482  0.7806 -2.0998 -0.4763
  424TIP3   OH222686   0.634   2.991   3.952 -0.5301 -0.2444  0.0967
  424TIP3    H122687   0.590   3.056   4.005  0.8311  0.2915  0.6163
  424TIP3    H222688   0.726   2.998   3.977  0.5025  1.2150 -3.4737
  425TIP3   OH222689   0.583   0.645   2.125  0.0839  0.0158  0.3712
  425TIP3    H122690   0.664   0.671   2.169  0.8687 -0.9197 -0.4967
  425TIP3    H222691   0.534   0.597   2.192 -0.6329  2.1293  1.4782
  426TIP3   OH222692   6.267   4.472  12.077 -0.3075  0.1009  0.0194
  426TIP3    H122693   6.217   4.483  12.158  0.3232 -0.1385  0.4497
  426TIP3    H222694   6.301   4.560  12.059  0.7384 -0.1250  0.8118
  427TIP3   OH222695   4.887   5.960  13.645  0.5250  0.7532 -0.0311
  427TIP3    H122696   4.943   5.886  13.620 -2.1160 -1.9165  1.3414
  427TIP3    H222697   4.901   5.971  13.739  0.1310  1.3707 -0.0378
  428TIP3   OH222698   4.630   5.865   3.697 -0.0080  0.3254 -0.1186
  428TIP3    H122699   4.577   5.869   3.617 -2.6239 -1.9235  1.3292
  428TIP3    H222700   4.583   5.804   3.754  3.2510 -0.4015  2.0677
  429TIP3   OH222701   0.098   0.897   3.434 -0.3590  0.1092  0.2256
  429TIP3    H122702   0.136   0.852   3.510  0.1018  0.6446  0.3244
  429TIP3    H222703   0.170   0.902   3.371  0.1263  2.2033  0.8780
  430TIP3   OH222704   3.065   2.431  13.320  0.4624  0.0802  0.6692
  430TIP3    H122705   3.039   2.393  13.403  0.6924  0.8733  1.1136
  430TIP3    H222706   2.991   2.414  13.261  0.3909 -0.6706  0.9624
  431TIP3   OH222707   3.157   2.428   5.105 -0.6367 -0.3234  0.1166
  431TIP3    H122708   3.066   2.446   5.127 -0.9009 -1.4387 -0.0068
  431TIP3    H222709   3.154   2.350   5.050  0.4029 -0.4427  0.1971
  432TIP3   OH222710   4.102   4.400  13.111 -0.1987 -0.0310  0.4261
  432TIP3    H122711   4.109   4.396  13.207  0.2161  0.5294  0.4233
  432TIP3    H222712   4.133   4.488  13.088  3.0118 -1.2411 -0.4760
  433TIP3   OH222713   3.637   3.475  15.234 -0.3856 -0.4311 -0.1830
  433TIP3    H122714   3.560   3.501  15.284 -0.4074 -0.1382 -0.3719
  433TIP3    H222715   3.653   3.384  15.261 -0.1767 -0.1586  0.6309
  434TIP3   OH222716   0.240   0.092   2.688  0.0649 -0.1663  0.2879
  434TIP3    H122717   0.279   0.008   2.664  0.2250 -0.5030  1.6483
  434TIP3    H222718   0.311   0.155   2.675 -0.2779 -0.0782 -1.4810
  435TIP3   OH222719   6.708   2.200  12.690  0.1554  0.2353 -0.6344
  435TIP3    H122720   6.618   2.167  12.687  0.4295 -0.5449 -0.5045
  435TIP3    H222721   6.737   2.185  12.780  0.8117 -0.6553 -0.9669
  436TIP3   OH222722   5.201   5.303   2.156 -0.4979  0.3022 -0.2550
  436TIP3    H122723   5.167   5.368   2.094  0.5599 -0.9324 -2.2126
  436TIP3    H222724   5.293   5.325   2.166  0.0083 -1.1291 -1.3602
  437TIP3   OH222725   5.012   5.124  14.927  0.4227  0.1217  0.1243
  437TIP3    H122726   4.950   5.145  14.857  0.4693  1.3107  0.4272
  437TIP3    H222727   5.018   5.028  14.925  1.8140  0.1496 -2.7079
  438TIP3   OH222728   1.515   4.309  12.960 -0.2719 -0.5753  0.2588
  438TIP3    H122729   1.573   4.247  12.915  0.1141 -0.1442  0.1471
  438TIP3    H222730   1.481   4.365  12.890  0.1757 -0.0273  0.4761
  439TIP3   OH222731   3.487   5.978  11.135  1.1528  0.0778 -0.5623
  439TIP3    H122732   3.519   6.058  11.092  0.4639  0.5510 -0.2165
  439TIP3    H222733   3.551   5.960  11.203  1.7322 -0.1145 -1.1546
  440TIP3   OH222734   3.760   1.064   4.070 -0.4964 -0.0957 -0.4681
  440TIP3    H122735   3.815   1.004   4.120  0.6196  1.2681 -0.0050
  440TIP3    H222736   3.821   1.109   4.011 -0.8486  2.3209  0.9007
  441TIP3   OH222737   4.313   2.470   1.495  0.0534 -0.3984 -0.2105
  441TIP3    H122738   4.399   2.460   1.454  1.9683 -1.5425  3.6311
  441TIP3    H222739   4.327   2.533   1.565 -2.4152 -0.2030  0.1876
  442TIP3   OH222740   0.418   6.570   3.608 -0.5750 -0.2382  0.0822
  442TIP3    H122741   0.421   6.649   3.662 -1.0966 -0.9602  1.2011
  442TIP3    H222742   0.325   6.551   3.598 -0.5238  0.3203 -1.7658
  443TIP3   OH222743   4.217   5.613   2.090 -0.2975 -0.3713 -0.1951
  443TIP3    H122744   4.252   5.574   2.170 -0.8780  0.7482  0.6394
  443TIP3    H222745   4.140   5.560   2.069 -0.9792  0.1952  0.8218
  444TIP3   OH222746   4.280   4.176   1.150 -0.8461  0.1020 -0.6339
  444TIP3    H122747   4.205   4.226   1.119 -1.5914 -0.5670  0.0395
  444TIP3    H222748   4.249   4.135   1.231  0.5570  0.5945  0.1886
  445TIP3   OH222749   0.356   6.649   2.547  0.0372  0.6489  0.6190
  445TIP3    H122750   0.450   6.665   2.540  0.2574 -0.9681 -1.0799
  445TIP3    H222751   0.349   6.556   2.568 -1.1453  0.1009 -1.8574
  446TIP3   OH222752   5.781   2.944  13.848  0.3558 -0.7313  0.1485
  446TIP3    H122753   5.810   2.938  13.939  1.8272  2.8417  0.1116
  446TIP3    H222754   5.695   2.985  13.853  1.5103  1.9213  0.0132
  447TIP3   OH222755   6.791   5.543  11.738  0.0349 -0.1530  0.0745
  447TIP3    H122756   6.878   5.540  11.779  1.1227 -0.0927 -2.1071
  447TIP3    H222757   6.775   5.635  11.721 -0.3449 -0.1933  0.1986
  448TIP3   OH222758   1.158   1.819   6.236 -0.0369 -0.0286 -0.0757
  448TIP3    H122759   1.233   1.782   6.190  0.9543  1.7951 -0.0346
  448TIP3    H222760   1.163   1.781   6.324  0.2368 -0.6962 -0.3724
  449TIP3   OH222761   1.750   2.454  13.174  0.4986  0.0530 -0.2628
  449TIP3    H122762   1.720   2.365  13.192  0.1175 -0.3188 -2.3764
  449TIP3    H222763   1.721   2.506  13.249 -0.6496 -1.3205  0.2759
  450TIP3   OH222764   4.580   3.072   5.079  0.3863 -0.1132 -0.2532
  450TIP3    H122765   4.521   3.112   5.015 -0.9186 -0.4802  0.6796
  450TIP3    H222766   4.637   3.015   5.027 -1.4023 -1.3049 -1.0019
  451TIP3   OH222767   2.432   2.477  14.212  0.5511 -0.5519  0.3151
  451TIP3    H122768   2.400   2.395  14.251  0.3590  0.4714  2.4718
  451TIP3    H222769   2.523   2.482  14.240  0.8626 -0.5367 -0.7018
  452TIP3   OH222770   3.501   5.362   2.745  0.1104 -0.6835 -0.0494
  452TIP3    H122771   3.431   5.302   2.721  0.0119  0.1904 -2.1152
  452TIP3    H222772   3.563   5.358   2.672  2.0762 -1.1410  1.5369
  453TIP3   OH222773   5.470   1.141   0.192 -0.1496 -0.0831 -0.1798
  453TIP3    H122774   5.525   1.215   0.170  0.1638 -0.2728 -0.0390
  453TIP3    H222775   5.531   1.071   0.214 -0.4288 -0.6613 -1.2055
  454TIP3   OH222776   5.744   4.462   2.215 -0.6842  0.3682 -0.4101
  454TIP3    H122777   5.671   4.423   2.264  0.5136 -0.1074  1.0652
  454TIP3    H222778   5.806   4.391   2.203 -0.1549  0.9280 -1.0661
  455TIP3   OH222779   2.860   4.699  11.938  0.1722 -0.3040  0.2399
  455TIP3    H122780   2.869   4.714  12.032 -1.6116  0.4489  0.3253
  455TIP3    H222781   2.766   4.694  11.923  0.4389 -1.6239 -1.3436
  456TIP3   OH222782   5.823   3.895   5.722  0.5863  0.1040 -0.3838
  456TIP3    H122783   5.732   3.918   5.706  0.4568  0.2305  0.4971
  456TIP3    H222784   5.820   3.803   5.750  0.8325 -0.1808 -1.2408
  457TIP3   OH222785   4.325   2.603   3.075  0.1197 -0.2352  0.7589
  457TIP3    H122786   4.240   2.560   3.063  0.7068 -0.9651 -1.3439
  457TIP3    H222787   4.322   2.679   3.016 -0.3589  1.9137  3.3578
  458TIP3   OH222788   5.159   0.407  14.692 -0.0079 -0.0047  0.1050
  458TIP3    H122789   5.065   0.405  14.709 -0.0165 -0.3238  0.0385
  458TIP3    H222790   5.167   0.441  14.603 -0.0083  0.8856  0.4391
  459TIP3   OH222791   0.978   1.474   3.968  0.5415  0.5370 -0.1448
  459TIP3    H122792   0.891   1.511   3.985  1.4297  2.3711  0.7379
  459TIP3    H222793   0.979   1.391   4.015 -0.8538  0.2946 -0.4965
  460TIP3   OH222794   3.107   4.411  16.871  0.1016 -0.0738  0.6077
  460TIP3    H122795   3.073   4.444  16.787 -0.0132  0.1458  0.7391
  460TIP3    H222796   3.051   4.336  16.892 -0.7340  0.6815  1.1498
  461TIP3   OH222797   1.720   0.308  10.623 -0.2990  0.4436  0.8313
  461TIP3    H122798   1.688   0.387  10.665 -0.6411  0.0046  1.4084
  461TIP3    H222799   1.793   0.337  10.568 -1.0238  1.2991  0.2984
  462TIP3   OH222800   2.067   5.507  16.240  0.0025 -0.3677  0.7024
  462TIP3    H122801   2.124   5.474  16.310  0.7213  2.2919  1.5025
  462TIP3    H222802   1.979   5.506  16.278  0.0008 -1.2720  0.7021
  463TIP3   OH222803   5.449   4.469  12.031 -0.0712  0.1366  0.3959
  463TIP3    H122804   5.441   4.376  12.052 -0.1608 -0.7325 -2.8472
  463TIP3    H222805   5.362   4.493  11.999 -0.0174  1.3311  1.1026
  464TIP3   OH222806   5.433   3.501   2.539 -0.3844 -0.1863 -0.0345
  464TIP3    H122807   5.467   3.583   2.503 -0.1388 -0.0948  0.3961
  464TIP3    H222808   5.383   3.527   2.616 -1.3796 -0.3321 -0.6198
  465TIP3   OH222809   1.964   6.522   0.706 -0.2069  0.3275 -0.0659
  465TIP3    H122810   1.891   6.467   0.679  0.5041 -0.5312 -0.2974
  465TIP3    H222811   2.019   6.464   0.759 -0.3682  1.3240  1.2605
  466TIP3   OH222812   4.079   1.763  13.464  0.6656 -0.6392  0.2938
  466TIP3    H122813   3.986   1.787  13.464  0.4069 -1.5977  0.7313
  466TIP3    H222814   4.117   1.815  13.534  0.3541 -0.5931  0.4316
  467TIP3   OH222815   2.100   2.901  10.429 -0.1596  0.2378  0.0672
  467TIP3    H122816   2.107   2.850  10.510  0.7800 -0.3514 -0.3654
  467TIP3    H222817   2.048   2.845  10.371 -2.2889  1.3761  0.7839
  468TIP3   OH222818   2.057   5.945   0.259  0.0202  0.7056 -0.4759
  468TIP3    H122819   1.966   5.919   0.252  0.4281 -0.4127 -2.3477
  468TIP3    H222820   2.107   5.868   0.233  1.6597  0.4436  2.9502
  469TIP3   OH222821   6.675   3.817   4.638  0.2675 -0.2191 -0.1548
  469TIP3    H122822   6.669   3.809   4.733  0.1312 -0.5630 -0.1916
  469TIP3    H222823   6.739   3.751   4.612 -0.1155 -0.5166 -0.3577
  470TIP3   OH222824   3.302   5.459   1.748  0.3205 -0.3626 -0.1697
  470TIP3    H122825   3.348   5.376   1.756  1.7501  0.3977 -0.1584
  470TIP3    H222826   3.256   5.469   1.831  0.7384 -0.7996  0.1188
  471TIP3   OH222827   3.801   3.045   2.067 -0.3111  0.4294  0.2665
  471TIP3    H122828   3.811   3.043   1.972 -0.0269  2.5504  0.1980
  471TIP3    H222829   3.869   3.105   2.097  0.2233 -0.9126  1.9353
  472TIP3   OH222830   1.299   3.609  12.676 -0.0202  0.4031 -0.0336
  472TIP3    H122831   1.381   3.576  12.640  0.1057 -0.9986  1.4458
  472TIP3    H222832   1.231   3.561  12.629  0.0199  1.0214 -0.7346
  473TIP3   OH222833   6.386   4.908   5.545 -0.0688 -0.5166 -0.0465
  473TIP3    H122834   6.414   4.834   5.491 -2.6332  0.4906 -3.1177
  473TIP3    H222835   6.419   4.985   5.499 -0.8335  0.3605  0.8321
  474TIP3   OH222836   1.193   0.271   1.139 -0.3288 -0.6138  0.5364
  474TIP3    H122837   1.189   0.367   1.144 -1.8087 -0.6816  0.9981
  474TIP3    H222838   1.271   0.249   1.191 -0.2055  0.3146  0.7756
  475TIP3   OH222839   3.419   6.710   4.635  0.2023  0.6222 -0.1054
  475TIP3    H122840   3.438   6.672   4.549 -0.9688  0.5617 -0.3515
  475TIP3    H222841   3.499   6.758   4.658  1.0593 -0.5157 -0.5826
  476TIP3   OH222842   0.319   5.387   1.995  0.7648  0.2672  0.3182
  476TIP3    H122843   0.390   5.451   1.997  1.0455 -0.0448  0.4021
  476TIP3    H222844   0.331   5.335   2.075  0.4058  0.2518  0.3656
  477TIP3   OH222845   0.297   4.594  16.370 -0.3795  0.5810  0.7664
  477TIP3    H122846   0.283   4.514  16.318 -1.8344  0.6943  0.9534
  477TIP3    H222847   0.366   4.570  16.431 -0.3950 -0.3618  0.4400
  478TIP3   OH222848   1.792   4.598   0.008 -0.2127  0.2272 -0.0300
  478TIP3    H122849   1.834   4.655   0.072  0.7212 -0.1454 -0.2837
  478TIP3    H222850   1.821   4.510   0.032 -0.8445 -0.0369 -0.2312
  479TIP3   OH222851   5.601   4.870   5.270  0.0489 -0.1881 -0.3529
  479TIP3    H122852   5.507   4.857   5.269 -0.1425  0.8745  0.8271
  479TIP3    H222853   5.624   4.875   5.363  0.9751  1.3557 -0.6083
  480TIP3   OH222854   4.941   0.144   5.148  0.1172  0.5271 -0.1980
  480TIP3    H122855   4.943   0.225   5.097 -1.0998  1.6185  1.3912
  480TIP3    H222856   4.848   0.128   5.165  0.4442 -0.2090  1.0282
  481TIP3   OH222857   0.456   1.927   2.068 -0.0834 -0.6780  0.2504
  481TIP3    H122858   0.503   1.956   2.146 -0.6741 -0.7928  0.6568
  481TIP3    H222859   0.470   1.832   2.066  2.5160 -0.3412 -1.5209
  482TIP3   OH222860   0.479   0.736   6.289 -0.3836 -0.1753 -0.5548
  482TIP3    H122861   0.494   0.804   6.224  0.9064 -1.4271 -1.6426
  482TIP3    H222862   0.386   0.716   6.282 -0.8746  1.7087  0.0789
  483TIP3   OH222863   5.798   1.853   0.353 -0.0307  0.4016  0.0298
  483TIP3    H122864   5.812   1.923   0.289  0.9302 -0.7822 -1.1024
  483TIP3    H222865   5.871   1.793   0.339 -1.2444 -1.2399  0.4439
  484TIP3   OH222866   5.639   0.098   0.498 -0.2184  0.1324  0.2210
  484TIP3    H122867   5.587   0.177   0.482 -0.8198 -0.4425 -0.7911
  484TIP3    H222868   5.702   0.123   0.566 -0.5529  1.4055  0.0752
  485TIP3   OH222869   5.043   5.058  14.452 -0.1860  0.6869 -0.6123
  485TIP3    H122870   5.079   5.059  14.364  0.0392 -0.8506 -0.5570
  485TIP3    H222871   5.049   4.967  14.480 -2.1518  0.7529  0.2073
  486TIP3   OH222872   3.044   1.726  14.845 -0.5637 -0.1558  0.1448
  486TIP3    H122873   2.980   1.681  14.900  1.0560 -1.2196  1.2412
  486TIP3    H222874   3.086   1.789  14.903  0.4795 -0.5899 -0.1124
  487TIP3   OH222875   4.446   0.028   4.715  0.4435  0.3434  1.3470
  487TIP3    H122876   4.445  -0.037   4.785 -2.7968 -0.9337  0.3496
  487TIP3    H222877   4.357   0.065   4.716  0.7475  1.3471 -1.0932
  488TIP3   OH222878   4.048   2.063  13.565  0.7700  0.2571  0.6537
  488TIP3    H122879   4.016   1.986  13.613  1.5435 -0.7875 -0.4778
  488TIP3    H222880   4.123   2.093  13.616 -0.1553  0.9469  1.6835
  489TIP3   OH222881   3.075   5.732   2.882 -0.1830  0.0735  0.1390
  489TIP3    H122882   3.010   5.682   2.931 -1.0811 -0.5387 -1.6095
  489TIP3    H222883   3.155   5.726   2.935 -0.8234 -1.4572  0.9865
  490TIP3   OH222884   0.216   5.045  15.664  0.0278  0.5637  0.3550
  490TIP3    H122885   0.122   5.032  15.672 -0.0278  2.0044  3.7323
  490TIP3    H222886   0.225   5.125  15.611 -0.3334 -1.6806 -3.4269
  491TIP3   OH222887   3.328   6.012   3.120  0.6487  0.9523 -0.1654
  491TIP3    H122888   3.352   6.105   3.114 -0.2404  1.3243  1.5522
  491TIP3    H222889   3.397   5.967   3.070  2.1035  2.3881  0.4444
  492TIP3   OH222890   2.304   1.155   1.824  0.0325 -0.4350 -0.6457
  492TIP3    H122891   2.339   1.150   1.913  2.7179  0.7621 -1.5294
  492TIP3    H222892   2.335   1.075   1.781  0.9072  0.1787 -1.1775
  493TIP3   OH222893   1.622   3.465  12.336  0.2888 -0.7097  0.2554
  493TIP3    H122894   1.610   3.390  12.394  1.0418  0.5491  2.1624
  493TIP3    H222895   1.538   3.511  12.340  0.4163 -0.4947  0.5945
  494TIP3   OH222896   0.881   0.093   4.611  0.0889  0.0972 -0.0131
  494TIP3    H122897   0.811   0.157   4.618  0.0513 -0.0051  0.5757
  494TIP3    H222898   0.935   0.108   4.689 -1.6049 -2.6073  1.8505
  495TIP3   OH222899   0.397   4.711   1.084  0.2359  0.4743 -0.3559
  495TIP3    H122900   0.485   4.724   1.048  0.1539  0.5780 -0.5215
  495TIP3    H222901   0.395   4.619   1.110 -0.6579 -0.4546 -3.2870
  496TIP3   OH222902   6.232   0.200  13.338  0.0598  0.9952 -0.0618
  496TIP3    H122903   6.325   0.179  13.330  0.3403  0.9885  2.4421
  496TIP3    H222904   6.187   0.123  13.304  0.9123  1.2968 -2.0121
  497TIP3   OH222905   3.438   0.073   1.170 -0.6555 -0.0049  0.3829
  497TIP3    H122906   3.493   0.150   1.182  0.6653 -0.8153 -0.2487
  497TIP3    H222907   3.453   0.019   1.247  0.7009 -0.9471 -0.4909
  498TIP3   OH222908   6.429   6.517  10.949 -0.6581 -0.3017 -0.4049
  498TIP3    H122909   6.461   6.445  10.895  1.3311  0.4955 -0.3645
  498TIP3    H222910   6.416   6.589  10.886  0.6663  0.3089 -0.0229
  499TIP3   OH222911   2.421   3.941  16.695 -0.2865 -0.1360  0.3036
  499TIP3    H122912   2.447   3.854  16.665 -0.1612  0.1951 -0.5470
  499TIP3    H222913   2.356   3.971  16.631  0.9061  1.0919 -0.3853
  500TIP3   OH222914   2.716   1.933   0.149 -0.3301 -0.2055 -0.9214
  500TIP3    H122915   2.631   1.942   0.192 -0.0138 -1.0585 -0.0710
  500TIP3    H222916   2.763   1.869   0.202  2.2036  2.7890  0.7177
  501TIP3   OH222917   6.085   3.424   3.128  0.1615  0.3164  0.1723
  501TIP3    H122918   6.060   3.502   3.178  1.2601  1.0178 -0.3186
  501TIP3    H222919   6.079   3.451   3.036 -0.3868 -0.4900 -0.0404
  502TIP3   OH222920   6.337   4.664   0.373 -0.5925 -0.4213  0.1159
  502TIP3    H122921   6.431   4.659   0.356 -0.5355 -1.0881  0.5560
  502TIP3    H222922   6.330   4.709   0.457 -0.5167 -2.1552  1.1170
  503TIP3   OH222923   0.980   0.680   5.245  0.0974  0.0743  0.5531
  503TIP3    H122924   0.890   0.649   5.248 -0.2407  1.0266  0.4199
  503TIP3    H222925   1.015   0.642   5.164 -0.5984  0.8070 -0.1021
  504TIP3   OH222926   4.267   6.201   4.780  0.2059  0.2457  0.0086
  504TIP3    H122927   4.283   6.150   4.701 -0.8050 -0.6593  0.3566
  504TIP3    H222928   4.235   6.136   4.843  2.4935  0.6102  1.6894
  505TIP3   OH222929   5.395   6.428  15.468 -0.0966  0.0107 -0.0800
  505TIP3    H122930   5.316   6.470  15.436 -0.8923  0.2154  1.9742
  505TIP3    H222931   5.365   6.370  15.539  1.3692 -1.4091 -0.5457
  506TIP3   OH222932   3.329   0.226   4.738 -0.0491  0.3467 -0.2110
  506TIP3    H122933   3.329   0.133   4.760  1.5634  0.7481  1.8191
  506TIP3    H222934   3.277   0.267   4.806  0.5973  1.0957 -0.1570
  507TIP3   OH222935   5.953   3.196  16.020 -0.6470  0.3940  0.3345
  507TIP3    H122936   5.995   3.266  15.970 -2.0015 -0.0973 -1.6214
  507TIP3    H222937   6.024   3.136  16.044 -0.0845 -0.2409 -2.5707
  508TIP3   OH222938   0.800   0.602   2.919  0.1727  0.5917 -0.1818
  508TIP3    H122939   0.884   0.638   2.947 -0.1497  1.0451  0.2197
  508TIP3    H222940   0.742   0.616   2.993 -0.0152 -0.6207 -0.0801
  509TIP3   OH222941   1.939   2.240  14.099 -0.1178 -0.1257 -0.2034
  509TIP3    H122942   1.985   2.254  14.016 -1.4975 -1.8095 -1.3193
  509TIP3    H222943   1.887   2.161  14.084 -1.5739  0.3956  1.7780
  510TIP3   OH222944   5.258   4.488  13.426 -0.1452  0.4932  0.3133
  510TIP3    H122945   5.283   4.471  13.335 -3.0678 -1.4432 -0.2787
  510TIP3    H222946   5.273   4.404  13.470  0.3633  1.1516  1.4315
  511TIP3   OH222947   3.321   5.062  14.452 -0.0460  0.0443  0.6469
  511TIP3    H122948   3.268   5.136  14.420 -2.8437 -1.8661  0.4775
  511TIP3    H222949   3.411   5.092  14.443 -1.0035  3.1733 -0.0420
  512TIP3   OH222950   6.728   6.016   0.159 -0.2995 -0.3491  0.0755
  512TIP3    H122951   6.645   5.970   0.175 -0.2931 -0.2814  0.3060
  512TIP3    H222952   6.702   6.103   0.129 -0.3106 -0.4083 -0.0897
  513TIP3   OH222953   1.167   6.169  11.500 -0.0576  0.2220 -1.1023
  513TIP3    H122954   1.250   6.213  11.481  1.0353 -0.5232  1.4235
  513TIP3    H222955   1.157   6.105  11.430  1.5996  0.2524 -1.4061
  514TIP3   OH222956   6.525   2.090  13.691  0.0756  0.1078 -0.5217
  514TIP3    H122957   6.597   2.146  13.720 -0.4744  1.0464 -0.9446
  514TIP3    H222958   6.563   2.037  13.620  1.4312 -2.1995  1.7446
  515TIP3   OH222959   5.249   2.965  15.174 -0.0230 -0.3534 -0.2750
  515TIP3    H122960   5.313   2.938  15.108  0.1072 -0.6699 -0.0240
  515TIP3    H222961   5.164   2.949  15.133  0.0562 -0.5174 -0.3764
  516TIP3   OH222962   5.437   0.782  10.277 -0.0745  0.0551 -0.5125
  516TIP3    H122963   5.405   0.868  10.250 -0.1850  0.2218  0.1454
  516TIP3    H222964   5.437   0.785  10.372 -1.2975 -1.1238 -0.4516
  517TIP3   OH222965   0.090   2.463   5.727 -0.4622 -0.2013 -0.1260
  517TIP3    H122966   0.089   2.517   5.806  0.7257  0.1143 -0.3039
  517TIP3    H222967   0.028   2.393   5.745  1.7373 -1.7179  2.2682
  518TIP3   OH222968   6.598   3.844   2.761  0.0895  0.2899  0.5269
  518TIP3    H122969   6.534   3.899   2.715 -0.0695  0.1816  0.6173
  518TIP3    H222970   6.653   3.808   2.692  1.4923  2.1817  0.6050
  519TIP3   OH222971   6.120   5.894  15.959 -0.0956  0.0977 -0.9648
  519TIP3    H122972   6.153   5.969  16.009 -0.5779  1.7224 -2.9497
  519TIP3    H222973   6.073   5.841  16.024  1.1773  0.9177  0.7118
  520TIP3   OH222974   2.684   5.832   3.712 -0.6430  0.2023 -0.0681
  520TIP3    H122975   2.600   5.821   3.668 -0.7687  0.5230  0.0901
  520TIP3    H222976   2.743   5.867   3.645 -1.1971  2.0540  0.3477
  521TIP3   OH222977   3.603   6.573   1.191 -0.2804  0.0215  0.0765
  521TIP3    H122978   3.656   6.583   1.270  1.0085  0.4005 -0.8055
  521TIP3    H222979   3.529   6.632   1.205 -0.4305 -0.4054  1.2665
  522TIP3   OH222980   2.244   4.777   0.747 -0.2330  0.3510  0.1649
  522TIP3    H122981   2.240   4.871   0.725 -1.3997  0.1956 -0.4202
  522TIP3    H222982   2.315   4.743   0.693  0.8153  1.0553  1.0676
  523TIP3   OH222983   5.817   1.216   4.488 -0.2639 -0.1065 -0.3427
  523TIP3    H122984   5.781   1.147   4.543  0.2933 -0.6286 -0.6274
  523TIP3    H222985   5.858   1.277   4.549 -1.1272  0.2037 -0.0584
  524TIP3   OH222986   6.215   1.513  14.142  0.4115 -0.2947 -0.5031
  524TIP3    H122987   6.156   1.491  14.069  0.6005 -0.5255 -0.5880
  524TIP3    H222988   6.162   1.570  14.199 -0.4993 -1.8688  0.3118
  525TIP3   OH222989   0.736   2.031   2.991 -0.1352  0.3572  0.4467
  525TIP3    H122990   0.794   2.045   2.916 -0.1811  0.5499  0.4485
  525TIP3    H222991   0.650   2.016   2.952 -0.3764  1.5173  0.4944
  526TIP3   OH222992   2.564   2.227   0.906 -0.0905 -0.2330  0.3069
  526TIP3    H122993   2.548   2.314   0.945  2.1807  0.6853 -0.6526
  526TIP3    H222994   2.513   2.227   0.825 -1.0398 -0.2863  0.8888
  527TIP3   OH222995   4.680   0.866   1.778 -0.3131  0.2771  0.0121
  527TIP3    H122996   4.666   0.960   1.768  1.7925  0.6664  0.1806
  527TIP3    H222997   4.665   0.850   1.871  0.2858  0.6524  0.1798
  528TIP3   OH222998   3.008   2.035  10.745  0.4051  0.6366  0.1514
  528TIP3    H122999   3.000   1.973  10.817 -0.6186  0.3315 -0.2174
  528TIP3    H223000   2.920   2.043  10.709  0.4078  2.6211  0.4324
  529TIP3   OH223001   1.747   5.923  11.159  0.2622  0.0714 -0.0012
  529TIP3    H123002   1.828   5.879  11.131  0.5260  0.5154  0.0472
  529TIP3    H223003   1.754   6.011  11.121  0.1828  0.3748  0.6753
  530TIP3   OH223004   4.609   0.371   4.215  0.1213  0.4140  0.6385
  530TIP3    H123005   4.668   0.332   4.280  1.6240  2.1851  0.4458
  530TIP3    H223006   4.622   0.318   4.136  1.2895  0.5883  0.6846
  531TIP3   OH223007   1.128   4.790  16.904  0.0984  0.4601  0.1374
  531TIP3    H123008   1.134   4.753  16.816  1.7390 -0.1311  0.4709
  531TIP3    H223009   1.193   4.743  16.955 -0.1558  1.4572  1.4480
  532TIP3   OH223010   5.085   2.949  14.617  0.3817 -0.2342  0.0141
  532TIP3    H123011   5.125   2.902  14.543  1.7149 -2.5338  2.0326
  532TIP3    H223012   4.992   2.953  14.595  0.6559 -1.3477 -1.5494
  533TIP3   OH223013   3.432   4.685   3.467 -0.4464 -0.3905 -0.3823
  533TIP3    H123014   3.350   4.690   3.419  0.2800  0.4684 -1.5651
  533TIP3    H223015   3.407   4.651   3.553 -2.1718  0.7065 -0.3994
  534TIP3   OH223016   3.003   6.710  13.198  0.2264  0.3136 -0.6866
  534TIP3    H123017   3.034   6.703  13.288  2.8201 -2.8297 -1.5728
  534TIP3    H223018   2.914   6.677  13.200 -0.6409  2.5095  0.9555
  535TIP3   OH223019   1.413   4.539  13.264 -0.2111 -0.2407 -0.2339
  535TIP3    H123020   1.342   4.568  13.206  0.2232 -0.8894 -1.1075
  535TIP3    H223021   1.431   4.449  13.237 -0.7078 -0.9307  1.6186
  536TIP3   OH223022   6.377   6.072  14.044  0.0240  0.1755 -0.6564
  536TIP3    H123023   6.458   6.080  14.095  1.1904 -0.2954 -2.3686
  536TIP3    H223024   6.345   6.162  14.036 -0.3330  0.2450  1.0651
  537TIP3   OH223025   3.490   4.634   5.492 -0.5931  0.1068 -0.0749
  537TIP3    H123026   3.448   4.577   5.427  1.8111 -0.2313 -1.4234
  537TIP3    H223027   3.485   4.585   5.574 -1.2954 -0.6481 -0.5579
  538TIP3   OH223028   6.247   6.392   5.455  0.1812 -0.8066  0.2114
  538TIP3    H123029   6.268   6.423   5.543  0.8746  0.9392 -0.5244
  538TIP3    H223030   6.288   6.456   5.396 -1.2297 -1.2882 -1.3794
  539TIP3   OH223031   5.495   2.956  14.447 -0.5649 -0.0971 -0.3288
  539TIP3    H123032   5.578   2.966  14.495  0.7106  0.2837 -2.4721
  539TIP3    H223033   5.428   2.957  14.515  1.0756  1.1707  1.3883
  540TIP3   OH223034   1.295   1.054   5.052 -0.2849 -0.3348  0.1683
  540TIP3    H123035   1.334   0.968   5.035 -0.4698 -0.3792 -0.0341
  540TIP3    H223036   1.225   1.037   5.115  0.1392 -0.2288  0.6675
  541TIP3   OH223037   4.763   1.822   2.726  0.2396 -0.0084 -0.2491
  541TIP3    H123038   4.836   1.767   2.697 -0.0245 -1.6895  1.9913
  541TIP3    H223039   4.805   1.903   2.755  1.0132 -0.2612 -0.6198
  542TIP3   OH223040   3.856   2.370  14.774  0.4673  0.0453 -0.0428
  542TIP3    H123041   3.923   2.338  14.835  0.8053 -0.0619 -0.4689
  542TIP3    H223042   3.855   2.465  14.787  0.1331 -0.0317  0.5394
  543TIP3   OH223043   2.859   4.776   0.314 -0.4152  0.1815  0.3355
  543TIP3    H123044   2.871   4.813   0.226  0.4402  0.0006  0.3706
  543TIP3    H223045   2.828   4.687   0.298  1.6851 -0.5561  0.1584
  544TIP3   OH223046   4.913   1.702  16.337 -0.1098  0.2060 -0.0795
  544TIP3    H123047   4.943   1.713  16.427 -2.1937 -0.2379  0.7239
  544TIP3    H223048   4.979   1.646  16.296  0.5119 -0.1609  1.3692
  545TIP3   OH223049   6.710   2.469  14.174  0.5110 -0.2358  0.3150
  545TIP3    H123050   6.649   2.498  14.242  0.5258  2.2995 -0.6334
  545TIP3    H223051   6.692   2.527  14.100  1.4376 -1.9877 -1.3937
  546TIP3   OH223052   4.685   4.186  12.025 -0.1638  0.2328  0.0865
  546TIP3    H123053   4.738   4.238  11.963  0.1921  0.9597  0.9667
  546TIP3    H223054   4.685   4.239  12.105 -2.3930  0.3317  0.0610
  547TIP3   OH223055   2.197   5.508  13.819  0.0697  0.4184 -0.5670
  547TIP3    H123056   2.256   5.471  13.754  0.0880 -1.3209  0.3983
  547TIP3    H223057   2.149   5.433  13.854 -0.6224  1.4316  0.7479
  548TIP3   OH223058   4.098   1.759  16.450 -0.1265  0.0021 -0.2272
  548TIP3    H123059   4.062   1.834  16.402  1.7374  0.7536 -0.5220
  548TIP3    H223060   4.039   1.686  16.429 -1.0107  0.9905 -1.2766
  549TIP3   OH223061   6.810   2.026   5.231  0.4953  0.3255 -0.1456
  549TIP3    H123062   6.856   2.110   5.229  1.5371 -0.2422 -1.1706
  549TIP3    H223063   6.816   1.994   5.141 -0.2809 -0.6462  0.1367
  550TIP3   OH223064   4.711   0.236  10.623 -0.1311  0.1816  0.1908
  550TIP3    H123065   4.768   0.160  10.608 -1.6639 -0.7709 -1.1081
  550TIP3    H223066   4.656   0.210  10.696 -0.6085  0.0509 -0.2102
  551TIP3   OH223067   6.476   3.766   4.446 -0.0204  0.5360  0.8850
  551TIP3    H123068   6.498   3.822   4.521  0.7433 -0.7561  1.6505
  551TIP3    H223069   6.410   3.816   4.398  1.8094  2.8714  0.6006
  552TIP3   OH223070   1.062   6.555  16.046 -0.2067  0.1448  0.2406
  552TIP3    H123071   1.038   6.466  16.023 -0.8650  0.1995  0.6951
  552TIP3    H223072   1.021   6.610  15.979  1.4590  0.0340 -0.9491
  553TIP3   OH223073   3.234   3.376  14.264 -0.5636  0.0840  0.6222
  553TIP3    H123074   3.139   3.380  14.252 -0.2934 -0.1547 -2.1393
  553TIP3    H223075   3.267   3.455  14.220  0.6318 -0.9559 -0.4129
  554TIP3   OH223076   3.104   4.954   5.660  0.0185 -0.4585 -0.0493
  554TIP3    H123077   3.159   4.893   5.709 -0.2361  0.2376  1.1453
  554TIP3    H223078   3.157   5.033   5.650 -0.3443 -0.1946  0.0902
  555TIP3   OH223079   4.300   5.232   2.285 -0.0351 -0.5836  0.5170
  555TIP3    H123080   4.247   5.160   2.250  1.6303 -1.9060  0.5663
  555TIP3    H223081   4.315   5.208   2.377  1.2672 -0.6440  0.3018
  556TIP3   OH223082   0.503   5.289  13.367  0.2206 -0.4218  0.4292
  556TIP3    H123083   0.563   5.223  13.401  0.0478 -0.4992  0.5835
  556TIP3    H223084   0.518   5.366  13.423 -0.7719 -0.8612  1.3281
  557TIP3   OH223085   6.806   3.466   1.727 -0.2958 -0.7804  0.0154
  557TIP3    H123086   6.799   3.383   1.774 -0.4732 -1.5681 -1.3502
  557TIP3    H223087   6.732   3.466   1.666 -0.4047  0.4747  0.1068
  558TIP3   OH223088   0.424   1.868   5.001 -0.1080 -0.0676 -0.2609
  558TIP3    H123089   0.438   1.914   4.919  0.6225 -0.0480 -0.1322
  558TIP3    H223090   0.489   1.905   5.061  0.3799 -1.1362 -0.1101
  559TIP3   OH223091   3.547   2.573  15.808  0.3255  0.3010 -0.6749
  559TIP3    H123092   3.549   2.606  15.898 -2.2023  0.3251 -0.5663
  559TIP3    H223093   3.486   2.630  15.762  0.7715 -0.3473 -2.1682
  560TIP3   OH223094   5.536   3.603  13.377  0.2835  0.3846  0.6899
  560TIP3    H123095   5.490   3.520  13.378  2.7984 -1.0989  1.3773
  560TIP3    H223096   5.535   3.633  13.468 -0.4616  1.0579  0.4753
  561TIP3   OH223097   5.186   5.014  13.595 -0.3199  0.4481 -0.5286
  561TIP3    H123098   5.101   5.005  13.551 -1.8578  2.5144  1.7470
  561TIP3    H223099   5.171   4.982  13.684  0.3744  3.3740  0.7745
  562TIP3   OH223100   1.304   3.769  16.213  0.4581  0.3418 -0.0304
  562TIP3    H123101   1.386   3.732  16.244  1.5612  1.5519 -1.3679
  562TIP3    H223102   1.269   3.703  16.153 -0.0709 -0.6086  1.3054
  563TIP3   OH223103   2.411   4.975  12.627  0.0927 -0.0679  0.6661
  563TIP3    H123104   2.483   4.920  12.658 -0.2845 -0.2041  1.3312
  563TIP3    H223105   2.337   4.914  12.620  0.3801 -0.2429 -1.4281
  564TIP3   OH223106   5.258   0.248   2.560  0.2179 -0.1267 -0.0128
  564TIP3    H123107   5.260   0.272   2.652 -0.5339 -0.5858  0.1355
  564TIP3    H223108   5.328   0.299   2.520  0.9035 -0.3268  0.9083
  565TIP3   OH223109   1.476   6.250  15.750  0.5288  0.1915  0.5896
  565TIP3    H123110   1.561   6.224  15.785  0.5109  0.5196  0.8823
  565TIP3    H223111   1.489   6.340  15.719  0.8200 -0.4183 -1.1991
  566TIP3   OH223112   0.989   0.536  11.690  0.2613 -0.6782 -0.2324
  566TIP3    H123113   0.933   0.485  11.632 -1.3717 -0.2363  0.9215
  566TIP3    H223114   0.943   0.540  11.773  1.1852  1.1424  0.2598
  567TIP3   OH223115   2.079   2.863  16.569  0.7767  0.0914  0.2181
  567TIP3    H123116   2.169   2.850  16.541  0.7310 -1.7088  0.7683
  567TIP3    H223117   2.065   2.796  16.636 -0.3813  1.5843  1.5640
  568TIP3   OH223118   4.823   3.323  14.914  0.0042  0.2516  0.4056
  568TIP3    H123119   4.729   3.316  14.930 -0.0319  1.5942  0.9446
  568TIP3    H223120   4.854   3.388  14.977  1.1987  0.2283 -0.1141
  569TIP3   OH223121   2.590   3.443  12.898 -0.3079 -0.6470 -0.3117
  569TIP3    H123122   2.651   3.517  12.903 -0.7640 -0.1658 -1.5219
  569TIP3    H223123   2.518   3.467  12.956  0.9944 -1.6052  1.8220
  570TIP3   OH223124   3.980   4.207  15.439 -0.8077  0.4657 -0.2273
  570TIP3    H123125   3.946   4.297  15.444  0.1402  0.7644  2.7741
  570TIP3    H223126   3.903   4.153  15.458 -1.0376  0.7419 -0.3486
  571TIP3   OH223127   6.756   0.594   1.072 -0.0354  0.4023 -0.0093
  571TIP3    H123128   6.802   0.511   1.058 -0.5768 -0.0867  1.0612
  571TIP3    H223129   6.809   0.658   1.024  0.4354 -0.5365 -0.7823
  572TIP3   OH223130   1.127   2.280  10.607 -0.3185  0.2885  0.7883
  572TIP3    H123131   1.045   2.269  10.559 -0.0079 -0.9179  0.4809
  572TIP3    H223132   1.160   2.190  10.618  1.1413  0.7756  0.5852
  573TIP3   OH223133   4.150   2.768   4.723  0.1684 -0.3132  0.2432
  573TIP3    H123134   4.085   2.715   4.677 -0.3609 -0.4558  1.1297
  573TIP3    H223135   4.234   2.737   4.689 -0.1449 -1.4898  0.4824
  574TIP3   OH223136   6.726   2.711  10.999 -0.1397  0.1341  0.1623
  574TIP3    H123137   6.747   2.783  10.940  2.3330 -1.7327 -1.4025
  574TIP3    H223138   6.654   2.665  10.957 -0.4469  0.5734  0.2017
  575TIP3   OH223139   2.086   1.336  11.848  0.2835  0.2485  0.3701
  575TIP3    H123140   2.171   1.314  11.809  0.2457 -0.4078  0.6538
  575TIP3    H223141   2.098   1.321  11.941 -0.8071 -2.1211  0.1936
  576TIP3   OH223142   2.006   4.652  13.555 -0.4547 -0.3783  0.2917
  576TIP3    H123143   1.914   4.646  13.581 -0.8752  2.0326 -0.3770
  576TIP3    H223144   2.008   4.724  13.492  2.0137  0.0548  0.7791
  577TIP3   OH223145   1.779   1.389   4.452  0.0604 -0.0241  0.1645
  577TIP3    H123146   1.769   1.298   4.424  0.7258  0.3373 -1.3367
  577TIP3    H223147   1.690   1.423   4.454 -0.4069 -1.1776  2.5599
  578TIP3   OH223148   1.002   1.798  13.097 -0.0267 -0.0465  0.0050
  578TIP3    H123149   0.992   1.805  13.002  0.7325  0.4958 -0.0461
  578TIP3    H223150   1.022   1.706  13.112  0.2628 -0.0554 -0.4074
  579TIP3   OH223151   5.927   1.312   5.455  0.3810  0.1158  0.0838
  579TIP3    H123152   6.007   1.364   5.457  1.4176 -1.4254  1.5761
  579TIP3    H223153   5.871   1.351   5.522  0.2226  0.6394 -0.3419
  580TIP3   OH223154   5.154   1.737   5.739  0.4577  0.8447  0.1940
  580TIP3    H123155   5.092   1.809   5.729 -0.6047  0.1387  1.4349
  580TIP3    H223156   5.202   1.756   5.819 -0.4431 -0.2365  1.0193
  581TIP3   OH223157   0.517   0.826  15.090 -0.6488 -0.0648  0.5783
  581TIP3    H123158   0.457   0.753  15.072  0.3944 -0.8716  0.2389
  581TIP3    H223159   0.604   0.785  15.089  0.0160  1.3259 -0.2996
  582TIP3   OH223160   4.661   2.001  12.749 -0.1072 -0.3734 -0.2299
  582TIP3    H123161   4.624   1.919  12.783 -0.7242 -0.8052 -1.8402
  582TIP3    H223162   4.585   2.051  12.720  0.3950 -0.1845 -1.2656
  583TIP3   OH223163   0.013   4.787   0.519 -0.4637  0.3896 -0.0922
  583TIP3    H123164  -0.080   4.766   0.504 -0.1588 -0.3695 -0.9957
  583TIP3    H223165   0.056   4.702   0.526  0.3855  0.7191 -1.1471
  584TIP3   OH223166   3.849   3.545  16.288  0.3751 -0.7821  0.7747
  584TIP3    H123167   3.929   3.590  16.315  0.0646  0.5227 -0.4120
  584TIP3    H223168   3.799   3.536  16.369  0.0184  1.9369  0.9480
  585TIP3   OH223169   0.857   5.053  12.190 -0.6834  0.1553  0.2364
  585TIP3    H123170   0.910   5.091  12.261  0.5527 -0.8192 -0.1139
  585TIP3    H223171   0.769   5.045  12.227 -0.1517  0.0204  1.5405
  586TIP3   OH223172   3.355   1.253   5.488  0.6279  0.2278  0.5108
  586TIP3    H123173   3.369   1.173   5.436 -1.2280  0.5849 -0.6296
  586TIP3    H223174   3.400   1.321   5.439  0.1494  0.2996  0.1665
  587TIP3   OH223175   6.717   5.710  11.256 -0.3070  0.3609  0.2950
  587TIP3    H123176   6.695   5.792  11.213  0.8476  0.0687 -0.9248
  587TIP3    H223177   6.785   5.671  11.201  3.0908  1.0927  3.5683
  588TIP3   OH223178   1.421   5.001  15.089  0.1825  0.1918 -0.2481
  588TIP3    H123179   1.480   5.029  15.159  0.1596  0.8276 -0.4772
  588TIP3    H223180   1.468   5.024  15.008  0.1350 -0.3825 -0.4435
  589TIP3   OH223181   0.018   6.604   3.237  0.4505 -0.1284  0.1860
  589TIP3    H123182  -0.035   6.628   3.313  0.0986  0.3112 -0.1879
  589TIP3    H223183  -0.003   6.670   3.171  1.3153 -0.0688 -0.0451
  590TIP3   OH223184   2.697   4.849   1.965  0.1469  0.1211 -0.3260
  590TIP3    H123185   2.775   4.875   2.014 -0.1237  2.5175 -1.0424
  590TIP3    H223186   2.654   4.932   1.942 -0.7860 -0.9725 -2.8803
  591TIP3   OH223187   5.152   2.551   3.106  0.1131  0.4645  0.2757
  591TIP3    H123188   5.076   2.609   3.103 -0.7161 -0.6151 -0.5781
  591TIP3    H223189   5.158   2.516   3.017 -0.2796 -1.8229  1.0924
  592TIP3   OH223190   4.281   0.099  11.176  0.2996  0.1933 -0.3170
  592TIP3    H123191   4.344   0.161  11.140  0.0042 -0.2946 -1.7324
  592TIP3    H223192   4.289   0.022  11.120 -1.0303 -0.1505 -0.0683
  593TIP3   OH223193   1.987   1.171   0.509  0.0210 -0.1747 -0.1572
  593TIP3    H123194   2.005   1.173   0.603 -0.9118 -0.5599  0.0453
  593TIP3    H223195   2.033   1.092   0.478  1.7282  0.8445 -0.3627
  594TIP3   OH223196   0.622   1.382   6.147  0.0094  0.4403  0.0738
  594TIP3    H123197   0.639   1.403   6.238  0.4696  0.6461 -0.0551
  594TIP3    H223198   0.684   1.312   6.126 -0.7597 -0.2966  0.1867
  595TIP3   OH223199   5.592   1.904   4.575  0.1837 -0.0878  0.2162
  595TIP3    H123200   5.539   1.913   4.496 -0.8702 -0.5713  0.8467
  595TIP3    H223201   5.652   1.979   4.573  0.7624 -0.5572 -1.4582
  596TIP3   OH223202   2.047   4.462   1.486 -0.4645 -0.0278 -0.9311
  596TIP3    H123203   2.073   4.412   1.409  1.4992  1.2360 -1.1686
  596TIP3    H223204   2.130   4.487   1.528 -1.4421  0.8244  0.5967
  597TIP3   OH223205   6.743   1.967   3.710 -0.4813 -0.4762 -0.0113
  597TIP3    H123206   6.670   1.943   3.653 -3.4978  0.2980  3.1898
  597TIP3    H223207   6.705   2.027   3.774  3.6445  2.1472  0.3426
  598TIP3   OH223208   3.969   5.800   4.569 -0.0486  0.5788 -0.1177
  598TIP3    H123209   4.026   5.858   4.619  0.0992 -1.3453  2.1135
  598TIP3    H223210   3.965   5.719   4.621 -1.3335 -0.9268 -2.3783
  599TIP3   OH223211   3.628   6.304   2.430 -0.1591  0.5402 -0.0149
  599TIP3    H123212   3.680   6.252   2.492  1.4118  1.8815 -0.1446
  599TIP3    H223213   3.635   6.394   2.462 -1.8460  0.8739 -0.4730
  600TIP3   OH223214   3.630   1.857   3.143 -0.0494 -0.2601  0.1433
  600TIP3    H123215   3.585   1.859   3.228  0.5668  0.9096  0.4704
  600TIP3    H223216   3.591   1.783   3.097 -1.8332  0.3012  0.6632
  601TIP3   OH223217   6.118   4.276  11.502  0.2865 -0.3520  0.5124
  601TIP3    H123218   6.090   4.358  11.462 -0.4185 -1.3011 -1.0355
  601TIP3    H223219   6.208   4.292  11.529 -0.2613  1.3444  1.4943
  602TIP3   OH223220   5.151   4.071   0.967 -0.2714 -0.1978  0.5839
  602TIP3    H123221   5.123   4.077   0.876 -0.3558  0.2455  0.6384
  602TIP3    H223222   5.109   4.145   1.011  2.2590  1.5064  0.3394
  603TIP3   OH223223   5.480   5.885  11.029  0.0662  0.1723 -0.1020
  603TIP3    H123224   5.515   5.799  11.008 -2.0300 -0.9693  0.8666
  603TIP3    H223225   5.481   5.932  10.945  0.3356 -1.0994 -0.8397
  604TIP3   OH223226   1.126   2.853  11.522  0.3401 -0.2172 -0.3576
  604TIP3    H123227   1.216   2.882  11.508 -0.3506  1.3059 -2.1190
  604TIP3    H223228   1.097   2.825  11.435 -0.5231 -1.8451  0.4226
  605TIP3   OH223229   2.675   3.548  16.630 -0.7241  0.6793 -0.4178
  605TIP3    H123230   2.594   3.515  16.668 -0.9267  2.7956  1.1182
  605TIP3    H223231   2.734   3.560  16.705  0.8588 -0.2657 -1.4335
  606TIP3   OH223232   4.729   6.653   1.095 -0.0142 -0.2648 -0.1724
  606TIP3    H123233   4.749   6.669   1.187 -0.5513 -2.7138  0.4542
  606TIP3    H223234   4.646   6.606   1.097  0.6667 -1.6167 -1.7842
  607TIP3   OH223235   5.489   1.644   1.356 -0.2222 -0.1215 -0.0822
  607TIP3    H123236   5.547   1.620   1.428 -0.6017 -0.4116  0.1297
  607TIP3    H223237   5.404   1.609   1.380  0.1871 -2.6265 -1.9011
  608TIP3   OH223238   3.515   4.969   4.675 -0.1932 -0.0145 -0.0011
  608TIP3    H123239   3.546   5.033   4.739 -0.0861  0.0353 -0.1039
  608TIP3    H223240   3.594   4.941   4.629 -0.1732 -0.5554  0.3490
  609TIP3   OH223241   5.128   6.705   0.105 -0.1599  0.8712  0.0887
  609TIP3    H123242   5.154   6.626   0.059 -1.9590 -0.4111  1.1053
  609TIP3    H223243   5.194   6.715   0.174 -1.6281 -1.8310  2.1266
  610TIP3   OH223244   0.651   0.101  11.662  0.4469  0.1250  0.1963
  610TIP3    H123245   0.742   0.098  11.689  0.5602  0.7894 -0.0780
  610TIP3    H223246   0.603   0.060  11.733  0.9821 -0.4762  0.2210
  611TIP3   OH223247   6.464   3.881  13.428 -0.0582  0.1868 -0.1596
  611TIP3    H123248   6.518   3.857  13.353 -0.9336 -2.9807  0.0837
  611TIP3    H223249   6.427   3.966  13.405  1.3744  0.2954 -2.3277
  612TIP3   OH223250   6.803   2.905  15.564  0.2344 -0.2176  0.6044
  612TIP3    H123251   6.813   2.950  15.648 -0.2787 -2.3117  1.8437
  612TIP3    H223252   6.893   2.891  15.534  0.4922 -0.8243  1.5944
  613TIP3   OH223253   0.268   2.270  16.606  0.0775 -1.1204 -0.1086
  613TIP3    H123254   0.340   2.289  16.666 -0.7007 -1.1910  0.8611
  613TIP3    H223255   0.256   2.176  16.612 -1.0509 -0.9283  0.8537
  614TIP3   OH223256   1.040   3.674  15.322 -0.2043  0.3481 -0.1141
  614TIP3    H123257   1.014   3.625  15.244  2.8121  0.8105 -1.5458
  614TIP3    H223258   0.997   3.759  15.312  0.4544  0.5436 -1.5289
  615TIP3   OH223259   5.708   1.631  14.358 -0.7171  0.4390  0.4219
  615TIP3    H123260   5.685   1.618  14.450 -2.6309 -0.8535 -0.1580
  615TIP3    H223261   5.775   1.565  14.339 -0.5070  0.5390  0.8241
  616TIP3   OH223262   0.708   5.034   3.877  0.1362 -0.3506 -0.0971
  616TIP3    H123263   0.714   5.001   3.966  0.5899  1.2576  0.5008
  616TIP3    H223264   0.626   5.082   3.874  0.1248 -0.3876 -0.5510
  617TIP3   OH223265   3.212   6.526  11.623  0.1047 -0.2859  0.4572
  617TIP3    H123266   3.179   6.529  11.533  0.1196  2.7702  0.4435
  617TIP3    H223267   3.259   6.443  11.629 -0.0505 -0.6565 -2.2841
  618TIP3   OH223268   6.725   2.689   3.634  0.4548  0.2327 -0.0353
  618TIP3    H123269   6.712   2.755   3.566  3.6773 -1.3803 -2.4810
  618TIP3    H223270   6.648   2.633   3.628  0.1509  0.7698 -1.6391
  619TIP3   OH223271   4.152   2.212   4.453 -0.0698 -0.0937 -0.3274
  619TIP3    H123272   4.101   2.199   4.533 -0.4685  0.6010 -0.4592
  619TIP3    H223273   4.161   2.307   4.446 -1.0179 -0.0769 -1.7103
  620TIP3   OH223274   3.039   3.461  13.290 -0.2463 -0.1803 -0.9231
  620TIP3    H123275   3.134   3.473  13.295 -0.1636 -1.0070 -0.3768
  620TIP3    H223276   3.012   3.518  13.218  0.8639 -1.0388 -2.0667
  621TIP3   OH223277   1.732   0.482  11.638  0.2656 -0.3502  0.0924
  621TIP3    H123278   1.650   0.454  11.678  0.0543 -0.6326 -0.5141
  621TIP3    H223279   1.801   0.438  11.689  0.0425 -0.1205  0.5954
  622TIP3   OH223280   1.676   4.350   4.418  0.1403  0.2533  0.6943
  622TIP3    H123281   1.765   4.378   4.396  0.3388  0.1486  1.3448
  622TIP3    H223282   1.636   4.427   4.459  0.5044 -0.2043  1.9694
  623TIP3   OH223283   2.296   4.480   1.809 -0.1476  0.2941 -0.0125
  623TIP3    H123284   2.286   4.575   1.812  0.5050  0.3691 -0.0793
  623TIP3    H223285   2.357   4.465   1.737 -1.6379 -0.2981 -1.2046
  624TIP3   OH223286   2.243   4.721   5.647 -0.8760  0.1292 -0.2494
  624TIP3    H123287   2.329   4.762   5.651 -0.2319 -1.0678 -1.1804
  624TIP3    H223288   2.232   4.682   5.734 -1.6048  2.3677  0.7348
  625TIP3   OH223289   2.246   3.077  16.329 -0.2650  0.0936 -0.1840
  625TIP3    H123290   2.329   3.066  16.284  0.2635 -0.6257  0.9277
  625TIP3    H223291   2.270   3.090  16.421 -1.3737 -0.0293  0.1353
  626TIP3   OH223292   4.088   6.540   3.678 -0.1364  0.1380  0.1388
  626TIP3    H123293   4.116   6.488   3.753 -0.5681 -1.2648 -0.6485
  626TIP3    H223294   4.037   6.612   3.717 -0.7648 -0.8315  1.1554
  627TIP3   OH223295   4.612   1.938   2.198 -0.3573  0.1115 -0.4564
  627TIP3    H123296   4.665   1.938   2.278 -0.7611  0.5900 -0.1836
  627TIP3    H223297   4.639   2.016   2.151 -1.5356  0.9450  0.1840
  628TIP3   OH223298   1.149   2.296   2.130  0.4906  0.2345 -0.1688
  628TIP3    H123299   1.179   2.323   2.217 -2.1777 -1.8024  1.5598
  628TIP3    H223300   1.134   2.378   2.083  1.4901  1.4291  1.4857
  629TIP3   OH223301   3.405   0.686   2.645 -0.0678  0.5220 -0.4981
  629TIP3    H123302   3.476   0.670   2.584  0.3785  0.2059  0.0916
  629TIP3    H223303   3.404   0.609   2.702 -0.9463  0.4776 -0.5572
  630TIP3   OH223304   0.615   5.738  15.355  0.1672 -0.1636 -0.1365
  630TIP3    H123305   0.644   5.671  15.416  0.5579 -0.9724 -1.1791
  630TIP3    H223306   0.648   5.820  15.391 -0.3278 -0.5234  1.1632
  631TIP3   OH223307   3.960   0.809   2.210 -0.0267  0.3317  0.2331
  631TIP3    H123308   3.933   0.764   2.129 -1.6531 -1.0341  1.4659
  631TIP3    H223309   4.008   0.886   2.179 -1.5779  0.4895 -2.0723
  632TIP3   OH223310   1.643   5.180   6.427 -0.2542 -0.2627  0.3518
  632TIP3    H123311   1.662   5.115   6.360  0.8398  0.7050 -0.3093
  632TIP3    H223312   1.548   5.189   6.425 -0.2137  0.1894 -1.5198
  633TIP3   OH223313   4.722   1.998  13.657  0.4383 -0.1038 -0.3019
  633TIP3    H123314   4.694   2.014  13.567  1.0858  0.1702 -0.4603
  633TIP3    H223315   4.728   1.902  13.663  4.1325 -0.1329 -1.7879
  634TIP3   OH223316   5.127   3.933   1.188 -0.0328 -0.3726 -0.1213
  634TIP3    H123317   5.111   3.969   1.101 -0.9153  0.0122  0.1891
  634TIP3    H223318   5.201   3.874   1.176  0.5690  0.5155 -0.9108
  635TIP3   OH223319   4.675   0.837   2.052 -0.2215  0.3408 -0.1527
  635TIP3    H123320   4.614   0.818   2.123  0.8643  2.2522  1.3900
  635TIP3    H223321   4.747   0.883   2.094  0.5722  1.3967 -2.4943
  636TIP3   OH223322   2.840   4.074   2.794  0.2593 -0.3801  0.1791
  636TIP3    H123323   2.748   4.099   2.803 -0.0813 -1.5421  0.1519
  636TIP3    H223324   2.878   4.088   2.881 -0.5347 -2.0526  0.8563
  637TIP3   OH223325   6.534   3.291  10.738 -0.5337  0.4792 -0.5653
  637TIP3    H123326   6.598   3.362  10.727  1.7197 -1.6635 -2.3235
  637TIP3    H223327   6.574   3.232  10.801 -2.5907  0.8791  1.2209
  638TIP3   OH223328   4.149   6.225  15.152 -0.0514  0.0153  0.3261
  638TIP3    H123329   4.090   6.192  15.084 -0.7105  0.9985  0.3972
  638TIP3    H223330   4.095   6.228  15.231 -0.1259  1.5084  0.2607
  639TIP3   OH223331   6.355   1.422  13.362 -0.1634  0.2723 -0.0371
  639TIP3    H123332   6.435   1.462  13.327  0.6895 -2.3469 -1.3971
  639TIP3    H223333   6.353   1.334  13.323 -2.0960 -0.9029  2.3887
  640TIP3   OH223334   6.093   5.775   3.040 -0.0498 -0.6694  0.1294
  640TIP3    H123335   6.073   5.852   3.093  1.4831  0.3099 -0.6190
  640TIP3    H223336   6.052   5.793   2.955  0.5764 -0.5071 -0.1465
  641TIP3   OH223337   5.791   4.903  12.664 -0.2963  0.4155  0.5181
  641TIP3    H123338   5.735   4.843  12.615  2.6019 -1.1620 -1.1540
  641TIP3    H223339   5.798   4.864  12.751 -1.5439  0.5328  0.6929
  642TIP3   OH223340   1.906   2.880   4.995  0.0100 -0.1103 -0.2500
  642TIP3    H123341   1.994   2.849   5.016  0.7890  3.2062  2.2018
  642TIP3    H223342   1.853   2.859   5.072 -1.5416 -2.3025 -1.7985
  643TIP3   OH223343   0.740   3.019   1.222 -0.6041  0.5702  0.3349
  643TIP3    H123344   0.732   2.929   1.189  0.1164  1.1845 -1.6445
  643TIP3    H223345   0.829   3.024   1.256 -0.1796  0.8858 -0.7812
  644TIP3   OH223346   0.550   2.504  14.179  0.1039 -0.1601 -0.1087
  644TIP3    H123347   0.586   2.476  14.263  0.0939  0.5559  0.1374
  644TIP3    H223348   0.613   2.567  14.145  1.6364 -2.5378 -2.0398
  645TIP3   OH223349   0.083   4.699   1.916  0.2853 -0.5753  0.8963
  645TIP3    H123350   0.051   4.722   2.003 -1.1013 -0.0880  0.2914
  645TIP3    H223351   0.128   4.778   1.885 -0.3978 -0.2703  0.6574
  646TIP3   OH223352   1.525   6.035  11.674 -0.0455 -0.1914 -0.3527
  646TIP3    H123353   1.561   5.990  11.751 -1.0370 -2.3254 -1.0597
  646TIP3    H223354   1.596   6.033  11.610  0.5100  0.8641  0.2138
  647TIP3   OH223355   3.055   0.233   1.148  0.1253 -0.2806 -0.1512
  647TIP3    H123356   2.963   0.241   1.173  0.6702 -1.3890  2.4672
  647TIP3    H223357   3.093   0.317   1.169 -0.0107 -0.2790  0.0975
  648TIP3   OH223358   3.055   1.454  16.769  0.3062  0.3813 -0.3187
  648TIP3    H123359   3.042   1.384  16.704 -0.0075 -0.1934  0.3465
  648TIP3    H223360   2.969   1.464  16.811  0.2860  1.3412 -0.5656
  649TIP3   OH223361   5.362   4.504   3.833  0.1456  0.4493  0.1435
  649TIP3    H123362   5.436   4.522   3.891  0.6389 -0.2287 -0.2620
  649TIP3    H223363   5.289   4.483   3.892  0.4328  0.5282  0.5280
  650TIP3   OH223364   2.808   6.121   1.346  0.1995  0.1690  0.0459
  650TIP3    H123365   2.853   6.205   1.332 -1.0794  0.7565 -0.7302
  650TIP3    H223366   2.859   6.057   1.297 -0.2773  0.9820 -1.5825
  651TIP3   OH223367   3.358   5.497   3.213  0.0091  0.4329  0.0449
  651TIP3    H123368   3.427   5.491   3.147  0.8123 -0.3737  0.9262
  651TIP3    H223369   3.337   5.406   3.234 -0.3432  0.6765  0.7821
  652TIP3   OH223370   6.304   1.759  16.642  0.1601 -0.2222 -0.1018
  652TIP3    H123371   6.244   1.807  16.700 -1.5172 -3.0188  0.7055
  652TIP3    H223372   6.333   1.684  16.695  1.2788 -1.0415 -1.7885
  653TIP3   OH223373   2.382   1.804  10.441 -0.1629 -0.6547  0.3429
  653TIP3    H123374   2.471   1.798  10.476  0.0057  0.8528  0.2706
  653TIP3    H223375   2.394   1.803  10.346 -0.4618 -2.8980  0.2880
  654TIP3   OH223376   0.515   5.588   5.584  0.5316 -0.1953 -0.2642
  654TIP3    H123377   0.511   5.516   5.647  0.1708 -1.3754 -1.5870
  654TIP3    H223378   0.429   5.587   5.541  0.2917  1.4430  0.1020
  655TIP3   OH223379   0.369   0.714  12.797  0.2201  0.0545 -0.2005
  655TIP3    H123380   0.453   0.749  12.769  0.6713 -2.8308 -3.0687
  655TIP3    H223381   0.314   0.717  12.719 -1.4351 -0.5998  0.8836
  656TIP3   OH223382   4.965   5.584  15.215  0.5825 -0.7973 -0.4657
  656TIP3    H123383   4.872   5.565  15.207  0.7951 -1.4866 -1.5525
  656TIP3    H223384   4.990   5.615  15.128  1.4587 -1.0553 -0.3144
  657TIP3   OH223385   2.841   4.956   2.449 -0.1065 -0.3410  0.3368
  657TIP3    H123386   2.848   5.051   2.460 -0.4760 -0.2224 -0.3742
  657TIP3    H223387   2.856   4.921   2.537  1.7786  0.2617  0.3059
  658TIP3   OH223388   4.189   1.393  16.587 -0.2250 -0.0734  0.0448
  658TIP3    H123389   4.210   1.313  16.636 -1.5041 -0.2965  0.2528
  658TIP3    H223390   4.116   1.369  16.530 -1.1140  1.1067  0.6313
  659TIP3   OH223391   0.725   6.591   2.576  0.8373 -0.3391  0.3713
  659TIP3    H123392   0.691   6.587   2.665 -0.0417 -2.1495  0.0036
  659TIP3    H223393   0.680   6.666   2.536 -2.1163 -2.0464  0.2097
  660TIP3   OH223394   0.366   6.363  11.008 -0.4035  0.1593 -0.1862
  660TIP3    H123395   0.345   6.351  11.101  1.1801  2.0449  0.4878
  660TIP3    H223396   0.440   6.304  10.992 -1.4664 -1.0989 -0.6279
  661TIP3   OH223397   0.885   5.603   2.153  0.4465 -0.0766 -0.3437
  661TIP3    H123398   0.910   5.515   2.123 -0.9912 -0.3608 -0.8005
  661TIP3    H223399   0.959   5.659   2.127  1.2039 -1.0787 -0.4117
  662TIP3   OH223400   2.012   0.099   3.300 -0.4024  0.0916  0.1638
  662TIP3    H123401   1.975   0.164   3.241 -0.5180 -0.2397 -0.1253
  662TIP3    H223402   2.088   0.144   3.339  0.2734 -0.0274 -0.9837
  663TIP3   OH223403   4.691   0.043  16.003 -0.3313 -1.0290  0.0577
  663TIP3    H123404   4.724   0.124  15.963 -0.4598  0.1496  2.2138
  663TIP3    H223405   4.736  -0.027  15.955  1.5854  0.3965 -0.3400
  664TIP3   OH223406   4.010   6.670   3.010 -0.0765  0.2038  0.0079
  664TIP3    H123407   3.925   6.687   2.969 -0.1256  0.1048  0.0666
  664TIP3    H223408   4.073   6.721   2.959 -0.1164 -0.0335 -0.2781
  665TIP3   OH223409   3.080   4.678   5.902 -0.3857 -0.2864  0.5369
  665TIP3    H123410   3.093   4.647   5.992 -0.1800 -0.1984  0.5386
  665TIP3    H223411   3.167   4.704   5.873 -0.4384 -0.3927  0.2821
  666TIP3   OH223412   5.196   0.364   0.080  0.3726  0.0484  0.1380
  666TIP3    H123413   5.172   0.457   0.078 -2.0356 -0.5017  1.0557
  666TIP3    H223414   5.147   0.328   0.153  2.2958 -1.7256  0.6478
  667TIP3   OH223415   2.546   4.847  13.634 -0.0908  0.4152  0.1027
  667TIP3    H123416   2.483   4.798  13.580  0.4287  0.2280 -0.3439
  667TIP3    H223417   2.593   4.780  13.682  2.4654  0.1587 -2.4594
  668TIP3   OH223418   1.664   3.736   3.165  0.4574 -0.4004 -0.1816
  668TIP3    H123419   1.633   3.815   3.122 -0.2708 -0.9031 -0.6051
  668TIP3    H223420   1.640   3.665   3.105  2.1424 -0.8456 -0.3598
  669TIP3   OH223421   2.013   3.472  14.288  0.1759  0.2616 -0.3890
  669TIP3    H123422   2.032   3.565  14.278 -0.4366  0.3275 -1.0257
  669TIP3    H223423   1.950   3.468  14.360 -0.7184  0.4674 -1.1404
  670TIP3   OH223424   3.583   3.364   4.967 -0.2350 -0.2835 -0.9449
  670TIP3    H123425   3.664   3.414   4.976 -0.8512  0.8197 -1.4135
  670TIP3    H223426   3.604   3.278   5.005  1.3033 -0.1954 -1.5144
  671TIP3   OH223427   1.080   2.388  16.735 -0.1165  0.1232  0.3396
  671TIP3    H123428   1.016   2.407  16.804  1.1852 -0.0313  1.6443
  671TIP3    H223429   1.132   2.468  16.728  0.1301 -0.0702 -0.0706
  672TIP3   OH223430   3.974   2.768   4.424 -0.4216  0.5093  0.3427
  672TIP3    H123431   3.913   2.742   4.494 -0.4890  2.8665  1.2327
  672TIP3    H223432   4.036   2.695   4.419 -2.4449 -1.3273  0.3887
  673TIP3   OH223433   0.747   6.114  14.542  0.3825 -0.3489 -0.6903
  673TIP3    H123434   0.804   6.190  14.529 -0.2863  0.4101  0.5972
  673TIP3    H223435   0.718   6.122  14.633  0.9531 -2.6151 -0.2455
  674TIP3   OH223436   0.222   3.448  13.592 -0.2800  0.0122 -0.0330
  674TIP3    H123437   0.227   3.353  13.602  0.3734  0.0987  0.4876
  674TIP3    H223438   0.284   3.483  13.655  0.6020  0.7338 -1.2505
  675TIP3   OH223439   4.979   1.704   2.641  0.1049  0.1724 -0.2915
  675TIP3    H123440   4.964   1.652   2.562  0.7896 -0.0408 -0.2905
  675TIP3    H223441   5.048   1.766   2.616 -0.8598  1.2556 -0.3652
  676TIP3   OH223442   6.035   3.970  16.552 -0.2461  0.0160 -0.3222
  676TIP3    H123443   6.129   3.953  16.547 -0.0004  0.7207  1.2833
  676TIP3    H223444   6.027   4.065  16.543 -0.5472  0.2530  1.8029
  677TIP3   OH223445   1.124   0.700  12.156  0.3238  0.5339  0.3647
  677TIP3    H123446   1.195   0.655  12.111 -1.4319 -1.9057 -0.1860
  677TIP3    H223447   1.078   0.748  12.088 -0.3545 -0.4148  0.1442
  678TIP3   OH223448   5.146   5.385   0.990 -0.3647  0.1462 -0.8398
  678TIP3    H123449   5.232   5.375   1.032  0.2451  2.1708 -1.4578
  678TIP3    H223450   5.086   5.338   1.047  1.1788 -1.6192 -0.5609
  679TIP3   OH223451   1.975   1.568   4.360  0.1943  0.1824 -0.4959
  679TIP3    H123452   1.970   1.568   4.264 -1.6260  1.7391 -0.4739
  679TIP3    H223453   1.896   1.520   4.387 -0.5813  1.7754  0.1839
  680TIP3   OH223454   1.708   6.725  13.614 -0.6941 -0.1754  0.7178
  680TIP3    H123455   1.676   6.737  13.704 -0.2883  3.1187  0.5562
  680TIP3    H223456   1.648   6.778  13.561  0.9443  0.5355 -0.5035
  681TIP3   OH223457   4.932   2.667  10.968 -0.1139 -0.0329  0.1520
  681TIP3    H123458   4.846   2.698  10.998 -0.5034  0.0630 -0.9915
  681TIP3    H223459   4.915   2.635  10.879  1.0681  0.1464 -0.1504
  682TIP3   OH223460   3.814   3.302   4.739  0.3024 -0.1759  0.2884
  682TIP3    H123461   3.886   3.359   4.710 -0.5695  0.8409  0.0353
  682TIP3    H223462   3.801   3.325   4.831  1.6926 -1.9133  0.9748
  683TIP3   OH223463   4.052   0.907   3.783 -0.3304 -0.6292 -0.0456
  683TIP3    H123464   4.131   0.906   3.728  0.8905 -1.6057  1.5989
  683TIP3    H223465   4.048   0.996   3.817  1.2060 -1.0064  1.2871
  684TIP3   OH223466   6.594   2.325   3.019  0.0009 -0.0981 -0.1006
  684TIP3    H123467   6.522   2.388   3.009  1.1643  1.1028 -1.3060
  684TIP3    H223468   6.668   2.379   3.046  0.2486 -1.4635  2.2182
  685TIP3   OH223469   0.651   4.092   3.180 -0.0837 -0.4057 -0.2183
  685TIP3    H123470   0.600   4.169   3.205  0.8395 -0.2707  1.3275
  685TIP3    H223471   0.714   4.124   3.116 -0.5132 -0.1430 -0.5131
  686TIP3   OH223472   5.482   1.070  16.912  0.1046 -0.3976  0.0215
  686TIP3    H123473   5.399   1.105  16.879 -0.5999 -2.6572 -0.8355
  686TIP3    H223474   5.471   1.071  17.008 -0.1186  1.0304  0.0049
  687TIP3   OH223475   5.428   0.378   0.318  0.2267  0.3885 -0.3700
  687TIP3    H123476   5.398   0.380   0.228 -1.1445  0.3675  0.0627
  687TIP3    H223477   5.352   0.405   0.370 -0.1933 -3.0376  1.0546
  688TIP3   OH223478   2.832   3.057  13.907  0.1737 -0.3114  0.7074
  688TIP3    H123479   2.874   3.126  13.856 -1.2815 -1.2046 -1.8561
  688TIP3    H223480   2.878   2.977  13.881 -2.2691 -1.1587 -1.3831
  689TIP3   OH223481   5.142   1.455  10.979  0.1478 -0.2592 -0.2702
  689TIP3    H123482   5.190   1.376  10.954  0.9606  0.2292 -0.2699
  689TIP3    H223483   5.160   1.517  10.909  0.8071  0.4523  0.5180
  690TIP3   OH223484   4.814   4.459   5.794  0.6908 -0.3758  0.6147
  690TIP3    H123485   4.718   4.455   5.791  0.6812  0.5972 -1.6824
  690TIP3    H223486   4.832   4.510   5.873 -0.7021 -0.0634  0.7721
  691TIP3   OH223487   2.800   6.031   3.541 -0.2400  0.7246 -0.0140
  691TIP3    H123488   2.888   6.042   3.576 -0.2846 -1.5076  0.9627
  691TIP3    H223489   2.744   6.081   3.600  0.0068 -0.7819  1.5939
  692TIP3   OH223490   5.225   2.455  13.352  0.2869  0.1721 -0.2857
  692TIP3    H123491   5.291   2.423  13.413  0.3128 -0.2976 -0.5547
  692TIP3    H223492   5.172   2.378  13.331 -0.9830  0.7483  0.6933
  693TIP3   OH223493   5.075   6.570  12.104  0.3861 -0.0591  0.1888
  693TIP3    H123494   5.151   6.514  12.090  0.6614 -0.3737  2.5221
  693TIP3    H223495   5.111   6.659  12.105  0.2229  0.0742 -1.6473
  694TIP3   OH223496   1.572   3.866  12.968 -0.4025 -0.6712 -0.0384
  694TIP3    H123497   1.478   3.885  12.976 -0.4913 -1.1833  0.2318
  694TIP3    H223498   1.615   3.950  12.982 -0.8980  0.1170 -2.8266
  695TIP3   OH223499   3.893   3.138   5.658 -0.6924 -0.2915  0.4175
  695TIP3    H123500   3.963   3.074   5.670  1.3129  1.9268  1.5453
  695TIP3    H223501   3.823   3.108   5.717 -0.0040 -1.6514  0.5819
  696TIP3   OH223502   5.223   1.611  13.508  0.0789  0.3024  0.0345
  696TIP3    H123503   5.208   1.568  13.424 -0.0638 -0.0262  0.2265
  696TIP3    H223504   5.146   1.667  13.521 -0.0276  0.1444  0.0777
  697TIP3   OH223505   3.114   5.437  16.163 -0.0388  0.0671 -0.5038
  697TIP3    H123506   3.093   5.363  16.220 -0.3353 -0.0910 -0.8170
  697TIP3    H223507   3.124   5.511  16.223 -3.3185  0.5915 -0.4240
  698TIP3   OH223508   0.529   0.330   6.017  0.0387  0.0890  0.1464
  698TIP3    H123509   0.443   0.365   5.991  0.1830  0.5808  0.3118
  698TIP3    H223510   0.590   0.402   6.000  0.3138 -0.0031  0.7092
  699TIP3   OH223511   6.575   5.456  13.575 -0.3906 -0.0187 -0.0833
  699TIP3    H123512   6.528   5.421  13.499 -1.9409 -0.7602  1.1536
  699TIP3    H223513   6.665   5.427  13.562 -0.8539 -1.1149 -1.0776
  700TIP3   OH223514   6.431   4.354   6.313  0.0667 -0.5618  0.1603
  700TIP3    H123515   6.350   4.340   6.361  0.1421 -1.8536 -0.0562
  700TIP3    H223516   6.404   4.357   6.221  0.0727  0.7078  0.1784
  701TIP3   OH223517   3.515   4.589   0.173  0.7438  0.6042 -0.1619
  701TIP3    H123518   3.453   4.661   0.162  1.8201  1.4027 -1.2185
  701TIP3    H223519   3.578   4.600   0.102 -0.1085 -2.5217 -1.5735
  702TIP3   OH223520   2.691   1.476  13.112  0.2637 -0.0546  0.1373
  702TIP3    H123521   2.649   1.412  13.169 -0.0947 -0.0373 -0.1080
  702TIP3    H223522   2.619   1.521  13.068  0.5334 -1.5095 -1.9467
  703TIP3   OH223523   5.658   4.942  13.379  0.2371  0.4572  0.2942
  703TIP3    H123524   5.674   5.035  13.394 -1.1785  0.7488  0.1948
  703TIP3    H223525   5.563   4.933  13.385  0.1181 -0.5488 -2.1087
  704TIP3   OH223526   2.693   4.763   3.030  0.1609  0.3329 -0.5680
  704TIP3    H123527   2.766   4.719   3.073 -1.7677 -2.3082  0.3026
  704TIP3    H223528   2.720   4.854   3.022  2.3473  0.0752  2.3822
  705TIP3   OH223529   3.272   5.582  14.440 -0.0054  0.3187 -0.0400
  705TIP3    H123530   3.191   5.595  14.489 -0.2876 -1.3340  0.0047
  705TIP3    H223531   3.331   5.540  14.501 -0.6859 -2.6666 -1.2459
  706TIP3   OH223532   1.748   2.014   0.153  0.2682 -0.2825 -0.2025
  706TIP3    H123533   1.755   2.021   0.248 -1.9125  0.6240 -0.0486
  706TIP3    H223534   1.712   1.926   0.138 -0.1531 -0.1308 -0.1107
  707TIP3   OH223535   5.622   4.774   3.102  0.6774  0.2427 -0.6665
  707TIP3    H123536   5.643   4.692   3.145  0.9264  0.7903  0.3023
  707TIP3    H223537   5.534   4.762   3.067  1.0380 -0.7094 -1.2535
  708TIP3   OH223538   3.161   5.054  11.202  0.3308 -0.2587 -0.1442
  708TIP3    H123539   3.173   5.135  11.152  2.0560  0.2392  0.9815
  708TIP3    H223540   3.230   4.996  11.170  1.6038  0.1455  1.7116
  709TIP3   OH223541   1.730   0.342   3.440  0.1708 -0.2464  0.1329
  709TIP3    H123542   1.718   0.262   3.389  1.1144 -0.8337  0.8008
  709TIP3    H223543   1.807   0.383   3.402 -0.7183  0.7420 -0.6741
  710TIP3   OH223544   5.114   3.665  14.792 -0.1765 -0.1605  0.3421
  710TIP3    H123545   5.196   3.671  14.742 -1.3187  2.0568 -1.4499
  710TIP3    H223546   5.108   3.573  14.817  2.2223 -0.6442 -0.6038
  711TIP3   OH223547   2.533   3.595  16.240 -0.0191  0.0976 -0.1492
  711TIP3    H123548   2.546   3.675  16.189 -0.7782  0.9281  0.9237
  711TIP3    H223549   2.450   3.608  16.285 -0.5275 -1.6185 -0.5186
  712TIP3   OH223550   1.697   5.497   0.150 -0.1953  0.1812  0.0217
  712TIP3    H123551   1.689   5.511   0.244  0.4795  0.3979  0.0520
  712TIP3    H223552   1.657   5.411   0.135 -2.8099  1.2918  0.0844
  713TIP3   OH223553   1.872   0.236  11.601 -0.2554  0.2263 -0.0445
  713TIP3    H123554   1.845   0.147  11.621 -0.7921  0.5240  0.5754
  713TIP3    H223555   1.826   0.258  11.520 -0.0291 -0.0935 -0.2646
  714TIP3   OH223556   1.279   4.570  12.113  0.0385 -0.1669 -0.3949
  714TIP3    H123557   1.334   4.497  12.085  0.3421  0.6835 -2.1315
  714TIP3    H223558   1.221   4.586  12.039 -1.7935 -0.2806  0.9426
  715TIP3   OH223559   3.102   5.619   2.631 -0.1685  0.2927 -0.1776
  715TIP3    H123560   3.194   5.596   2.624  0.0640  0.9296  0.6292
  715TIP3    H223561   3.092   5.649   2.721 -0.6889  2.2789 -0.8569
  716TIP3   OH223562   4.291   6.208   2.291  0.0771  0.0405  0.3598
  716TIP3    H123563   4.304   6.253   2.374 -1.2009  0.9439  0.0987
  716TIP3    H223564   4.360   6.242   2.233  1.2733 -0.9467  1.1406
  717TIP3   OH223565   6.740   2.719  12.044 -0.1880  0.5259 -0.2526
  717TIP3    H123566   6.714   2.723  12.136  0.6525  0.3105  0.0041
  717TIP3    H223567   6.804   2.647  12.040  1.7912  2.1900 -0.4577
  718TIP3   OH223568   4.036   6.393   0.280 -0.1217  0.4947 -0.5749
  718TIP3    H123569   4.129   6.417   0.280 -0.3962  1.6148  0.3923
  718TIP3    H223570   4.028   6.329   0.351  0.2601 -1.2040 -1.9797
  719TIP3   OH223571   3.264   4.272  14.335 -0.0323 -0.1613 -0.3294
  719TIP3    H123572   3.316   4.192  14.325  1.0019  0.3222  0.8463
  719TIP3    H223573   3.208   4.274  14.258 -0.0135 -1.9616 -0.4345
  720TIP3   OH223574   1.305   5.346   4.329 -0.5000  0.2973  0.7330
  720TIP3    H123575   1.259   5.416   4.282 -0.2820 -0.8779 -1.3726
  720TIP3    H223576   1.386   5.387   4.359 -0.0800  0.8539 -1.0185
  721TIP3   OH223577   4.566   1.994  13.418 -0.7936 -0.1250  0.3105
  721TIP3    H123578   4.568   2.086  13.393 -1.1985 -0.2234 -0.1035
  721TIP3    H223579   4.479   1.964  13.392 -0.0769 -1.0523 -1.1355
  722TIP3   OH223580   2.632   5.725   3.319  0.0701 -0.1450  0.0015
  722TIP3    H123581   2.626   5.685   3.406 -0.7722  0.2278  0.1175
  722TIP3    H223582   2.619   5.819   3.334 -3.5327 -0.3652 -0.8592
  723TIP3   OH223583   3.634   1.220  13.820  0.0807  0.1209  0.3211
  723TIP3    H123584   3.605   1.311  13.826  0.3393  0.1131  1.8895
  723TIP3    H223585   3.619   1.197  13.728 -0.5784  1.5401  0.0442
  724TIP3   OH223586   3.736   4.748  14.906 -0.5118  0.5939 -0.0966
  724TIP3    H123587   3.737   4.844  14.912 -1.0468  0.5943  0.0494
  724TIP3    H223588   3.828   4.724  14.898 -0.3507  1.1058  0.1231
  725TIP3   OH223589   3.711   0.015  12.664  0.1186  0.5078  0.3428
  725TIP3    H123590   3.680   0.041  12.576 -1.2479  2.4777  1.3051
  725TIP3    H223591   3.637  -0.032  12.702  1.0446 -1.1634  0.1638
  726TIP3   OH223592   3.889   2.330  13.117  0.3444  0.2884 -0.2819
  726TIP3    H123593   3.838   2.380  13.181 -0.0586  0.2686 -0.5855
  726TIP3    H223594   3.831   2.259  13.091  1.6444 -1.6293  1.6956
  727TIP3   OH223595   2.303   1.873   2.792 -0.2598 -0.0730  0.0191
  727TIP3    H123596   2.255   1.874   2.709  0.2234 -1.8551 -0.3267
  727TIP3    H223597   2.264   1.800   2.841  0.7043 -0.2303  0.5757
  728TIP3   OH223598   1.149   1.019  10.781 -0.1666  0.2720 -0.1779
  728TIP3    H123599   1.148   0.995  10.689 -0.4041 -1.0589  0.1444
  728TIP3    H223600   1.239   1.047  10.798 -0.2952  1.2190 -0.9595
  729TIP3   OH223601   1.901   3.452  15.486  0.6914 -0.2255 -0.5054
  729TIP3    H123602   1.969   3.519  15.477 -0.7960  1.4126 -0.2174
  729TIP3    H223603   1.837   3.475  15.419 -0.3814 -0.7034  0.3318
  730TIP3   OH223604   1.344   5.112  14.052  0.1284  0.0249  0.7220
  730TIP3    H123605   1.297   5.125  13.969  2.5132  2.5962 -0.4225
  730TIP3    H223606   1.394   5.032  14.039 -1.6869 -1.1954  0.8868
  731TIP3   OH223607   3.223   5.048  11.618  0.4868  0.3675  0.0738
  731TIP3    H123608   3.226   5.067  11.711  0.8595  0.4784  0.0397
  731TIP3    H223609   3.229   5.134  11.575  2.8919  0.1755 -0.0962
  732TIP3   OH223610   3.845   1.028  16.758  0.3603 -0.4289  0.6363
  732TIP3    H123611   3.776   0.962  16.764 -0.2123  0.2387  1.8358
  732TIP3    H223612   3.907   1.005  16.827 -0.8575  1.3606  2.4368
  733TIP3   OH223613   1.600   6.288  10.484  0.1951 -0.3782 -0.2786
  733TIP3    H123614   1.657   6.348  10.437 -0.3073  0.3613  0.0421
  733TIP3    H223615   1.516   6.333  10.489  0.2329 -0.4193  1.3401
  734TIP3   OH223616   5.013   1.580  10.645 -0.0821 -0.4334 -0.7993
  734TIP3    H123617   4.997   1.524  10.569 -0.7147 -2.1247  0.5017
  734TIP3    H223618   4.930   1.580  10.693  0.5179 -0.0477  0.2851
  735TIP3   OH223619   1.562   1.715  11.858  0.5192 -0.5317 -0.6005
  735TIP3    H123620   1.535   1.624  11.842 -0.4778 -0.0785 -1.7223
  735TIP3    H223621   1.593   1.746  11.772 -0.5654  0.6201 -0.6062
  736TIP3   OH223622   6.644   4.263   3.235 -0.2210  0.1060 -0.3147
  736TIP3    H123623   6.699   4.323   3.285 -0.3745 -1.7390  2.2813
  736TIP3    H223624   6.573   4.317   3.201  1.1197  1.8494 -0.4518
  737TIP3   OH223625   2.934   4.206   1.144  0.0653 -0.3982  0.6102
  737TIP3    H123626   2.961   4.115   1.131  0.5946 -0.2010  0.3095
  737TIP3    H223627   2.886   4.228   1.064 -0.5856 -0.5935  0.9363
  738TIP3   OH223628   3.790   4.946   0.504  0.3473  0.1814 -0.3742
  738TIP3    H123629   3.837   4.866   0.530  2.1954  0.4506 -2.5092
  738TIP3    H223630   3.717   4.914   0.450  0.0117 -0.1173  0.2473
  739TIP3   OH223631   3.855   1.603   2.160 -0.2728 -0.0978  0.1557
  739TIP3    H123632   3.820   1.691   2.146  0.7489  0.1801 -0.8375
  739TIP3    H223633   3.857   1.593   2.255 -1.7696  0.3698  0.2621
  740TIP3   OH223634   4.278   6.690  11.012 -0.3743 -0.3246 -0.0279
  740TIP3    H123635   4.343   6.637  10.966  0.1114  0.3975 -0.1892
  740TIP3    H223636   4.197   6.677  10.962  0.3871  1.3276 -1.7955
  741TIP3   OH223637   6.225   1.292   0.165 -0.3938  0.5817 -0.3499
  741TIP3    H123638   6.315   1.304   0.196 -0.8292  2.1868  0.4110
  741TIP3    H223639   6.182   1.375   0.184 -1.4155  0.7555 -2.9426
  742TIP3   OH223640   6.615   2.289   1.371  0.1213  0.1003 -0.1378
  742TIP3    H123641   6.708   2.265   1.365  0.3552  1.3141 -2.3781
  742TIP3    H223642   6.610   2.376   1.333 -2.1267 -0.5031 -1.4347
  743TIP3   OH223643   2.099   1.425   2.644  0.5521 -0.0355  0.0236
  743TIP3    H123644   2.147   1.347   2.672 -1.4306 -2.0034 -1.7078
  743TIP3    H223645   2.022   1.428   2.700  0.1508  0.1635 -0.5332
  744TIP3   OH223646   0.602   5.284  16.812  0.5306 -0.1126 -0.1604
  744TIP3    H123647   0.582   5.194  16.787  1.0106 -0.4749  0.7371
  744TIP3    H223648   0.697   5.290  16.810  0.4889  1.2484 -3.1434
  745TIP3   OH223649   2.143   3.973  12.026 -0.8196  0.0436  0.1615
  745TIP3    H123650   2.134   3.885  12.062  1.0525  0.5463  2.0026
  745TIP3    H223651   2.065   4.020  12.057 -1.0059 -0.4996  0.5370
  746TIP3   OH223652   6.741   5.797   5.197  0.3952  0.0243 -1.0282
  746TIP3    H123653   6.704   5.866   5.142 -1.1701  0.2707  0.2716
  746TIP3    H223654   6.676   5.783   5.266  3.0175  1.0764  1.9189
  747TIP3   OH223655   5.097   3.840   6.207 -0.0315 -0.1085  0.1827
  747TIP3    H123656   5.182   3.879   6.189 -0.0144 -0.4838 -0.5680
  747TIP3    H223657   5.117   3.755   6.246 -0.0672 -0.0475  0.3362
  748TIP3   OH223658   0.276   1.739   1.208 -0.0794  0.0445  0.4192
  748TIP3    H123659   0.211   1.723   1.140  2.4547  0.7624 -2.4163
  748TIP3    H223660   0.354   1.768   1.160  1.8946  0.6717  3.6810
  749TIP3   OH223661   0.507   6.726  12.122 -0.1441  0.5331 -0.3020
  749TIP3    H123662   0.552   6.715  12.205 -0.0175  1.5046 -0.2343
  749TIP3    H223663   0.439   6.659  12.122 -0.2892  0.6722  0.6869
  750TIP3   OH223664   6.257   5.884  16.899 -0.0308 -0.2606  0.2987
  750TIP3    H123665   6.283   5.973  16.877  1.6927 -0.2365  2.1483
  750TIP3    H223666   6.254   5.838  16.815  0.3898  1.1950 -0.5493
  751TIP3   OH223667   3.798   5.463  16.415 -0.6098 -0.3085  0.3297
  751TIP3    H123668   3.754   5.378  16.417 -1.8002  0.2994  1.1394
  751TIP3    H223669   3.745   5.516  16.356  0.8886 -0.4886 -1.2572
  752TIP3   OH223670   0.490   4.001   5.516  0.7443  0.3394  0.3679
  752TIP3    H123671   0.473   3.914   5.551  1.1467  0.2608  0.3729
  752TIP3    H223672   0.565   3.989   5.458  1.1555  0.7876  0.8004
  753TIP3   OH223673   6.805   6.384   1.958 -0.3024 -0.0828 -0.4253
  753TIP3    H123674   6.878   6.401   2.017 -0.7547  2.1425 -0.3896
  753TIP3    H223675   6.756   6.313   1.999  2.0174 -1.9126 -0.6637
  754TIP3   OH223676   0.026   2.959  16.389 -0.0401  0.5810  0.0769
  754TIP3    H123677   0.061   2.905  16.318 -1.0041  0.7957 -0.5878
  754TIP3    H223678  -0.067   2.937  16.393 -0.3799  1.9087  0.0245
  755TIP3   OH223679   1.144   4.396   3.458  0.0332 -0.7551 -0.7122
  755TIP3    H123680   1.157   4.423   3.549  0.2621 -3.0269  0.0008
  755TIP3    H223681   1.056   4.425   3.436 -0.3962 -1.0336  0.5753
  756TIP3   OH223682   2.973   1.242  16.622  0.2009  0.0850  0.0205
  756TIP3    H123683   2.944   1.164  16.669 -0.3545  0.1747 -0.1713
  756TIP3    H223684   3.046   1.212  16.568  0.0301 -0.2852 -0.0047
  757TIP3   OH223685   5.731   0.624  16.123 -0.8297  0.4672 -0.5617
  757TIP3    H123686   5.650   0.586  16.089 -0.4104 -0.6959 -0.2783
  757TIP3    H223687   5.785   0.638  16.045 -0.5750 -0.5090 -0.5660
  758TIP3   OH223688   2.930   5.383  15.964  0.1126 -0.2739  0.1476
  758TIP3    H123689   3.025   5.390  15.979  0.6547 -0.7453 -2.6141
  758TIP3    H223690   2.896   5.469  15.989  0.8047 -0.8119  3.4829
  759TIP3   OH223691   4.862   3.344   4.121 -0.1878 -0.1443 -0.0313
  759TIP3    H123692   4.791   3.346   4.185 -0.3994 -0.4455 -0.2554
  759TIP3    H223693   4.855   3.428   4.075 -0.1398  0.0013  0.2281
  760TIP3   OH223694   4.618   5.335  15.640  0.1913 -0.5753 -1.0599
  760TIP3    H123695   4.621   5.340  15.736 -0.3589  0.7226 -1.0977
  760TIP3    H223696   4.685   5.396  15.610 -2.5544  2.5408 -1.4888
  761TIP3   OH223697   3.520   4.270  12.999 -0.3787  0.5523  0.1428
  761TIP3    H123698   3.578   4.195  12.985 -0.7271  0.0902  1.1225
  761TIP3    H223699   3.432   4.233  12.998 -0.7575  1.3468 -2.0059
  762TIP3   OH223700   0.269   6.299  16.038  0.7787  0.3761  0.0581
  762TIP3    H123701   0.178   6.270  16.025  0.9134 -0.0130 -0.0493
  762TIP3    H223702   0.276   6.315  16.132  0.8452 -0.4876  0.2148
  763TIP3   OH223703   3.123   6.065   0.127 -0.1974 -0.5583 -0.9855
  763TIP3    H123704   3.171   6.135   0.172 -1.8962  1.5047 -2.2165
  763TIP3    H223705   3.177   6.044   0.051  0.5351 -0.9503 -0.3777
  764TIP3   OH223706   3.454   2.705  15.558 -0.0841  0.2331  0.6439
  764TIP3    H123707   3.414   2.786  15.589  0.5831  0.6715  0.3767
  764TIP3    H223708   3.405   2.682  15.480 -1.2178 -0.4178  1.5096
  765TIP3   OH223709   5.568   3.912  15.466  0.2578 -0.1020 -0.3099
  765TIP3    H123710   5.612   3.851  15.525 -0.7835 -1.3475 -0.7640
  765TIP3    H223711   5.621   3.991  15.469  1.4540 -0.9046  0.5832
  766TIP3   OH223712   0.130   0.873  16.647  0.8243  0.3129  0.2386
  766TIP3    H123713   0.199   0.939  16.648  0.6500  0.4959  0.2413
  766TIP3    H223714   0.092   0.878  16.560  1.6748 -0.6944 -0.2079
  767TIP3   OH223715   0.906   0.439  14.104 -0.1945  0.5428 -0.7609
  767TIP3    H123716   0.961   0.361  14.096  0.7014  1.2935 -2.4930
  767TIP3    H223717   0.874   0.436  14.194  0.9670 -1.0569 -0.3434
  768TIP3   OH223718   4.207   3.116   5.740 -0.0694  0.2023  0.2715
  768TIP3    H123719   4.276   3.049   5.743 -0.6763 -0.4182  0.3851
  768TIP3    H223720   4.229   3.175   5.812 -0.4616 -0.7924  1.2331
  769TIP3   OH223721   4.728   4.492   0.870  0.1553  0.5007 -0.2472
  769TIP3    H123722   4.819   4.519   0.859  0.2390  0.9381  1.2466
  769TIP3    H223723   4.693   4.487   0.781  0.7624  3.3976 -0.7636
  770TIP3   OH223724   2.130   4.348   2.228  0.7617  0.2036 -0.0736
  770TIP3    H123725   2.189   4.382   2.160  0.1752  0.7944 -0.2949
  770TIP3    H223726   2.082   4.425   2.259  2.5421  0.3717  2.5690
  771TIP3   OH223727   2.851   6.204   2.949  0.2294  0.3046 -0.1117
  771TIP3    H123728   2.897   6.130   2.909 -0.2003 -0.1586  0.2394
  771TIP3    H223729   2.851   6.185   3.042 -0.8571  0.1845 -0.1228
  772TIP3   OH223730   4.918   2.085   1.170 -0.3009 -0.5886  0.5727
  772TIP3    H123731   4.854   2.109   1.104  1.3127  1.1313 -0.4416
  772TIP3    H223732   4.928   2.163   1.224  1.8930 -0.3449 -0.1132
  773TIP3   OH223733   2.671   3.836   4.179 -0.0437  0.5052 -0.4165
  773TIP3    H123734   2.577   3.843   4.161 -0.2955  0.4372  0.7956
  773TIP3    H223735   2.711   3.827   4.092 -1.4148 -2.4299 -0.8873
  774TIP3   OH223736   2.341   0.492  10.922  0.3595 -0.2669 -0.0198
  774TIP3    H123737   2.342   0.539  11.005 -1.1858  0.3132 -0.3001
  774TIP3    H223738   2.407   0.537  10.869  0.2454  0.3566  0.3607
  775TIP3   OH223739   3.087   2.602   1.641 -0.5386 -0.3760 -0.3615
  775TIP3    H123740   3.159   2.548   1.608 -0.0406 -0.6342  1.0794
  775TIP3    H223741   3.008   2.562   1.605 -0.1213 -1.5915  0.0397
  776TIP3   OH223742   0.068   2.480   3.392  0.4471 -0.1214  0.3032
  776TIP3    H123743   0.158   2.468   3.362  1.2680  1.0766  2.1096
  776TIP3    H223744   0.046   2.398   3.435  1.5033  0.3326  1.7681
  777TIP3   OH223745   4.071   2.669  16.166  0.2582  0.0443  0.2466
  777TIP3    H123746   4.012   2.624  16.106 -1.1710  0.9095  0.9699
  777TIP3    H223747   4.014   2.714  16.228  1.6836  0.0395  1.6389
  778TIP3   OH223748   1.355   1.406  11.937 -0.4125 -0.3573  0.3407
  778TIP3    H123749   1.446   1.419  11.966 -0.8255  0.1932  1.4182
  778TIP3    H223750   1.349   1.458  11.857 -0.1733  0.8135  1.0490
  779TIP3   OH223751   5.005   5.744   4.205  0.1048  0.3331 -0.0350
  779TIP3    H123752   5.039   5.663   4.167  2.4084  2.1835 -2.2092
  779TIP3    H223753   5.058   5.758   4.283 -1.2841 -0.8728  1.2193
  780TIP3   OH223754   3.079   5.405   1.915 -0.1573 -0.0074  0.5762
  780TIP3    H123755   3.065   5.420   2.009 -2.2838 -1.0922  0.4981
  780TIP3    H223756   3.027   5.473   1.872  0.6078  0.3313  0.1743
  781TIP3   OH223757   1.229   0.286   1.553  0.1683 -0.0315  0.4643
  781TIP3    H123758   1.275   0.203   1.567  1.6629  0.4190 -1.4163
  781TIP3    H223759   1.245   0.335   1.633  0.9500 -0.8067  0.8053
  782TIP3   OH223760   5.560   6.578  16.288  0.3230 -0.2242  0.6809
  782TIP3    H123761   5.647   6.538  16.281  0.7752  0.9271 -1.0524
  782TIP3    H223762   5.566   6.656  16.233 -2.4675 -1.2948 -1.3624
  783TIP3   OH223763   2.546   4.180  11.231 -0.4872  0.5940  0.2663
  783TIP3    H123764   2.470   4.150  11.282 -0.3159  0.9622  0.7524
  783TIP3    H223765   2.511   4.195  11.143 -0.2094 -2.7124 -0.5115
  784TIP3   OH223766   0.989   3.493  16.152 -0.3136 -0.1117  0.6150
  784TIP3    H123767   0.998   3.562  16.219  1.2559  0.4066 -0.0969
  784TIP3    H223768   1.061   3.509  16.092 -0.1424 -2.1823  0.2272
  785TIP3   OH223769   4.248   0.484  16.175 -0.2216 -0.0447  0.0789
  785TIP3    H123770   4.294   0.567  16.185  1.0604 -0.2167 -3.1727
  785TIP3    H223771   4.166   0.507  16.131 -0.7540 -0.3492  0.8782
  786TIP3   OH223772   1.418   3.772  13.197  0.6841  0.2165 -0.4298
  786TIP3    H123773   1.474   3.816  13.133 -0.5777  1.6034 -0.6290
  786TIP3    H223774   1.466   3.782  13.280  1.7703 -0.5859 -0.9251
  787TIP3   OH223775   3.475   2.160  14.258  0.6006  0.0925  0.3537
  787TIP3    H123776   3.457   2.067  14.251  0.4278  0.1607 -0.1086
  787TIP3    H223777   3.429   2.188  14.337  2.0567 -0.5564  1.4663
  788TIP3   OH223778   1.095   3.478  11.571  0.1079 -0.0024  0.2767
  788TIP3    H123779   1.167   3.450  11.515  0.3761 -0.4854  0.8551
  788TIP3    H223780   1.050   3.545  11.520 -0.2869 -1.1675 -0.9699
  789TIP3   OH223781   4.107   1.550  16.786  0.3737 -0.1448  0.2107
  789TIP3    H123782   4.115   1.465  16.828 -2.4109 -0.0275  1.2157
  789TIP3    H223783   4.118   1.533  16.693 -0.1604 -1.6442  0.3937
  790TIP3   OH223784   5.052   3.697   4.131 -0.3167  0.0694  0.2899
  790TIP3    H123785   4.973   3.654   4.096  0.5540 -0.4150 -1.1766
  790TIP3    H223786   5.064   3.773   4.074 -0.4526  0.8859  1.3359
  791TIP3   OH223787   6.181   5.119   4.321  0.4814  0.5474 -0.3884
  791TIP3    H123788   6.189   5.082   4.409  0.0559 -1.5185 -1.1807
  791TIP3    H223789   6.184   5.214   4.335  0.5099  0.2666  1.8327
  792TIP3   OH223790   0.775   5.844   4.742 -0.0506 -0.2648 -0.7589
  792TIP3    H123791   0.811   5.930   4.764 -3.4606  0.9518  0.7098
  792TIP3    H223792   0.829   5.783   4.792  0.2172  1.3890  1.1337
  793TIP3   OH223793   1.082   5.054   4.056 -0.6150  0.4264 -0.7975
  793TIP3    H123794   1.029   4.983   4.093  1.1987 -1.4786 -1.6120
  793TIP3    H223795   1.139   5.081   4.128 -1.6363  1.4462 -0.3458
  794TIP3   OH223796   2.328   5.770  10.250  0.2329  0.1962  0.6968
  794TIP3    H123797   2.275   5.843  10.282 -1.2182 -0.9358  1.0177
  794TIP3    H223798   2.417   5.791  10.278 -0.3357  1.2652  1.8266
  795TIP3   OH223799   5.700   0.144  11.855 -0.3032 -0.1250  0.4599
  795TIP3    H123800   5.655   0.173  11.776  0.9163 -0.6455 -0.4521
  795TIP3    H223801   5.644   0.074  11.890 -1.4189  0.8637  0.6982
  796TIP3   OH223802   1.783   6.487  11.486 -0.0504  0.1341  0.4318
  796TIP3    H123803   1.728   6.417  11.452  1.0300 -0.8654  0.6870
  796TIP3    H223804   1.721   6.554  11.517 -1.0799 -0.3618 -0.5005
  797TIP3   OH223805   1.216   2.772  10.602  0.0707  0.4572 -0.3727
  797TIP3    H123806   1.148   2.797  10.540  0.8231  0.1665 -1.3366
  797TIP3    H223807   1.203   2.831  10.677 -2.1025 -0.5177  0.0926
  798TIP3   OH223808   1.393   0.858  13.653 -0.2066  0.1853  0.0823
  798TIP3    H123809   1.387   0.783  13.594 -1.3118  0.8029 -0.6294
  798TIP3    H223810   1.303   0.891  13.658  0.3229  1.6764  0.0811
  799TIP3   OH223811   3.724   1.527  13.244 -0.3445 -0.0897  0.6475
  799TIP3    H123812   3.698   1.442  13.209 -3.4975  0.2334  1.8542
  799TIP3    H223813   3.819   1.531  13.230 -0.1735 -3.5006  0.0058
  800TIP3   OH223814   6.759   2.852  16.863  0.1669 -0.5592  0.1131
  800TIP3    H123815   6.728   2.777  16.915  0.6012 -1.2313 -0.5807
  800TIP3    H223816   6.813   2.813  16.795  0.6419  0.4184 -0.0853
  801TIP3   OH223817   5.675   0.531   5.517  0.1204 -0.1066 -0.3504
  801TIP3    H123818   5.589   0.570   5.501  0.6406  1.1182 -0.2940
  801TIP3    H223819   5.691   0.545   5.610  0.6377  0.2316 -0.4849
  802TIP3   OH223820   4.944   0.671   4.099 -0.1160  0.3309  0.8491
  802TIP3    H123821   4.923   0.762   4.118  0.6198  0.5274  0.7489
  802TIP3    H223822   4.921   0.624   4.179 -0.9904  0.5243  0.7128
  803TIP3   OH223823   4.936   2.480  10.705 -0.2118  0.1007 -0.2218
  803TIP3    H123824   4.931   2.558  10.651  1.5437 -0.1937 -0.8677
  803TIP3    H223825   5.020   2.441  10.683 -0.0139 -0.7215  1.7897
  804TIP3   OH223826   3.086   1.002  13.510  0.8468  0.0993 -0.3542
  804TIP3    H123827   3.092   0.997  13.605 -1.4816  0.0891 -0.1530
  804TIP3    H223828   3.070   1.095  13.492  1.0366  0.0598 -0.7428
  805TIP3   OH223829   4.261   2.906  11.391 -0.1052  0.4882  0.1641
  805TIP3    H123830   4.204   2.878  11.320  1.7970  0.9473 -1.6378
  805TIP3    H223831   4.315   2.829  11.410  1.9912  1.4188 -1.6216
  806TIP3   OH223832   2.796   0.277   5.586  0.3805  0.0021  0.5053
  806TIP3    H123833   2.784   0.256   5.679 -1.7646  1.6414  0.7039
  806TIP3    H223834   2.881   0.320   5.582  1.0034 -1.0801  1.5033
  807TIP3   OH223835   2.847   3.189   0.679  0.1625  0.2242 -0.2517
  807TIP3    H123836   2.886   3.128   0.616 -1.1517 -0.4231 -0.4776
  807TIP3    H223837   2.819   3.134   0.752 -1.1621  0.5163 -0.5123
  808TIP3   OH223838   2.019   2.102   2.538 -0.1077 -0.0166 -0.8511
  808TIP3    H123839   1.959   2.092   2.612 -0.8742  0.6555 -1.3665
  808TIP3    H223840   1.976   2.165   2.480  1.4961  1.2035 -0.8068
  809TIP3   OH223841   4.217   3.651  10.793 -0.2244 -0.2261  0.2571
  809TIP3    H123842   4.293   3.707  10.810 -0.9054  0.3355  1.5410
  809TIP3    H223843   4.211   3.594  10.869 -1.3692  0.0574  0.4022
  810TIP3   OH223844   0.599   1.404  15.310  0.0338 -0.9094  0.6057
  810TIP3    H123845   0.533   1.434  15.372  0.5387 -1.3034  1.3475
  810TIP3    H223846   0.552   1.397  15.227 -0.8492 -1.1264  1.1023
  811TIP3   OH223847   6.442   3.374   3.041  0.1320  0.0896 -0.1868
  811TIP3    H123848   6.435   3.425   2.960  1.2616  0.4885 -0.0464
  811TIP3    H223849   6.522   3.406   3.082 -0.4358 -0.1060  1.0991
  812TIP3   OH223850   6.199   6.748  15.254  0.0067  0.1045 -0.3033
  812TIP3    H123851   6.249   6.818  15.211 -0.0316 -1.0843 -2.4214
  812TIP3    H223852   6.109   6.781  15.256  0.1063  0.4094 -0.6420
  813TIP3   OH223853   5.082   1.638   4.719 -0.0534  0.3018  0.0313
  813TIP3    H123854   5.149   1.623   4.652 -0.3145 -1.4668  0.1070
  813TIP3    H223855   5.131   1.643   4.801  0.1469  1.0341 -0.1300
  814TIP3   OH223856   5.758   5.287  14.836  0.1045  0.0817  0.4832
  814TIP3    H123857   5.795   5.323  14.917  1.2057 -1.8305  0.8731
  814TIP3    H223858   5.834   5.268  14.782 -0.5288 -0.4847 -0.2180
  815TIP3   OH223859   0.221   4.307   3.237  0.0415 -0.4757  0.0637
  815TIP3    H123860   0.139   4.293   3.284 -0.0394  0.5828  0.2567
  815TIP3    H223861   0.214   4.396   3.202 -0.3676 -1.5416 -2.9128
  816TIP3   OH223862   1.934   1.102   2.629  0.2102 -0.4216  0.0123
  816TIP3    H123863   1.987   1.024   2.642  0.3410 -0.4337 -0.5833
  816TIP3    H223864   1.930   1.143   2.715  2.0765  0.1506 -0.1441
  817TIP3   OH223865   0.884   0.468   3.168 -0.1970  0.0169  0.7128
  817TIP3    H123866   0.937   0.450   3.246  0.5988  0.1896  0.2186
  817TIP3    H223867   0.930   0.540   3.125 -0.6985 -0.0054  0.1374
  818TIP3   OH223868   3.987   5.283   0.203  0.1262 -0.9291  0.1572
  818TIP3    H123869   3.948   5.260   0.118 -0.9128 -0.9677  0.6237
  818TIP3    H223870   3.934   5.236   0.267 -1.4912  1.9063  1.0898
  819TIP3   OH223871   4.694   4.718  15.645  0.2342  0.1388  0.2465
  819TIP3    H123872   4.768   4.779  15.647  0.1141  0.5068 -2.2946
  819TIP3    H223873   4.632   4.753  15.708 -0.2034  3.2915 -1.6875
  820TIP3   OH223874   2.938   0.192  15.909  0.0756 -0.1798 -0.2350
  820TIP3    H123875   2.875   0.133  15.868  0.2071 -0.3343 -0.2141
  820TIP3    H223876   2.958   0.256  15.841  0.7962 -0.8195 -0.6361
  821TIP3   OH223877   1.865   4.375   3.225 -0.0964 -0.5708 -0.1494
  821TIP3    H123878   1.916   4.382   3.144 -1.2146 -1.9374 -1.0097
  821TIP3    H223879   1.789   4.432   3.211  0.2721  0.0988  0.4400
  822TIP3   OH223880   5.994   4.759   4.081  0.0920 -0.3064  0.1630
  822TIP3    H123881   5.996   4.743   4.175  0.4171 -1.2659  0.0035
  822TIP3    H223882   6.055   4.695   4.044 -0.7824 -0.6130 -0.7966
  823TIP3   OH223883   1.155   2.511   2.375  0.5259  0.3587  0.1841
  823TIP3    H123884   1.246   2.517   2.404  1.5971  0.9285 -2.9995
  823TIP3    H223885   1.131   2.601   2.352 -0.1540 -0.0945 -0.9326
  824TIP3   OH223886   0.329   0.212   1.416 -0.1951  0.5267  0.0453
  824TIP3    H123887   0.287   0.259   1.344 -1.1980  1.1685  1.0247
  824TIP3    H223888   0.262   0.152   1.449  0.9983 -1.5497 -1.0653
  825TIP3   OH223889   5.721   4.805  14.892 -0.7562 -0.5765  0.1772
  825TIP3    H123890   5.747   4.851  14.812 -2.5414  1.0482  0.4795
  825TIP3    H223891   5.803   4.790  14.939 -0.0719  2.6665  0.2357
  826TIP3   OH223892   3.080   1.377   3.510  0.1250 -0.5991  0.8446
  826TIP3    H123893   3.098   1.457   3.460 -1.1756 -1.3968 -1.0441
  826TIP3    H223894   2.985   1.367   3.505  0.1807 -1.8238  1.7530
  827TIP3   OH223895   6.012   4.404   4.238  0.0782  0.2290 -0.3273
  827TIP3    H123896   6.036   4.382   4.148  1.4545  0.4569 -0.0364
  827TIP3    H223897   6.093   4.437   4.277 -0.2218 -0.9186  1.3404
  828TIP3   OH223898   4.373   6.711  15.870 -0.2570  0.0456 -0.1035
  828TIP3    H123899   4.304   6.729  15.935 -2.1249  0.4305 -2.0767
  828TIP3    H223900   4.445   6.676  15.921 -0.3636  3.2767  2.6486
  829TIP3   OH223901   1.415   4.680  10.467 -0.2369 -0.0621 -0.0398
  829TIP3    H123902   1.362   4.623  10.411  1.3702 -0.4249 -1.2835
  829TIP3    H223903   1.427   4.760  10.415  2.1148 -0.7916 -0.7297
  830TIP3   OH223904   1.949   4.273  11.400 -0.2692 -0.0310 -0.1014
  830TIP3    H123905   1.944   4.368  11.390 -0.5301 -0.2178 -2.3354
  830TIP3    H223906   1.886   4.252  11.469  0.5262  1.4782  1.1294
  831TIP3   OH223907   4.678   4.310  15.498 -0.5375  1.4551  0.4480
  831TIP3    H123908   4.612   4.379  15.507 -1.0311  0.8049  2.3355
  831TIP3    H223909   4.715   4.301  15.586 -0.9694 -1.1166  0.4509
  832TIP3   OH223910   6.379   4.280  11.647 -0.2729 -0.4497 -0.4088
  832TIP3    H123911   6.461   4.285  11.696  0.1179  0.5931 -1.1421
  832TIP3    H223912   6.311   4.285  11.713  0.2574 -0.2488  0.1268
  833TIP3   OH223913   0.317   0.219   6.199 -0.3198  0.2940  0.1397
  833TIP3    H123914   0.244   0.252   6.147 -1.2551 -1.1977  0.4195
  833TIP3    H223915   0.296   0.126   6.212  2.5457 -0.6912 -1.3570
  834TIP3   OH223916   4.185   4.764  12.729 -0.1758  0.4414  0.2272
  834TIP3    H123917   4.179   4.701  12.658 -0.3057 -0.3501  0.9161
  834TIP3    H223918   4.274   4.753  12.763 -0.4195  0.1327  0.7838
  835TIP3   OH223919   4.381   6.532  17.016  0.4245  0.2517 -0.0983
  835TIP3    H123920   4.448   6.570  17.072 -1.2663  3.4409 -0.0165
  835TIP3    H223921   4.377   6.589  16.940 -1.8694 -0.0914 -0.3099
  836TIP3   OH223922   4.551   6.623   2.033 -0.5222  0.0640 -0.5041
  836TIP3    H123923   4.530   6.715   2.018 -0.6902  0.0774 -0.1819
  836TIP3    H223924   4.591   6.595   1.951  0.5672  0.7184 -0.2193
  837TIP3   OH223925   0.369   1.893  16.124 -0.3556  0.0763 -0.0191
  837TIP3    H123926   0.424   1.825  16.087 -1.6525  0.2817 -2.5640
  837TIP3    H223927   0.373   1.879  16.219  1.5930 -1.7676 -0.3119
  838TIP3   OH223928   4.904   4.087  16.106 -0.1084  0.4681  0.2242
  838TIP3    H123929   4.885   4.180  16.103  0.6240  0.6440 -2.6490
  838TIP3    H223930   4.921   4.068  16.198 -1.6455  2.8340  1.0816
  839TIP3   OH223931   4.401   3.285   3.025  0.3231 -0.1892  0.0871
  839TIP3    H123932   4.326   3.233   3.053  0.3491 -1.3364 -1.8053
  839TIP3    H223933   4.363   3.362   2.983  0.2535  0.0383  0.5543
  840TIP3   OH223934   6.446   4.239  11.224 -0.3311  0.5347  0.3986
  840TIP3    H123935   6.436   4.293  11.303 -1.3659  0.4298  0.3533
  840TIP3    H223936   6.366   4.255  11.174 -1.1516 -1.7759  0.8416
  841TIP3   OH223937   5.194   2.677  13.688 -0.1587 -0.2739 -0.6294
  841TIP3    H123938   5.275   2.727  13.694 -0.4145 -0.0496  2.1912
  841TIP3    H223939   5.220   2.592  13.652  0.7202  0.8518 -2.8363
  842TIP3   OH223940   6.269   2.877  10.571 -0.7543 -0.2222 -0.2591
  842TIP3    H123941   6.298   2.967  10.555 -0.1008 -0.5215 -0.8140
  842TIP3    H223942   6.188   2.869  10.522 -0.4388 -0.1468 -0.8050
  843TIP3   OH223943   1.658   4.509  11.075  0.3435  0.3050  0.0336
  843TIP3    H123944   1.604   4.560  11.137 -0.5858  1.2661 -1.4965
  843TIP3    H223945   1.648   4.419  11.105 -0.5132  0.6785  0.9850
  844TIP3   OH223946   3.687   2.565  11.510  0.7738  0.4178 -0.3157
  844TIP3    H123947   3.746   2.575  11.435  1.4795  0.9419  0.2908
  844TIP3    H223948   3.641   2.649  11.514 -0.6007 -0.2493 -1.2423
  845TIP3   OH223949   1.140   0.693  14.900 -0.6174 -0.0038  0.1257
  845TIP3    H123950   1.211   0.686  14.836  0.0626  1.3717  0.7059
  845TIP3    H223951   1.184   0.709  14.983 -1.6079  1.7854  0.3455
  846TIP3   OH223952   4.669   1.422   0.615 -0.2471  0.5569 -0.1995
  846TIP3    H123953   4.691   1.407   0.523  3.4791 -1.6935  0.8325
  846TIP3    H223954   4.753   1.432   0.659 -1.8713  1.7234  3.0196
  847TIP3   OH223955   3.562   3.251  10.532 -0.7725  0.1513  0.4309
  847TIP3    H123956   3.622   3.274  10.461 -2.5690 -1.3007 -1.7286
  847TIP3    H223957   3.484   3.304  10.516 -1.6251 -0.9845  0.6103
  848TIP3   OH223958   0.508   2.974  13.549 -0.3253 -0.2480 -0.4115
  848TIP3    H123959   0.534   3.041  13.487  1.9124 -0.5400  0.1148
  848TIP3    H223960   0.590   2.944  13.588 -1.4574 -1.6464  1.0603
  849TIP3   OH223961   1.457   1.858  13.850 -0.1103 -0.3252  0.0329
  849TIP3    H123962   1.536   1.814  13.819 -0.2551 -0.6894  0.1757
  849TIP3    H223963   1.461   1.851  13.945 -0.9566 -1.4911 -0.0016
  850TIP3   OH223964   3.610   3.688  13.779  0.5494  0.4137 -0.2809
  850TIP3    H123965   3.594   3.670  13.687  0.0705  0.4593 -0.2119
  850TIP3    H223966   3.680   3.753  13.780  0.6948  0.2613 -0.6031
  851TIP3   OH223967   4.392   2.894  16.544  0.9782  0.3138  0.1595
  851TIP3    H123968   4.342   2.876  16.624  0.8540  0.8183  0.1979
  851TIP3    H223969   4.335   2.950  16.492  1.7763  1.4798  0.5149
  852TIP3   OH223970   3.419   4.104   2.669 -0.0110  0.0137  0.0421
  852TIP3    H123971   3.417   4.009   2.654 -1.6501  0.0693 -0.3308
  852TIP3    H223972   3.382   4.141   2.589 -0.6619  0.8819  0.7224
  853TIP3   OH223973   3.666   5.139  13.499 -0.5148  0.4533 -0.1526
  853TIP3    H123974   3.625   5.119  13.583 -0.8549  1.7471  0.0193
  853TIP3    H223975   3.720   5.063  13.480 -1.6623 -0.5504  0.4588
  854TIP3   OH223976   2.019   2.566   2.980 -0.1897  0.4570 -0.0591
  854TIP3    H123977   2.090   2.512   3.015  0.2458  0.1642 -1.3330
  854TIP3    H223978   1.957   2.574   3.052  1.5881  1.5653  1.4368
  855TIP3   OH223979   5.501   0.879  11.521  0.7451  0.2031 -0.0004
  855TIP3    H123980   5.459   0.958  11.485 -0.7108 -1.2232 -1.6775
  855TIP3    H223981   5.531   0.832  11.444 -0.0292 -1.7136  0.8124
  856TIP3   OH223982   6.743   3.263  13.760  0.3344  0.0095  0.2316
  856TIP3    H123983   6.829   3.278  13.798  0.4774  0.3330 -0.2148
  856TIP3    H223984   6.705   3.350  13.749  0.3463 -0.0643 -0.4798
  857TIP3   OH223985   0.582   5.282  16.447 -0.3904 -1.0199 -0.1789
  857TIP3    H123986   0.574   5.219  16.519 -0.3984 -1.4672 -0.5693
  857TIP3    H223987   0.646   5.243  16.388 -1.5169 -1.4168 -1.1924
  858TIP3   OH223988   6.563   0.494   5.369 -0.4153 -0.0164  0.1056
  858TIP3    H123989   6.596   0.578   5.337 -1.0976  0.4025  0.4757
  858TIP3    H223990   6.473   0.513   5.398 -1.1791 -1.2342 -1.3668
  859TIP3   OH223991   4.804   1.199   0.085 -0.0085  0.0025  0.2871
  859TIP3    H123992   4.755   1.236   0.011 -1.3330 -1.1245  0.5586
  859TIP3    H223993   4.829   1.275   0.137 -1.2188  0.6585 -0.0356
  860TIP3   OH223994   5.029   6.530  10.532 -0.2368 -0.2916  0.4462
  860TIP3    H123995   5.051   6.610  10.484 -1.1553  0.4462  1.2459
  860TIP3    H223996   5.035   6.461  10.465  0.7151  0.3992 -0.2190
  861TIP3   OH223997   6.544   1.868   4.105  0.0191  0.2011  0.2258
  861TIP3    H123998   6.546   1.906   4.193 -0.9668  0.0723  0.3147
  861TIP3    H223999   6.478   1.798   4.111 -0.1459  0.2723 -0.6489
  862TIP3   OH224000   1.248   3.592   2.570 -0.0685  0.2113 -0.0202
  862TIP3    H124001   1.190   3.619   2.641 -1.8909  0.9528 -1.7157
  862TIP3    H224002   1.217   3.505   2.545  0.5394 -0.0293  0.0272
  863TIP3   OH224003   5.887   0.902  14.543 -0.0558 -0.0240 -0.6683
  863TIP3    H124004   5.969   0.880  14.498  0.3484 -0.0977  0.0854
  863TIP3    H224005   5.868   0.825  14.597 -0.2231  0.2786 -0.2834
  864TIP3   OH224006   4.903   2.923  16.568 -0.0802  0.0611 -0.4148
  864TIP3    H124007   4.923   2.869  16.492 -1.0195 -1.0075  0.0570
  864TIP3    H224008   4.922   2.866  16.643 -0.0860  0.7572  0.1232
  865TIP3   OH224009   3.218   1.018   1.308  0.1038  0.4651 -0.4854
  865TIP3    H124010   3.189   0.927   1.314 -0.2106  0.1252 -4.4041
  865TIP3    H224011   3.311   1.015   1.333 -0.8749  0.0975  4.0147
  866TIP3   OH224012   5.155   1.440  14.761 -0.5760  0.3092 -0.5386
  866TIP3    H124013   5.196   1.439  14.675  0.1404 -0.7229 -0.2136
  866TIP3    H224014   5.210   1.500  14.812 -0.7855  0.6402 -0.7010
  867TIP3   OH224015   1.957   3.703   5.277  0.0477 -0.6843 -0.2942
  867TIP3    H124016   1.934   3.793   5.256  0.4418 -0.5360 -0.0945
  867TIP3    H224017   1.995   3.669   5.196 -0.9152 -0.9526 -0.6493
  868TIP3   OH224018   1.901   1.790  15.357  0.6176 -0.7899 -0.6985
  868TIP3    H124019   1.960   1.865  15.361  1.4691 -1.3566 -2.0302
  868TIP3    H224020   1.920   1.748  15.273 -1.2733 -1.3407 -0.9131
  869TIP3   OH224021   1.597   1.093  16.618  0.7840  0.5263  0.4333
  869TIP3    H124022   1.646   1.174  16.603  2.4866 -0.1562  2.0704
  869TIP3    H224023   1.519   1.121  16.667  1.0874  1.2339  0.5264
  870TIP3   OH224024   3.397   5.706   0.700 -0.1359 -0.1028  0.4471
  870TIP3    H124025   3.430   5.773   0.759  0.6531 -0.2864  0.2311
  870TIP3    H224026   3.306   5.693   0.726 -0.0796  0.5133  0.9727
  871TIP3   OH224027   2.482   3.168  13.477  0.5265  0.2670  0.1075
  871TIP3    H124028   2.456   3.127  13.394 -3.9952 -0.7108  1.6656
  871TIP3    H224029   2.553   3.113  13.509 -1.0436 -2.5828 -0.8894
  872TIP3   OH224030   6.429   0.630  12.508 -0.0462  0.2402 -0.7229
  872TIP3    H124031   6.364   0.561  12.496 -1.4392  1.7068 -2.2277
  872TIP3    H224032   6.503   0.586  12.549 -0.8996 -2.1148 -1.5097
  873TIP3   OH224033   4.095   5.825  13.286 -0.1360  0.1531 -0.1022
  873TIP3    H124034   4.124   5.908  13.249 -0.4946 -0.1227 -1.0427
  873TIP3    H224035   4.162   5.762  13.259  0.7048  0.3064  1.5217
  874TIP3   OH224036   2.384   3.455   5.860  0.5301  0.5004 -0.8930
  874TIP3    H124037   2.399   3.519   5.790 -0.3985  1.4738 -0.2353
  874TIP3    H224038   2.405   3.503   5.941 -1.1602  0.3502 -0.3132
  875TIP3   OH224039   5.418   1.241   3.582 -0.2168  0.1463 -0.0195
  875TIP3    H124040   5.367   1.277   3.656  0.0041  2.2659 -0.8205
  875TIP3    H224041   5.380   1.155   3.567 -0.6758 -0.0958  2.1771
  876TIP3   OH224042   4.375   6.673   2.672 -0.0229  0.2599 -0.1553
  876TIP3    H124043   4.466   6.649   2.689 -1.1938 -3.5708  1.8766
  876TIP3    H224044   4.337   6.685   2.759 -1.6853  0.9160 -0.9320
  877TIP3   OH224045   4.285   0.556   0.063  0.2618  0.4501 -0.2745
  877TIP3    H124046   4.323   0.472   0.087 -0.3868 -0.8107 -3.2428
  877TIP3    H224047   4.193   0.537   0.046  0.1197  1.7167 -1.0600
  878TIP3   OH224048   5.326   0.636   0.983  0.5864  0.1616  0.1516
  878TIP3    H124049   5.309   0.618   1.075  0.2322  0.7567  0.2088
  878TIP3    H224050   5.239   0.643   0.944  0.7334  0.1666 -0.1771
  879TIP3   OH224051   1.570   1.528  11.354 -0.1552  0.1777 -0.2527
  879TIP3    H124052   1.606   1.461  11.411  3.9135  1.4921 -0.9247
  879TIP3    H224053   1.581   1.610  11.402 -0.0726  0.9150 -1.4659
  880TIP3   OH224054   3.875   5.228  11.517  0.4369  0.2518 -0.2079
  880TIP3    H124055   3.889   5.307  11.569  1.1446 -0.0566  0.0816
  880TIP3    H224056   3.906   5.251  11.429 -1.9473  1.1991 -0.8752
  881TIP3   OH224057   1.926   6.047   5.668 -0.6436 -0.0989  0.5352
  881TIP3    H124058   2.009   6.093   5.657 -0.4527 -0.6422 -0.3638
  881TIP3    H224059   1.921   6.030   5.762  0.6195 -0.7141  0.5134
  882TIP3   OH224060   1.641   3.311   4.042  1.0128  0.4372 -0.2230
  882TIP3    H124061   1.674   3.274   4.123  1.5251  0.6333 -0.3412
  882TIP3    H224062   1.654   3.406   4.051  1.0788  0.4605 -0.5326
  883TIP3   OH224063   3.995   4.947  11.985  0.1635  0.2096  0.2516
  883TIP3    H124064   3.991   4.860  12.025  0.2680 -0.1733 -0.5556
  883TIP3    H224065   4.082   4.952  11.946 -0.3467  0.1204 -0.9326
  884TIP3   OH224066   4.775   3.166  16.472 -0.0866 -0.0770  0.3996
  884TIP3    H124067   4.702   3.122  16.427  1.2081 -0.1993 -1.6991
  884TIP3    H224068   4.824   3.095  16.513 -0.2592 -0.1507  0.4809
  885TIP3   OH224069   3.622   2.975   2.279  0.0365 -0.1379  0.5125
  885TIP3    H124070   3.645   2.905   2.341  0.0724 -0.3029  0.3156
  885TIP3    H224071   3.701   2.988   2.227  0.3742  0.7946  1.2460
  886TIP3   OH224072   6.062   3.202  13.202 -0.4464 -0.1426 -0.5197
  886TIP3    H124073   5.974   3.220  13.235 -0.3004  0.3421 -0.3871
  886TIP3    H224074   6.111   3.173  13.279 -0.7902 -1.5416 -0.8075
  887TIP3   OH224075   0.563   3.610  10.397  0.5362  0.0254  0.5248
  887TIP3    H124076   0.531   3.643  10.313  2.6097 -0.9636 -0.7454
  887TIP3    H224077   0.484   3.581  10.443 -0.6425  0.3126 -1.2064
  888TIP3   OH224078   2.973   3.397  11.413  0.0243 -0.0673 -0.1584
  888TIP3    H124079   2.982   3.330  11.481 -1.1753 -1.0379 -0.9149
  888TIP3    H224080   3.054   3.390  11.362 -0.6134 -1.8748 -1.0108
  889TIP3   OH224081   2.913   5.726  16.855 -0.3826  0.6798  0.1341
  889TIP3    H124082   2.853   5.779  16.803  0.0550  0.3327 -0.7403
  889TIP3    H224083   2.999   5.767  16.841 -0.4005  1.2214  1.4351
  890TIP3   OH224084   5.185   3.924  12.808 -0.0787 -0.2961 -0.0121
  890TIP3    H124085   5.132   3.983  12.862  0.8093  0.8341 -0.3330
  890TIP3    H224086   5.130   3.907  12.731 -0.7251 -0.6743  0.5207
  891TIP3   OH224087   1.003   6.613  16.297 -0.0224  0.6532 -0.0227
  891TIP3    H124088   1.021   6.597  16.204 -1.6747  0.0196 -0.2681
  891TIP3    H224089   0.999   6.526  16.336 -0.9303  0.8423  0.3167
  892TIP3   OH224090   1.887   4.519  11.272 -0.1714  0.5833 -0.2274
  892TIP3    H124091   1.962   4.576  11.256  1.2291 -0.7243  1.2691
  892TIP3    H224092   1.872   4.474  11.189  2.9823 -1.6360  0.2175
  893TIP3   OH224093   2.223   3.888  15.638 -0.2359 -0.6873  0.4116
  893TIP3    H124094   2.231   3.899  15.733  1.1512  0.5505  0.1785
  893TIP3    H224095   2.142   3.933  15.615  1.3784  2.6008  0.5530
  894TIP3   OH224096   2.585   6.307  11.952  0.2681 -0.5094 -0.3131
  894TIP3    H124097   2.606   6.214  11.953 -1.1859 -0.9428 -2.7837
  894TIP3    H224098   2.490   6.311  11.941  0.0846  1.3114  1.2729
  895TIP3   OH224099   2.520   3.002   1.799  0.1770  0.1090 -0.4868
  895TIP3    H124100   2.592   3.064   1.807  0.8433 -0.8149  1.1123
  895TIP3    H224101   2.532   2.942   1.872 -3.6888  1.4183  1.5413
  896TIP3   OH224102   6.200   4.740  13.275  0.2056  0.5723 -0.5115
  896TIP3    H124103   6.191   4.832  13.248  0.0694  0.5482 -0.5473
  896TIP3    H224104   6.152   4.691  13.208  2.1789  0.2870 -1.7932
  897TIP3   OH224105   4.803   0.658   1.622  0.6165 -0.5391 -0.0985
  897TIP3    H124106   4.814   0.747   1.656  1.4386 -0.7437  0.2073
  897TIP3    H224107   4.876   0.648   1.560 -0.0932 -0.6326 -0.9441
  898TIP3   OH224108   1.411   0.793   5.092 -0.6090 -0.8272  0.9221
  898TIP3    H124109   1.494   0.821   5.129 -1.1687 -0.0436  1.6370
  898TIP3    H224110   1.419   0.812   4.998 -0.3936  0.3366  1.1522
  899TIP3   OH224111   1.181   0.608   0.617 -0.5847 -0.2319  0.5665
  899TIP3    H124112   1.191   0.700   0.591 -0.9197  0.2527  2.0100
  899TIP3    H224113   1.087   0.600   0.637 -0.4173 -0.6726  1.1751
  900TIP3   OH224114   3.928   2.736   0.707  0.0710 -0.6036  0.4807
  900TIP3    H124115   3.986   2.812   0.703  0.7424 -1.1070  0.3817
  900TIP3    H224116   3.970   2.672   0.649 -1.7098 -0.2389 -1.3099
  901TIP3   OH224117   3.618   6.275   0.034  0.4890 -0.2301 -0.9631
  901TIP3    H124118   3.580   6.199   0.080 -0.5332 -0.2465 -1.7965
  901TIP3    H224119   3.703   6.244   0.003  2.2187  0.4055  2.6356
  902TIP3   OH224120   3.696   0.205   4.981  0.3396 -0.3331  0.1442
  902TIP3    H124121   3.648   0.284   4.958  1.3117  0.4334  0.6573
  902TIP3    H224122   3.653   0.171   5.060  0.1828 -0.0789  0.1656
  903TIP3   OH224123   6.382   4.064  12.319  0.0983 -0.0042  0.3465
  903TIP3    H124124   6.378   4.159  12.304 -1.1036 -0.1542 -0.4418
  903TIP3    H224125   6.428   4.055  12.402 -0.4549  1.3185  0.8251
  904TIP3   OH224126   2.367   1.359  14.020  0.2228 -0.2559 -0.4800
  904TIP3    H124127   2.290   1.341  13.966 -1.7975  1.9749  1.4516
  904TIP3    H224128   2.433   1.390  13.958 -0.8729 -0.8618 -2.0142
  905TIP3   OH224129   1.195   3.320   5.277 -0.1848 -0.1200 -0.2440
  905TIP3    H124130   1.193   3.367   5.361  0.8248  0.2260 -0.3986
  905TIP3    H224131   1.246   3.377   5.219  0.9234 -1.3045 -0.4874
  906TIP3   OH224132   6.072   0.133  14.751  0.2937 -0.4229  0.1726
  906TIP3    H124133   6.027   0.216  14.737  1.5303  0.2113 -0.1686
  906TIP3    H224134   6.113   0.142  14.837  1.8820  0.0442 -0.5930
  907TIP3   OH224135   4.419   2.893  16.165 -0.4252 -0.0310  0.1761
  907TIP3    H124136   4.388   2.840  16.091  0.3759 -1.8348  1.0616
  907TIP3    H224137   4.415   2.834  16.240  1.0156  1.0159  1.1263
  908TIP3   OH224138   1.762   6.039   6.636  0.4037 -0.4919 -0.5099
  908TIP3    H124139   1.804   5.984   6.702  0.6189 -0.2796 -0.4694
  908TIP3    H224140   1.819   6.116   6.629  0.6264 -0.7134 -1.2526
  909TIP3   OH224141   2.559   2.773   5.048 -0.5126 -0.1992  0.3570
  909TIP3    H124142   2.625   2.738   5.109  1.9049  0.6966 -1.5568
  909TIP3    H224143   2.572   2.868   5.050  1.6711 -0.1846 -3.3698
  910TIP3   OH224144   6.527   5.211   6.559  0.1662  0.0970  0.2681
  910TIP3    H124145   6.595   5.271   6.592 -0.0586  0.2217  0.5112
  910TIP3    H224146   6.462   5.208   6.630  0.1626 -0.4128  0.2409
  911TIP3   OH224147   0.597   2.201   3.254 -0.0516  0.4567  0.1344
  911TIP3    H124148   0.557   2.185   3.169  0.9903 -0.5351 -0.2054
  911TIP3    H224149   0.534   2.256   3.301 -2.3170 -1.9049  0.0683
  912TIP3   OH224150   0.256   4.482  10.563  0.5973 -0.1081  0.2344
  912TIP3    H124151   0.269   4.555  10.623 -0.3818  1.7568 -1.6768
  912TIP3    H224152   0.291   4.513  10.479  0.4461 -1.9703 -0.5724
  913TIP3   OH224153   5.818   1.555   0.141 -0.2193  0.1166  0.2541
  913TIP3    H124154   5.812   1.618   0.070 -0.8523 -0.9220 -0.6302
  913TIP3    H224155   5.904   1.572   0.181 -0.0700  1.0260 -0.4322
  914TIP3   OH224156   2.981   5.696   4.251  0.0403  0.0204 -0.6449
  914TIP3    H124157   3.067   5.735   4.270  0.0420 -0.4507  0.3947
  914TIP3    H224158   2.982   5.681   4.157  0.3664  1.7358 -0.9400
  915TIP3   OH224159   0.954   4.974  16.382  0.1141  0.0236  0.4067
  915TIP3    H124160   0.868   4.964  16.422 -0.3238  2.7442  0.3727
  915TIP3    H224161   0.945   5.050  16.324  2.2870 -0.2248 -0.3690
  916TIP3   OH224162   1.832   5.786   6.722 -0.0589  0.1035  0.7769
  916TIP3    H124163   1.768   5.721   6.750 -0.0237  0.5543  1.9542
  916TIP3    H224164   1.906   5.735   6.689 -0.4985 -0.4332  0.6145
  917TIP3   OH224165   5.397   5.772  14.249 -0.0351 -0.0108  0.2356
  917TIP3    H124166   5.477   5.747  14.295  0.7152  1.7949  0.0052
  917TIP3    H224167   5.427   5.829  14.178 -1.5666  1.8286  0.9531
  918TIP3   OH224168   3.323   0.105  12.045 -0.2421 -0.3881  0.2260
  918TIP3    H124169   3.308   0.064  11.961 -0.1859 -1.6642  0.8222
  918TIP3    H224170   3.418   0.104  12.056  0.0367  2.3862 -0.9278
  919TIP3   OH224171   2.371   6.006  10.919  0.2915 -0.6369 -0.0134
  919TIP3    H124172   2.296   5.959  10.954 -0.2288  0.8560  0.9897
  919TIP3    H224173   2.406   6.055  10.993  1.7352 -0.6246 -0.6671
  920TIP3   OH224174   5.395   2.774   2.257  0.8183  0.1820  0.4286
  920TIP3    H124175   5.434   2.737   2.336  3.3616 -0.7485 -1.1224
  920TIP3    H224176   5.358   2.698   2.211  0.3416  0.5396  0.2171
  921TIP3   OH224177   5.339   3.132   3.392  0.3803 -0.3785  0.2293
  921TIP3    H124178   5.295   3.055   3.430  1.7033 -0.9024  0.7737
  921TIP3    H224179   5.324   3.124   3.298  2.2799 -2.5674  0.0118
  922TIP3   OH224180   4.050   0.616   3.008 -0.1108 -0.4594  0.0071
  922TIP3    H124181   4.018   0.535   3.048  0.5134  0.1813  1.9295
  922TIP3    H224182   4.070   0.592   2.918  1.9909 -3.0287  1.0218
  923TIP3   OH224183   2.231   0.904   0.740 -0.1122  0.3870 -0.1069
  923TIP3    H124184   2.178   0.979   0.766 -0.1660 -0.2921  1.8472
  923TIP3    H224185   2.226   0.904   0.644  0.2896  3.1337 -0.2098
  924TIP3   OH224186   6.481   1.762  11.366  0.1589 -0.1610 -0.0062
  924TIP3    H124187   6.458   1.697  11.299 -0.6105 -1.0092  1.0406
  924TIP3    H224188   6.506   1.840  11.316 -0.2899 -0.7973 -1.2791
  925TIP3   OH224189   0.250   3.118   4.707 -0.3873  0.2612 -0.0622
  925TIP3    H124190   0.229   3.026   4.696 -0.2816  0.0731  1.2027
  925TIP3    H224191   0.183   3.151   4.767  1.1110  0.3590  1.6466
  926TIP3   OH224192   0.523   3.280   3.848 -0.6479 -0.0834 -0.3703
  926TIP3    H124193   0.564   3.300   3.764 -0.7742 -2.0996 -0.9560
  926TIP3    H224194   0.431   3.268   3.827 -0.8263  0.2603  0.2148
  927TIP3   OH224195   3.191   0.980  15.598 -0.7989 -0.2761 -0.1669
  927TIP3    H124196   3.239   0.929  15.533 -0.2577  0.0980 -0.0720
  927TIP3    H224197   3.181   0.921  15.673  0.6552  0.0463  0.3056
  928TIP3   OH224198   0.444   1.460   3.309  0.1525  0.2118  0.7292
  928TIP3    H124199   0.384   1.523   3.270 -2.2181 -1.5249  1.3911
  928TIP3    H224200   0.469   1.500   3.393 -1.2063  0.3601  1.0799
  929TIP3   OH224201   1.310   0.195  11.680  0.7963  0.1316  0.2349
  929TIP3    H124202   1.340   0.107  11.701  1.0314  0.4726  1.4242
  929TIP3    H224203   1.247   0.183  11.609 -0.2368 -1.1304  1.3183
  930TIP3   OH224204   1.981   4.764   4.605 -0.9062  0.0489  0.3203
  930TIP3    H124205   2.030   4.734   4.681 -2.7585 -1.7768  0.8994
  930TIP3    H224206   1.949   4.851   4.629  0.6682  0.6051  0.5238
  931TIP3   OH224207   4.189   6.642   3.962 -0.5453  0.0927  0.2188
  931TIP3    H124208   4.094   6.650   3.946 -1.2062 -1.5490  2.7382
  931TIP3    H224209   4.224   6.727   3.937 -2.8559  1.1287  0.1797
  932TIP3   OH224210   2.503   1.515  13.799  0.2476 -0.0548  0.1974
  932TIP3    H124211   2.493   1.595  13.850  1.2894  1.4639 -1.8478
  932TIP3    H224212   2.598   1.504  13.790  0.1049 -1.0546 -0.2798
  933TIP3   OH224213   2.128   6.091   3.410  0.0235 -0.4201 -0.1505
  933TIP3    H124214   2.175   6.174   3.420  1.1276 -0.8995 -1.0782
  933TIP3    H224215   2.094   6.094   3.320 -0.6905 -0.6054  0.1071
  934TIP3   OH224216   0.609   4.661  15.455  0.0849  0.2985  0.4433
  934TIP3    H124217   0.624   4.711  15.535 -2.1785 -0.2716  1.2900
  934TIP3    H224218   0.567   4.723  15.396 -2.2253 -0.3499  1.3021
  935TIP3   OH224219   4.913   0.094   4.756  0.5825  0.0169  0.5631
  935TIP3    H124220   4.843   0.152   4.786  1.2694  0.9114  0.4737
  935TIP3    H224221   4.968   0.082   4.834  0.0784 -1.0938  0.7732
  936TIP3   OH224222   0.582   3.364  15.972 -0.2767 -0.8299 -0.1703
  936TIP3    H124223   0.565   3.387  16.063  0.3492 -2.2773  0.3528
  936TIP3    H224224   0.626   3.440  15.935 -0.4336 -0.2704  0.7715
  937TIP3   OH224225   0.327   6.775   2.293 -0.3008  0.4210 -0.0667
  937TIP3    H124226   0.339   6.745   2.383 -1.3387 -0.4800 -0.2052
  937TIP3    H224227   0.395   6.730   2.244 -0.5948 -0.1805  0.0601
  938TIP3   OH224228   2.532   0.796   3.374  0.3811  0.1828  0.5125
  938TIP3    H124229   2.504   0.887   3.388 -2.7891 -0.4288 -1.0317
  938TIP3    H224230   2.504   0.750   3.454  0.7781  0.3018  0.7240
  939TIP3   OH224231   1.311   5.592  17.013 -0.1971  0.2295  0.0365
  939TIP3    H124232   1.350   5.659  16.957  2.1080 -1.5839 -0.6698
  939TIP3    H224233   1.300   5.516  16.957  0.3738 -1.0311  1.5477
  940TIP3   OH224234   1.457   0.927  15.477 -0.6545 -0.2612 -0.1029
  940TIP3    H124235   1.379   0.901  15.528 -0.9009 -0.7376 -0.7049
  940TIP3    H224236   1.452   1.022  15.474 -0.8398 -0.2461  0.4490
  941TIP3   OH224237   2.480   2.487   4.517  0.0497 -0.1744 -0.4567
  941TIP3    H124238   2.398   2.492   4.468  0.0483  0.7773 -0.3724
  941TIP3    H224239   2.538   2.434   4.461  0.0434  0.8660 -1.5001
  942TIP3   OH224240   1.064   3.519  14.975 -0.0893 -0.1806  0.2928
  942TIP3    H124241   0.983   3.468  14.975  0.6868 -1.4929 -0.0916
  942TIP3    H224242   1.077   3.543  14.883 -0.8740  1.4686  0.5876
  943TIP3   OH224243   4.353   0.193  15.929 -0.4844 -0.4038  0.0492
  943TIP3    H124244   4.410   0.178  15.853  0.3891  0.8789  0.4201
  943TIP3    H224245   4.350   0.109  15.974  3.2632  0.0574  1.4532
  944TIP3   OH224246   2.032   1.877   0.420 -0.7801  0.7087  0.2152
  944TIP3    H124247   2.027   1.784   0.397  0.4262  0.8557 -0.7682
  944TIP3    H224248   1.942   1.903   0.437 -1.1807 -0.5336  0.0507
  945TIP3   OH224249   4.511   1.354  15.161  0.3636 -0.1742  0.0373
  945TIP3    H124250   4.474   1.273  15.126  1.1058 -0.8201  0.7070
  945TIP3    H224251   4.480   1.423  15.102 -1.6525 -0.7117  0.3804
  946TIP3   OH224252   5.927   6.295  12.728  0.0450  0.2603  0.4846
  946TIP3    H124253   5.875   6.327  12.802  0.5102 -0.5446  1.1789
  946TIP3    H224254   6.016   6.290  12.761  0.1793 -0.5756  0.0285
  947TIP3   OH224255   4.742   0.717   3.278  0.3331 -0.5824 -0.0114
  947TIP3    H124256   4.688   0.757   3.346 -0.0166  1.2949 -1.3129
  947TIP3    H224257   4.829   0.754   3.292  0.3487 -0.4915 -0.3383
  948TIP3   OH224258   4.476   0.384  10.727  0.0361  0.0541 -0.0668
  948TIP3    H124259   4.477   0.289  10.728 -1.0801  0.0259 -0.0010
  948TIP3    H224260   4.401   0.407  10.672 -0.5372  0.8690  0.9983
  949TIP3   OH224261   4.141   2.309   1.859 -0.1715  0.8047  0.0495
  949TIP3    H124262   4.208   2.247   1.890  0.5702  1.1168 -0.9023
  949TIP3    H224263   4.107   2.269   1.779 -0.1476  1.3188 -0.2168
  950TIP3   OH224264   2.441   2.114  11.626 -0.0134  0.2687  0.4180
  950TIP3    H124265   2.401   2.030  11.606 -1.8031  1.0591  0.4612
  950TIP3    H224266   2.500   2.131  11.553  0.8525 -1.2813  0.7135
  951TIP3   OH224267   2.813   2.891  11.314 -0.1221 -0.1998  0.3516
  951TIP3    H124268   2.867   2.818  11.283  0.9512  0.1743  1.2843
  951TIP3    H224269   2.867   2.968  11.300 -1.9265  0.7442 -2.3881
  952TIP3   OH224270   0.353   0.238   2.365  0.1297 -0.3756  0.2579
  952TIP3    H124271   0.398   0.157   2.339  0.5110 -0.2096  0.3836
  952TIP3    H224272   0.390   0.258   2.451  0.9959  0.6209 -0.3160
  953TIP3   OH224273   0.970   2.323   0.652 -0.1792  0.0295 -0.1645
  953TIP3    H124274   1.010   2.317   0.739 -1.7737 -0.8746  0.5509
  953TIP3    H224275   0.987   2.238   0.612 -1.2499 -0.3185  0.0995
  954TIP3   OH224276   5.320   2.058  17.015 -0.0652 -0.3572 -0.2362
  954TIP3    H124277   5.323   2.140  17.064 -0.0843 -0.1484 -0.5843
  954TIP3    H224278   5.226   2.040  17.006 -0.0561 -0.7220  0.3451
  955TIP3   OH224279   3.371   0.073  13.844 -0.5216 -0.1851 -0.2073
  955TIP3    H124280   3.393   0.137  13.777 -0.2267  1.9626  1.7933
  955TIP3    H224281   3.379  -0.011  13.801  1.1495  1.0116 -2.4391
  956TIP3   OH224282   2.087   0.839  13.296 -0.0434  0.6700 -0.8050
  956TIP3    H124283   2.054   0.782  13.365 -1.6500  0.0217 -2.0370
  956TIP3    H224284   2.179   0.854  13.318 -0.2893 -0.2374  0.9695
  957TIP3   OH224285   4.905   1.132   3.604 -0.0471 -0.0034  0.3137
  957TIP3    H124286   5.000   1.132   3.606 -0.0360  0.0801 -0.0681
  957TIP3    H224287   4.882   1.206   3.547 -0.3928  1.5121  2.3231
  958TIP3   OH224288   2.837   0.034  10.743 -0.6397  0.1617  0.3217
  958TIP3    H124289   2.851  -0.060  10.746  1.5286  0.2933 -2.1386
  958TIP3    H224290   2.746   0.043  10.715 -1.4027 -1.0940  2.1806
  959TIP3   OH224291   4.089   0.466  14.204 -0.9757  0.4946 -0.4173
  959TIP3    H124292   4.169   0.491  14.158  0.1944 -1.4715  0.4528
  959TIP3    H224293   4.053   0.549  14.235  1.8958  1.3400  1.0394
  960TIP3   OH224294   6.205   0.664  15.373  0.0999  0.4687 -0.2811
  960TIP3    H124295   6.195   0.574  15.341  2.9775  0.0221 -0.2054
  960TIP3    H224296   6.139   0.672  15.442 -0.2360 -1.6096 -0.2819
  961TIP3   OH224297   4.458   2.643  16.482 -0.0781  0.2141  0.3113
  961TIP3    H124298   4.455   2.736  16.506 -1.2647 -0.1631  1.8342
  961TIP3    H224299   4.407   2.637  16.401 -0.8003  0.7675  0.7162
  962TIP3   OH224300   3.724   4.867   2.487 -0.2441 -0.3456 -0.0708
  962TIP3    H124301   3.779   4.848   2.411 -0.6921 -0.4627 -0.3695
  962TIP3    H224302   3.636   4.843   2.460 -0.4412 -0.1974  0.4188
  963TIP3   OH224303   5.874   1.938   5.336  0.4214 -0.4288  0.5865
  963TIP3    H124304   5.960   1.950   5.297  0.6749  0.8721  1.4877
  963TIP3    H224305   5.892   1.922   5.429 -0.3200  0.3882  0.8802
  964TIP3   OH224306   0.224   2.532  11.520 -0.0102 -0.3415  0.2349
  964TIP3    H124307   0.243   2.499  11.607  1.0698 -1.7113 -0.4858
  964TIP3    H224308   0.306   2.573  11.491 -0.5130  0.5637  0.0427
  965TIP3   OH224309   6.375   5.363   4.131  0.7134  0.1617  0.4096
  965TIP3    H124310   6.329   5.401   4.207 -0.7991 -2.1543  0.7619
  965TIP3    H224311   6.362   5.427   4.061 -0.5329  0.9504  1.3104
  966TIP3   OH224312   0.922   3.570  13.267 -0.0920 -0.0081 -0.3237
  966TIP3    H124313   1.005   3.546  13.309 -1.4041 -0.4910  2.2339
  966TIP3    H224314   0.945   3.588  13.176  2.5447 -1.7593 -0.1235
  967TIP3   OH224315   5.090   3.226   4.013 -0.3191  0.1253  0.1035
  967TIP3    H124316   5.122   3.300   3.961  0.3590 -0.7841 -0.7963
  967TIP3    H224317   5.001   3.252   4.038 -0.7151  0.5323 -1.6267
  968TIP3   OH224318   5.526   1.312  14.739 -0.3177  0.1680  0.0009
  968TIP3    H124319   5.535   1.385  14.678  0.0930  1.4270  1.4775
  968TIP3    H224320   5.475   1.348  14.811 -0.9526 -1.3210  0.3236
  969TIP3   OH224321   6.617   5.487   5.897 -0.5261  0.2033 -0.5232
  969TIP3    H124322   6.587   5.509   5.985 -3.0365 -1.2628 -0.9155
  969TIP3    H224323   6.685   5.420   5.912 -1.6726 -0.8254  0.3192
  970TIP3   OH224324   4.953   1.432   0.735 -0.0855  0.8366 -0.7091
  970TIP3    H124325   4.917   1.446   0.823 -1.3994  0.4257 -1.1645
  970TIP3    H224326   5.042   1.468   0.740 -0.7829  2.5588  0.2498
  971TIP3   OH224327   2.150   6.377  13.408 -0.2787 -0.1897  0.0636
  971TIP3    H124328   2.177   6.288  13.429 -0.0960 -0.1766 -0.1101
  971TIP3    H224329   2.056   6.379  13.426 -0.2823 -0.4174  0.0689
  972TIP3   OH224330   6.805   4.412   5.262 -0.9162 -0.4573 -0.3392
  972TIP3    H124331   6.843   4.432   5.176  0.4729 -1.2603  0.0542
  972TIP3    H224332   6.718   4.453   5.260  0.0569  1.7004 -1.1765
  973TIP3   OH224333   4.055   6.482  15.905 -0.3616 -0.0420  0.3636
  973TIP3    H124334   4.141   6.475  15.946 -1.0197  3.4952  2.8537
  973TIP3    H224335   3.994   6.451  15.972 -1.1602 -0.3149 -0.4659
  974TIP3   OH224336   6.199   4.703   3.735 -0.0024 -0.4730 -0.5826
  974TIP3    H124337   6.148   4.622   3.739 -0.0267 -0.4800 -1.0165
  974TIP3    H224338   6.133   4.771   3.723 -0.2993 -0.0288  2.5895
  975TIP3   OH224339   1.650   2.475  16.097 -0.0973 -0.1729  0.1141
  975TIP3    H124340   1.732   2.504  16.137 -0.5521 -0.9957  1.7173
  975TIP3    H224341   1.677   2.407  16.035  0.8576  2.6311 -2.8413
  976TIP3   OH224342   3.246   6.780   4.820 -0.2174 -0.1820  0.9623
  976TIP3    H124343   3.304   6.754   4.748 -3.0318 -0.3683 -1.4344
  976TIP3    H224344   3.193   6.702   4.838 -2.3115  1.0044  0.3028
  977TIP3   OH224345   1.011   2.594   0.582  0.4047 -0.1945 -0.1382
  977TIP3    H124346   0.932   2.640   0.610  1.2493  1.7195 -0.7323
  977TIP3    H224347   0.995   2.502   0.607 -1.6347  0.2657  0.4796
  978TIP3   OH224348   4.767   3.049   4.177 -0.6919  0.7814 -0.1937
  978TIP3    H124349   4.783   3.008   4.092 -0.1084 -1.9468  1.1055
  978TIP3    H224350   4.817   3.131   4.174  0.3507  0.1468 -2.0182
  979TIP3   OH224351   0.589   6.541   1.658 -0.4639 -0.6750  0.2953
  979TIP3    H124352   0.685   6.538   1.661 -0.4696 -0.2759  1.9774
  979TIP3    H224353   0.561   6.472   1.718 -1.1748  0.3257  1.1658
  980TIP3   OH224354   6.029   2.797  12.327 -0.0275  0.0419  0.0479
  980TIP3    H124355   6.053   2.704  12.330 -1.7925 -0.4219  0.8160
  980TIP3    H224356   6.113   2.842  12.320  0.8880 -1.5944 -0.2093
  981TIP3   OH224357   2.765   4.990  16.836 -0.1027  0.9360 -1.2121
  981TIP3    H124358   2.788   5.072  16.793  0.0091  0.3231 -2.3458
  981TIP3    H224359   2.774   4.923  16.768 -1.3769  0.1443 -0.6428
  982TIP3   OH224360   4.077   0.173   2.193 -0.3169  0.3011 -0.6031
  982TIP3    H124361   4.172   0.171   2.207 -0.2087  0.7712 -1.1990
  982TIP3    H224362   4.051   0.262   2.213 -0.6090  0.2179 -0.6023
  983TIP3   OH224363   5.290   3.104   2.756 -1.0689 -0.4186  0.1109
  983TIP3    H124364   5.306   3.075   2.666 -0.7681 -0.7788  0.2729
  983TIP3    H224365   5.302   3.025   2.809 -0.9162 -0.1403  0.4997
  984TIP3   OH224366   6.784   6.290   0.575 -0.6408 -0.2248 -0.2093
  984TIP3    H124367   6.817   6.202   0.558  1.9634  0.6239  0.0440
  984TIP3    H224368   6.731   6.311   0.498 -3.6794 -2.9563  0.9076
  985TIP3   OH224369   6.668   1.135   4.847 -0.4668 -0.6532  0.0145
  985TIP3    H124370   6.632   1.162   4.931 -0.6611 -0.7806 -0.0275
  985TIP3    H224371   6.710   1.213   4.812  1.0605 -0.9902  0.9803
  986TIP3   OH224372   6.563   1.405  16.392  0.0789 -0.0608  0.4317
  986TIP3    H124373   6.489   1.348  16.372 -0.1656  0.3450  0.1711
  986TIP3    H224374   6.524   1.490  16.409  0.4629  0.0868  0.5879
  987TIP3   OH224375   6.326   1.926  15.330 -0.2141 -0.1396 -0.1721
  987TIP3    H124376   6.233   1.946  15.336  0.3861  2.8602  0.4600
  987TIP3    H224377   6.358   1.981  15.259  1.6134  1.4223  1.7472
  988TIP3   OH224378   0.954   5.868  15.614 -0.1288  0.4553  0.6123
  988TIP3    H124379   1.024   5.879  15.550  0.1400 -0.3190  0.7588
  988TIP3    H224380   0.999   5.851  15.696 -0.4780 -0.3242  0.6555
  989TIP3   OH224381   0.337   0.114  15.898 -0.0095  0.4306  0.0237
  989TIP3    H124382   0.283   0.050  15.852 -1.4870  1.2109  0.6005
  989TIP3    H224383   0.341   0.082  15.988  2.4863 -0.8458 -0.4374
  990TIP3   OH224384   5.153   3.948  15.405  0.0770 -0.9354 -0.5716
  990TIP3    H124385   5.198   3.971  15.324  1.7948  1.2594  0.8775
  990TIP3    H224386   5.175   4.019  15.466 -0.1943 -3.0352  2.1937
  991TIP3   OH224387   1.770   5.404  15.633 -0.0253  0.5629 -0.9124
  991TIP3    H124388   1.740   5.421  15.722  0.0501 -0.2339 -0.7307
  991TIP3    H224389   1.837   5.337  15.642 -1.3357 -0.9192 -1.7377
  992TIP3   OH224390   3.438   2.459  14.531 -0.4229  0.6189 -0.0272
  992TIP3    H124391   3.377   2.390  14.556 -0.3674  0.7433  0.4778
  992TIP3    H224392   3.435   2.521  14.604 -0.1540  0.9340 -0.2794
  993TIP3   OH224393   3.577   0.023   0.904 -0.4152  0.2640 -0.0125
  993TIP3    H124394   3.526   0.035   0.984  1.0986  0.8936  0.9091
  993TIP3    H224395   3.544  -0.057   0.866 -2.1632  0.7197  0.4729
  994TIP3   OH224396   3.629   4.167   5.674  0.5774 -0.3458  0.2985
  994TIP3    H124397   3.614   4.141   5.764  1.9828  1.7607  1.2209
  994TIP3    H224398   3.687   4.100   5.638 -0.7485 -1.7025  0.6173
  995TIP3   OH224399   1.400   2.862  15.018  0.3363 -0.3503  0.3574
  995TIP3    H124400   1.358   2.947  15.011  0.9939 -0.1512 -1.7750
  995TIP3    H224401   1.422   2.838  14.928 -0.6646 -3.2001  0.7462
  996TIP3   OH224402   0.190   3.258  13.933  0.0128  0.4312 -0.7274
  996TIP3    H124403   0.129   3.276  14.004  0.1012 -0.4288 -0.4316
  996TIP3    H224404   0.262   3.321  13.946  0.2220  0.0115  0.1761
  997TIP3   OH224405   2.244   6.322  15.828 -0.2966  0.4053 -0.3407
  997TIP3    H124406   2.205   6.386  15.769 -1.3336  0.3705  0.2816
  997TIP3    H224407   2.204   6.340  15.913  0.1663 -0.4047  0.0601
  998TIP3   OH224408   2.489   1.873  13.524 -0.2551 -0.2386 -0.5016
  998TIP3    H124409   2.422   1.935  13.552 -0.7230 -0.3059 -1.4364
  998TIP3    H224410   2.440   1.804  13.478  0.2409 -1.3362  0.5483
  999TIP3   OH224411   3.329   6.517  16.414 -0.4694 -0.0209  0.4027
  999TIP3    H124412   3.289   6.539  16.498 -1.4194  3.4322 -0.7893
  999TIP3    H224413   3.419   6.494  16.435 -1.1106 -0.8385  2.4675
 1000TIP3   OH224414   2.300   3.527  11.163  0.6124 -0.0779 -0.3453
 1000TIP3    H124415   2.289   3.618  11.190 -1.7083 -0.1956 -0.6861
 1000TIP3    H224416   2.390   3.522  11.133  0.6688  2.2335 -0.7476
 1001TIP3   OH224417   1.740   4.867  10.273 -0.2788  0.5368 -0.2394
 1001TIP3    H124418   1.806   4.837  10.335 -0.6641 -2.9187 -1.2701
 1001TIP3    H224419   1.788   4.881  10.191 -0.5655 -0.5894 -0.6166
 1002TIP3   OH224420   5.834   6.565  16.254  0.1502 -1.0922  0.4599
 1002TIP3    H124421   5.867   6.544  16.166 -1.4566 -1.5199 -0.0733
 1002TIP3    H224422   5.813   6.659  16.249 -0.8556 -1.3255  0.0525
 1003TIP3   OH224423   2.481   0.313  11.181 -0.8827 -0.0358  0.4334
 1003TIP3    H124424   2.540   0.297  11.255 -0.2132  2.9719  0.6811
 1003TIP3    H224425   2.412   0.369  11.217 -1.0848  0.6668 -0.9708
 1004TIP3   OH224426   6.704   0.837   3.894 -0.4956  0.3482 -0.1520
 1004TIP3    H124427   6.618   0.853   3.932 -0.9878 -1.6697 -0.2610
 1004TIP3    H224428   6.752   0.919   3.906 -2.0603  1.1606  0.9012
 1005TIP3   OH224429   3.199   2.742  11.143  0.0580  0.4013 -0.5925
 1005TIP3    H124430   3.206   2.838  11.145  0.7143  0.3583 -0.5445
 1005TIP3    H224431   3.108   2.725  11.117 -1.0541  1.0389  2.4899
 1006TIP3   OH224432   2.253   4.144   5.203  0.0384 -0.0163 -0.1451
 1006TIP3    H124433   2.262   4.059   5.159 -1.7464 -0.0278 -0.5715
 1006TIP3    H224434   2.275   4.208   5.136 -1.1039 -0.0925 -0.6263
 1007TIP3   OH224435   6.398   2.407  12.834 -0.3824  0.3224 -0.2287
 1007TIP3    H124436   6.420   2.323  12.874  0.0346  0.0182 -1.0722
 1007TIP3    H224437   6.483   2.445  12.810 -0.6269  0.4513 -0.9158
 1008TIP3   OH224438   0.159   0.855  11.332  0.2386  0.1197 -0.0658
 1008TIP3    H124439   0.249   0.878  11.309  0.4745 -2.8701 -2.6685
 1008TIP3    H224440   0.106   0.927  11.298  1.4189  0.4827 -1.1911
 1009TIP3   OH224441   3.841   5.784   4.833  0.2648 -0.1187  0.5226
 1009TIP3    H124442   3.934   5.800   4.817  0.2822 -1.3653 -0.7925
 1009TIP3    H224443   3.837   5.695   4.870 -0.4728 -0.5418 -0.5211
 1010TIP3   OH224444   2.181   5.450  12.566 -0.2740  0.2149 -0.6065
 1010TIP3    H124445   2.268   5.462  12.528 -0.1855  2.3051  0.0951
 1010TIP3    H224446   2.195   5.454  12.660 -0.8397 -2.1212 -0.3654
 1011TIP3   OH224447   1.192   5.773   5.530  0.2144  0.3870 -0.0411
 1011TIP3    H124448   1.209   5.680   5.514  0.2849  0.4672 -0.4470
 1011TIP3    H224449   1.238   5.818   5.458 -1.6587  0.6140 -1.1565
 1012TIP3   OH224450   5.450   1.045   5.038  0.2803 -0.2266 -0.9757
 1012TIP3    H124451   5.546   1.037   5.034  0.6521  0.9356  2.4158
 1012TIP3    H224452   5.421   0.963   5.078 -0.0461 -0.1491 -1.0546
 1013TIP3   OH224453   5.594   6.707   3.705  0.2965  0.2534  0.0619
 1013TIP3    H124454   5.665   6.719   3.642 -0.8398  2.0169 -0.9782
 1013TIP3    H224455   5.520   6.677   3.653 -0.3523  0.6298  0.7366
 1014TIP3   OH224456   2.470   1.819   0.637  0.1583 -0.2578 -0.5292
 1014TIP3    H124457   2.418   1.750   0.597  2.3302 -1.6071 -1.1690
 1014TIP3    H224458   2.424   1.900   0.614 -1.6443 -1.3617 -1.0044
 1015TIP3   OH224459   4.573   6.397  13.128  0.4532  0.1431  0.5966
 1015TIP3    H124460   4.654   6.392  13.178  0.9017 -2.3021 -0.2275
 1015TIP3    H224461   4.595   6.359  13.043 -1.5289 -0.5249  0.3228
 1016TIP3   OH224462   1.049   1.692   1.073  0.0727  0.6986  0.1810
 1016TIP3    H124463   1.111   1.632   1.114 -0.5715  0.1885  0.4346
 1016TIP3    H224464   0.966   1.676   1.119 -0.7430 -0.0726 -1.4562
 1017TIP3   OH224465   4.643   2.712  13.638  0.6626  0.5870 -0.0543
 1017TIP3    H124466   4.679   2.634  13.596 -1.0820 -1.2131  1.6108
 1017TIP3    H224467   4.569   2.680  13.690 -0.4458  3.4408  0.2985
 1018TIP3   OH224468   1.227   6.746   4.053 -0.1406 -0.3673 -0.0300
 1018TIP3    H124469   1.209   6.828   4.100  0.3998 -1.2578  1.8495
 1018TIP3    H224470   1.311   6.761   4.011 -0.6129  0.4413 -0.7321
 1019TIP3   OH224471   1.958   1.025   0.182  0.0617  0.2239  0.5807
 1019TIP3    H124472   1.886   1.077   0.217 -0.3331 -0.6568  1.1188
 1019TIP3    H224473   2.037   1.065   0.219 -0.2816 -0.0007  1.5999
 1020TIP3   OH224474   0.870   3.893  15.342 -0.0601  0.6448  0.6902
 1020TIP3    H124475   0.807   3.939  15.287 -2.0900 -0.6607  1.7766
 1020TIP3    H224476   0.932   3.961  15.370 -0.3169  1.7626 -1.2838
 1021TIP3   OH224477   5.642   6.535   4.805  0.0667  0.2590  0.5969
 1021TIP3    H124478   5.605   6.604   4.860 -0.2128 -1.4676  2.7223
 1021TIP3    H224479   5.692   6.581   4.738 -0.6273  2.5002  1.5362
 1022TIP3   OH224480   1.777   4.651   5.404 -0.5792  0.5071  0.5170
 1022TIP3    H124481   1.740   4.695   5.328 -1.5523 -0.5886  0.3147
 1022TIP3    H224482   1.851   4.705   5.431 -0.7185  1.3336 -0.7175
 1023TIP3   OH224483   6.147   2.046   0.242  0.4172 -0.0403 -0.1015
 1023TIP3    H124484   6.095   2.015   0.317 -0.2105  1.0854 -0.0443
 1023TIP3    H224485   6.234   2.010   0.256 -0.4272 -2.3560 -0.4249
 1024TIP3   OH224486   2.291   6.272   2.233  0.0572 -0.3437 -0.3430
 1024TIP3    H124487   2.375   6.253   2.276 -0.6733  1.3696  2.0746
 1024TIP3    H224488   2.308   6.348   2.179  0.1832 -0.2908 -0.2303
 1025TIP3   OH224489   2.856   2.439   5.044 -0.0832  0.5058  0.0620
 1025TIP3    H124490   2.797   2.380   4.998  0.8183 -0.5953  0.2939
 1025TIP3    H224491   2.879   2.506   4.980 -0.5113  0.1763 -0.4348
 1026TIP3   OH224492   5.860   3.876  13.370  0.4492  0.1087  0.3294
 1026TIP3    H124493   5.805   3.911  13.300 -1.3052 -1.7257  0.7187
 1026TIP3    H224494   5.928   3.943  13.382  0.5003  0.7526 -2.6895
 1027TIP3   OH224495   2.548   1.982   2.844  0.1202  0.1904 -0.2659
 1027TIP3    H124496   2.456   1.974   2.819  0.1444 -1.1105 -0.0283
 1027TIP3    H224497   2.564   2.076   2.848 -1.5834  0.4750  1.0488
 1028TIP3   OH224498   6.661   3.531  16.934  0.0013  0.2127  0.5886
 1028TIP3    H124499   6.707   3.454  16.967 -0.1463  0.2069  0.7810
 1028TIP3    H224500   6.609   3.562  17.008 -1.2362 -0.4808  0.0415
 1029TIP3   OH224501   1.777   5.285   0.964 -0.0902  0.5360 -0.1127
 1029TIP3    H124502   1.734   5.355   0.916 -0.6415 -0.6781 -1.4591
 1029TIP3    H224503   1.742   5.293   1.053 -1.1679  1.1486 -0.5614
 1030TIP3   OH224504   6.076   2.542  12.442 -0.2833 -0.2451  0.0198
 1030TIP3    H124505   6.012   2.566  12.508 -0.7036 -1.2358 -0.0086
 1030TIP3    H224506   6.106   2.455  12.467  1.4216  0.3779  0.2999
 1031TIP3   OH224507   0.084   6.646  15.130 -0.4977  0.1342  0.5496
 1031TIP3    H124508   0.104   6.680  15.042 -0.2579  0.4791  0.7367
 1031TIP3    H224509  -0.006   6.617  15.124 -0.8235  1.1198  0.4741
 1032TIP3   OH224510   6.170   3.615  13.192  0.0886 -0.1288 -0.2882
 1032TIP3    H124511   6.261   3.638  13.174  0.1004  0.5527  0.5301
 1032TIP3    H224512   6.144   3.677  13.261 -0.2428 -1.8557  1.2163
 1033TIP3   OH224513   2.031   5.891  10.988  0.0689 -0.1138 -0.4573
 1033TIP3    H124514   2.029   5.976  10.943 -0.3368  0.1587  0.0558
 1033TIP3    H224515   2.060   5.829  10.922  1.6470  0.6246 -0.5208
 1034TIP3   OH224516   1.401   1.674  12.488 -0.0554 -0.5418 -0.0722
 1034TIP3    H124517   1.475   1.619  12.460  0.1602 -1.3264  1.8989
 1034TIP3    H224518   1.356   1.622  12.554 -1.3905  0.6256 -0.0245
 1035TIP3   OH224519   4.867   4.125  14.254  0.1135  0.1441  0.1320
 1035TIP3    H124520   4.775   4.146  14.273  0.5417  1.2017  1.1584
 1035TIP3    H224521   4.874   4.031  14.273 -0.2004  0.5356  2.5035
 1036TIP3   OH224522   5.183   5.943   5.488  0.3888 -0.4438 -0.1661
 1036TIP3    H124523   5.238   5.903   5.556  0.0709  0.2021  0.4780
 1036TIP3    H224524   5.148   5.868   5.439  1.7345 -0.8717 -0.5228
 1037TIP3   OH224525   3.861   4.060  12.085  0.4435 -0.0868  0.8794
 1037TIP3    H124526   3.844   4.151  12.110 -0.3862 -0.2311  0.8376
 1037TIP3    H224527   3.794   4.040  12.019  1.1797 -0.4394  0.2144
 1038TIP3   OH224528   6.006   6.127   1.237 -0.3775 -0.4920 -0.5821
 1038TIP3    H124529   5.942   6.106   1.305  0.0544  0.8303  0.2603
 1038TIP3    H224530   6.016   6.222   1.241  1.8919 -0.6919 -0.4491
 1039TIP3   OH224531   0.539   1.041   1.208  0.3766 -0.0579  0.1832
 1039TIP3    H124532   0.590   1.106   1.159  1.1256 -0.1552  0.8098
 1039TIP3    H224533   0.591   1.025   1.287  1.0098 -2.5994 -0.6735
 1040TIP3   OH224534   2.815   0.136   5.279  0.0122  0.5998 -0.1771
 1040TIP3    H124535   2.829   0.209   5.340 -1.8252  0.5786  0.3395
 1040TIP3    H224536   2.727   0.151   5.244  0.2624 -0.4762 -1.3278
 1041TIP3   OH224537   0.489   2.932  11.376 -0.2916  0.1917 -0.5260
 1041TIP3    H124538   0.567   2.959  11.328 -0.2222 -0.3864 -0.7564
 1041TIP3    H224539   0.503   2.963  11.465 -0.3738  1.1939 -0.8476
 1042TIP3   OH224540   0.591   6.686  15.876 -0.1550  0.0182 -0.2057
 1042TIP3    H124541   0.533   6.644  15.940  1.3208  0.0730  1.2722
 1042TIP3    H224542   0.534   6.714  15.806 -1.8622 -0.1749  1.0356
 1043TIP3   OH224543   5.750   6.391  13.470  0.1535  0.4209 -0.5606
 1043TIP3    H124544   5.841   6.389  13.441  0.4272  1.2115  0.1974
 1043TIP3    H224545   5.727   6.484  13.471 -0.5753  0.2447 -0.4827
 1044TIP3   OH224546   0.078   1.436  12.237 -0.3963 -0.1358  0.3785
 1044TIP3    H124547   0.154   1.487  12.267  0.2743 -1.0397  0.2454
 1044TIP3    H224548   0.024   1.500  12.189  0.3057  0.5079  0.4292
 1045TIP3   OH224549   1.496   5.992  16.125 -0.4047  0.0612 -0.0611
 1045TIP3    H124550   1.537   5.927  16.183 -0.9357  1.0472  1.4641
 1045TIP3    H224551   1.569   6.028  16.075  0.4868  1.0221  1.8406
 1046TIP3   OH224552   1.418   2.824   4.496  0.2861 -0.2758 -0.1299
 1046TIP3    H124553   1.324   2.824   4.514  0.0420 -0.8385 -1.2720
 1046TIP3    H224554   1.457   2.863   4.573 -1.0494  1.8571 -0.4247
 1047TIP3   OH224555   4.174   1.454  16.032 -0.3158 -0.4184 -0.1376
 1047TIP3    H124556   4.259   1.450  15.990  0.3234  1.1540  0.8983
 1047TIP3    H224557   4.193   1.475  16.124 -1.8249  1.6212 -0.2164
 1048TIP3   OH224558   3.241   2.074  15.629  0.2961  0.2476 -0.3801
 1048TIP3    H124559   3.279   2.106  15.547  1.1009 -0.4442 -0.2851
 1048TIP3    H224560   3.234   1.980  15.617 -1.5309  0.3505 -0.4405
 1049TIP3   OH224561   1.202   3.504  13.228 -0.1581  0.6346 -0.1867
 1049TIP3    H124562   1.216   3.582  13.282 -0.5760  0.2564  0.4756
 1049TIP3    H224563   1.249   3.523  13.147 -0.4429  1.6747 -0.1243
 1050TIP3   OH224564   6.169   6.295  14.201  1.2801 -0.2120  0.6112
 1050TIP3    H124565   6.147   6.242  14.126  0.3748 -1.4341  1.7006
 1050TIP3    H224566   6.182   6.232  14.272  1.7152  0.9242  1.5721
 1051TIP3   OH224567   1.569   2.795  11.269 -0.3437 -0.5285  0.3151
 1051TIP3    H124568   1.631   2.867  11.253 -3.2452  1.9643 -0.6301
 1051TIP3    H224569   1.543   2.766  11.182 -1.7466 -0.3098  0.6337
 1052TIP3   OH224570   1.768   0.217   5.369 -0.6786  0.3518  0.0155
 1052TIP3    H124571   1.737   0.235   5.280 -0.2717  1.4116  0.0784
 1052TIP3    H224572   1.688   0.199   5.419 -0.8611 -0.9339 -0.6984
 1053TIP3   OH224573   5.760   6.156   1.869  0.1705  0.4609  0.3412
 1053TIP3    H124574   5.698   6.219   1.834  0.4649  0.6639  0.1859
 1053TIP3    H224575   5.846   6.195   1.855  0.4486 -0.5481 -0.9719
 1054TIP3   OH224576   5.788   3.306  12.747  0.1024 -0.0493  0.1399
 1054TIP3    H124577   5.802   3.394  12.784  1.9762  0.6512 -1.9718
 1054TIP3    H224578   5.695   3.289  12.758  0.2377  0.7972  3.4988
 1055TIP3   OH224579   2.113   3.265  13.153 -0.2641  0.3132 -0.0296
 1055TIP3    H124580   2.113   3.337  13.090  0.4325 -0.3024 -0.7644
 1055TIP3    H224581   2.021   3.241  13.164 -0.3161 -0.3570 -1.7490
 1056TIP3   OH224582   4.711   1.611   0.094  0.4094  0.3556  0.4251
 1056TIP3    H124583   4.665   1.669   0.033 -0.5351  0.0072  0.7762
 1056TIP3    H224584   4.706   1.525   0.052  0.3111  0.2294  0.6920
 1057TIP3   OH224585   3.155   0.802  14.221 -0.3303 -0.0900 -0.2199
 1057TIP3    H124586   3.149   0.754  14.138  0.4064  1.1278 -1.0026
 1057TIP3    H224587   3.238   0.849  14.216  0.7758 -1.5759  2.1059
 1058TIP3   OH224588   4.606   3.532   5.132  0.4441  0.4054  0.2100
 1058TIP3    H124589   4.623   3.456   5.188  1.1155 -0.8702 -1.6462
 1058TIP3    H224590   4.658   3.602   5.171  0.8721 -0.4358  1.2015
 1059TIP3   OH224591   4.665   1.935  15.096 -0.2078 -0.3024  0.4556
 1059TIP3    H124592   4.756   1.945  15.067 -0.1805 -1.3168  0.1463
 1059TIP3    H224593   4.669   1.868  15.165 -0.6477  0.0857  0.8714
 1060TIP3   OH224594   1.203   3.697   1.027 -0.5751  0.9037 -0.0286
 1060TIP3    H124595   1.248   3.719   0.946  1.0676 -0.1412  0.5517
 1060TIP3    H224596   1.227   3.767   1.088  1.0748 -0.1023  0.5397
 1061TIP3   OH224597   5.782   3.783   4.904 -0.5849  0.0492 -0.1413
 1061TIP3    H124598   5.843   3.733   4.850 -0.8935  0.2942 -0.7333
 1061TIP3    H224599   5.701   3.731   4.901 -0.7193  0.2628 -0.2446
 1062TIP3   OH224600   5.932   1.934   3.148  0.6154  0.0601 -0.4191
 1062TIP3    H124601   5.911   1.964   3.060 -0.4729  1.1897  0.1856
 1062TIP3    H224602   6.001   1.994   3.178 -0.2719  0.8279  0.1289
 1063TIP3   OH224603   5.120   2.505  15.494  0.3168  0.4737  0.1298
 1063TIP3    H124604   5.160   2.579  15.446 -2.1912  1.5851 -0.3877
 1063TIP3    H224605   5.184   2.484  15.562  1.9726  1.8302 -0.9023
 1064TIP3   OH224606   5.140   0.752  13.614 -0.0998 -0.0211  0.7813
 1064TIP3    H124607   5.146   0.821  13.679 -1.8213  0.9262  0.0157
 1064TIP3    H224608   5.147   0.797  13.530 -0.3131 -0.9001  0.2714
 1065TIP3   OH224609   2.226   1.967  15.619  0.4477 -0.0833 -0.6684
 1065TIP3    H124610   2.186   1.904  15.678  1.2682 -0.6440 -0.7010
 1065TIP3    H224611   2.243   2.044  15.673  3.6262 -1.5016  0.5686
 1066TIP3   OH224612   5.366   6.391   5.406 -0.1809  0.1367  0.4022
 1066TIP3    H124613   5.447   6.430   5.439  0.0577 -0.2773  0.3139
 1066TIP3    H224614   5.316   6.369   5.485 -0.3177  0.6158  0.4523
 1067TIP3   OH224615   0.509   5.360  15.677  0.3736 -0.1919  0.4264
 1067TIP3    H124616   0.483   5.276  15.639  0.6116  0.3025 -0.8877
 1067TIP3    H224617   0.599   5.347  15.705  0.0518 -0.6964  1.2573
 1068TIP3   OH224618   2.146   0.238  15.061 -0.1699  0.1199 -0.2229
 1068TIP3    H124619   2.148   0.155  15.013  3.5180 -0.8460  1.2195
 1068TIP3    H224620   2.094   0.219  15.139 -1.9310  0.1951 -1.3130
 1069TIP3   OH224621   6.489   5.119   4.218  0.1508 -0.1152  0.2903
 1069TIP3    H124622   6.422   5.183   4.195 -0.6693 -0.6794  1.0240
 1069TIP3    H224623   6.499   5.128   4.313  1.8050  0.5990  0.0813
 1070TIP3   OH224624   2.974   3.008  12.332  0.2875  0.3334  0.1214
 1070TIP3    H124625   2.913   3.021  12.405 -0.2299 -0.7880 -0.0851
 1070TIP3    H224626   3.059   3.033  12.366 -0.3472  2.7632  0.1856
 1071TIP3   OH224627   1.238   4.230  12.777  0.2107 -0.3633  0.3101
 1071TIP3    H124628   1.229   4.195  12.689 -3.9498  1.1333 -0.0663
 1071TIP3    H224629   1.289   4.310  12.767 -0.0096 -0.3422 -0.6956
 1072TIP3   OH224630   0.001   6.365   6.012  0.0069  0.1035  0.1367
 1072TIP3    H124631  -0.039   6.314   6.082  1.1679 -0.5928  0.3241
 1072TIP3    H224632   0.043   6.438   6.058  0.4876 -0.1727  0.1443
 1073TIP3   OH224633   1.019   0.566   4.195  0.5070  0.0564 -0.0475
 1073TIP3    H124634   1.021   0.505   4.268 -3.7950  0.2113  0.4499
 1073TIP3    H224635   1.047   0.513   4.119  0.4813 -1.4811  0.9662
 1074TIP3   OH224636   1.239   0.640   6.333  0.2364  0.5219 -0.2320
 1074TIP3    H124637   1.275   0.567   6.384 -0.2640 -0.2050 -0.8940
 1074TIP3    H224638   1.145   0.621   6.328  0.2230  0.7894 -1.0780
 1075TIP3   OH224639   1.340   5.337  15.732 -0.6404  0.1273 -0.4405
 1075TIP3    H124640   1.368   5.425  15.757  0.1930 -0.3823  0.5226
 1075TIP3    H224641   1.356   5.284  15.811 -3.3338 -0.4358 -0.1715
 1076TIP3   OH224642   5.564   3.973  13.362  0.4847  0.0074  0.2228
 1076TIP3    H124643   5.498   3.990  13.430 -0.2959  1.7892 -0.9084
 1076TIP3    H224644   5.641   4.023  13.391  0.0395  1.0469 -0.3324
 1077TIP3   OH224645   2.878   4.387  11.438 -0.1624  0.5998 -0.3573
 1077TIP3    H124646   2.919   4.363  11.522 -0.3362 -1.0526 -0.7008
 1077TIP3    H224647   2.937   4.451  11.400  0.3145  0.8184  0.6996
 1078TIP3   OH224648   0.606   6.092   0.507 -0.1479  0.0444 -0.4205
 1078TIP3    H124649   0.540   6.084   0.438 -0.7858  1.7817 -0.0698
 1078TIP3    H224650   0.578   6.169   0.557  2.1305  0.8295 -0.2633
 1079TIP3   OH224651   4.731   0.296   2.770  0.0611  0.2839  0.3165
 1079TIP3    H124652   4.700   0.364   2.830 -0.6446  1.0564 -0.8945
 1079TIP3    H224653   4.818   0.325   2.743  0.0586  0.3280  0.3555
 1080TIP3   OH224654   3.538   0.031   0.466 -0.0865  0.0431  0.1310
 1080TIP3    H124655   3.583  -0.051   0.443 -2.5231 -1.2722 -0.3051
 1080TIP3    H224656   3.589   0.099   0.423  0.5187 -1.5106 -1.7720
 1081TIP3   OH224657   0.697   4.814   4.467 -0.5076 -0.3408 -0.1708
 1081TIP3    H124658   0.711   4.792   4.559 -0.3327 -2.1843 -0.5931
 1081TIP3    H224659   0.785   4.824   4.431 -0.5782  0.9295 -0.0550
 1082TIP3   OH224660   1.072   4.424  14.393 -0.2194 -0.6119  0.1685
 1082TIP3    H124661   1.066   4.501  14.450 -0.9054  0.1262 -0.8752
 1082TIP3    H224662   1.166   4.415  14.375 -0.1165 -0.1585  0.4737
 1083TIP3   OH224663   2.597   4.423   6.373  0.4411  0.5634 -0.3910
 1083TIP3    H124664   2.520   4.368   6.353  0.3677  0.5065  0.0310
 1083TIP3    H224665   2.672   4.369   6.349  0.3543  0.5267 -0.5808
 1084TIP3   OH224666   2.920   3.510   4.615 -0.4680 -0.0600  0.3189
 1084TIP3    H124667   3.002   3.491   4.662 -0.3626  0.0526  0.1801
 1084TIP3    H224668   2.948   3.553   4.535 -0.5673 -1.2323 -0.3789
 1085TIP3   OH224669   4.721   5.699   2.013 -0.3507 -0.7313 -0.0061
 1085TIP3    H124670   4.774   5.750   2.074 -0.7102  0.7341 -0.8657
 1085TIP3    H224671   4.758   5.611   2.016  0.3311 -0.4134  1.4806
 1086TIP3   OH224672   2.559   5.143   3.902 -0.5193  0.3431  0.6214
 1086TIP3    H124673   2.490   5.090   3.861 -1.2445  1.3980  0.4042
 1086TIP3    H224674   2.513   5.195   3.968  0.1983  0.5607  0.9586
 1087TIP3   OH224675   5.953   3.603   3.299 -0.9403 -0.3821  0.6426
 1087TIP3    H124676   6.003   3.581   3.378 -0.4031  1.6065  0.9160
 1087TIP3    H224677   5.864   3.616   3.330 -1.0315 -1.0357  0.6644
 1088TIP3   OH224678   2.488   5.930  14.887  0.2849 -0.4818  0.0360
 1088TIP3    H124679   2.472   5.836  14.875  0.5772 -0.5398  0.0953
 1088TIP3    H224680   2.538   5.935  14.969  0.5973 -0.3074 -0.1625
 1089TIP3   OH224681   1.267   2.748   0.564  0.1017 -0.1959 -0.2418
 1089TIP3    H124682   1.243   2.807   0.493 -0.5183  0.8492  0.8119
 1089TIP3    H224683   1.210   2.672   0.552 -0.0446 -0.0025 -0.8131
 1090TIP3   OH224684   2.431   2.775  12.076 -0.3346  0.2994 -0.2065
 1090TIP3    H124685   2.378   2.847  12.044  0.0434  1.8168  2.3070
 1090TIP3    H224686   2.476   2.741  11.999 -0.6009  2.6888 -1.4974
 1091TIP3   OH224687   0.444   3.282  16.795 -0.2419  0.2562  0.0529
 1091TIP3    H124688   0.532   3.306  16.825 -1.6568  2.8976  2.6167
 1091TIP3    H224689   0.423   3.349  16.729 -0.0788 -0.8938 -1.2114
 1092TIP3   OH224690   2.921   4.876   0.003 -0.2924 -0.3355  0.0378
 1092TIP3    H124691   2.851   4.899  -0.058  2.1576  0.3883 -2.7282
 1092TIP3    H224692   2.914   4.781   0.012 -1.4599 -0.3027 -0.3864
 1093TIP3   OH224693   0.528   6.344  13.575 -0.5893 -0.0644 -0.1924
 1093TIP3    H124694   0.500   6.326  13.485 -1.3140  2.6883 -0.6175
 1093TIP3    H224695   0.596   6.412  13.566 -2.2427  1.9411  1.3508
 1094TIP3   OH224696   5.327   0.873  14.626  0.3207  0.0630 -0.5097
 1094TIP3    H124697   5.368   0.822  14.556  1.2043  0.7085 -0.4768
 1094TIP3    H224698   5.398   0.925  14.663 -0.4358  0.8404 -0.1190
 1095TIP3   OH224699   1.699   1.241  11.066  0.5170 -0.4208 -0.0393
 1095TIP3    H124700   1.788   1.214  11.041 -0.2232 -3.4579  0.1367
 1095TIP3    H224701   1.655   1.256  10.983  1.1724  1.2256 -0.1262
 1096TIP3   OH224702   4.030   1.384   5.259 -0.3172  0.1911 -0.2199
 1096TIP3    H124703   4.075   1.363   5.177  2.6289  0.3238  1.2245
 1096TIP3    H224704   4.007   1.477   5.250  0.0412  0.2260 -0.8686
 1097TIP3   OH224705   2.024   3.270   4.519  0.0561 -0.0968  0.1979
 1097TIP3    H124706   2.106   3.221   4.520  0.0741 -0.1063  1.8163
 1097TIP3    H224707   1.956   3.202   4.520  0.0389 -0.0886 -0.3872
 1098TIP3   OH224708   1.153   4.158   5.368  0.1370 -0.5886 -0.1359
 1098TIP3    H124709   1.189   4.217   5.434  3.0047 -3.0983  0.7310
 1098TIP3    H224710   1.062   4.187   5.357  0.5675  2.1015  2.2983
 1099TIP3   OH224711   2.538   1.075  14.843 -0.4036  0.2025 -0.1654
 1099TIP3    H124712   2.482   1.136  14.892  0.1121 -1.3481  2.5245
 1099TIP3    H224713   2.594   1.035  14.910  0.0683 -2.3801 -1.9911
 1100TIP3   OH224714   4.530   3.412  14.970 -0.4586 -0.3653  0.2367
 1100TIP3    H124715   4.504   3.340  15.029  2.1394  0.2269  2.3205
 1100TIP3    H224716   4.505   3.491  15.017 -0.1039  0.1182 -0.3860
 1101TIP3   OH224717   3.397   2.634   5.703 -0.6754  0.5325  0.1232
 1101TIP3    H124718   3.349   2.556   5.674  1.5676 -0.7823 -0.2915
 1101TIP3    H224719   3.413   2.620   5.796  1.0847 -0.3242 -0.2728
 1102TIP3   OH224720   5.419   0.129  12.146 -0.3733  0.0741  0.3274
 1102TIP3    H124721   5.429   0.102  12.238  2.5980 -0.7783 -0.1304
 1102TIP3    H224722   5.470   0.064  12.097 -0.9655  1.1572 -1.8360
 1103TIP3   OH224723   2.747   1.893  15.107 -0.4290 -0.4189  0.5003
 1103TIP3    H124724   2.736   1.902  15.012  1.1414 -0.3903  0.2954
 1103TIP3    H224725   2.741   1.982  15.140 -0.8614 -0.4167  0.4292
 1104TIP3   OH224726   1.389   5.561  14.418  0.0500 -0.1694  0.0200
 1104TIP3    H124727   1.305   5.588  14.455 -1.3504 -2.0627 -1.5552
 1104TIP3    H224728   1.379   5.572  14.323  0.7420 -2.4265 -0.3808
 1105TIP3   OH224729   2.037   5.660  13.365  0.1269 -0.3783  0.6630
 1105TIP3    H124730   2.037   5.646  13.270 -1.1948 -1.4541  0.7966
 1105TIP3    H224731   1.974   5.731  13.379  0.1552 -0.3701  0.7507
 1106TIP3   OH224732   5.389   3.121   3.939 -0.0133  0.1728  0.6855
 1106TIP3    H124733   5.397   3.147   3.847 -0.8830 -0.0949  0.5241
 1106TIP3    H224734   5.301   3.151   3.965 -0.7020 -1.7525  0.7566
 1107TIP3   OH224735   2.648   1.344  10.822 -0.3056 -0.2476  0.4190
 1107TIP3    H124736   2.633   1.437  10.809 -0.4439 -0.4041 -0.6295
 1107TIP3    H224737   2.639   1.305  10.735  0.1341 -1.1901  0.7738
 1108TIP3   OH224738   2.942   1.568  16.409  0.3778  0.7923  0.6294
 1108TIP3    H124739   2.930   1.498  16.345  2.6177  0.5335  0.4336
 1108TIP3    H224740   2.877   1.548  16.477  0.9689 -1.5614  0.6192
 1109TIP3   OH224741   1.530   5.321  14.223  0.4789 -0.1542 -0.4388
 1109TIP3    H124742   1.554   5.237  14.184 -1.4307 -0.4724 -1.0531
 1109TIP3    H224743   1.449   5.347  14.177 -0.1164  1.0051  1.1569
 1110TIP3   OH224744   0.135   1.589  15.088  0.3128 -0.1348  0.3177
 1110TIP3    H124745   0.127   1.541  15.006 -0.0407 -0.8324  0.7460
 1110TIP3    H224746   0.052   1.573  15.134 -0.1219  1.4941  0.1751
 1111TIP3   OH224747   4.616   1.672   2.032  0.0118  0.1619  0.7371
 1111TIP3    H124748   4.561   1.632   1.964 -0.1508  0.4749  0.6826
 1111TIP3    H224749   4.592   1.765   2.031  1.3465  0.5201 -0.0637
 1112TIP3   OH224750   6.565   4.571   4.074  0.1398 -0.7441  0.3784
 1112TIP3    H124751   6.603   4.646   4.028  2.6873 -1.6259  0.8500
 1112TIP3    H224752   6.509   4.609   4.141 -1.0041  0.6270 -1.3069
 1113TIP3   OH224753   5.480   4.052  11.735 -0.2834 -0.0713  0.8386
 1113TIP3    H124754   5.446   3.983  11.793  0.3594 -1.0060  0.1278
 1113TIP3    H224755   5.469   4.017  11.647  0.0081  0.7724  0.4530
 1114TIP3   OH224756   1.995   5.315  13.490 -0.0039  0.1043  0.4619
 1114TIP3    H124757   2.016   5.408  13.483 -0.8246  0.2938  0.4089
 1114TIP3    H224758   2.078   5.273  13.512  0.3305  0.8766  0.6968
 1115TIP3   OH224759   5.209   3.657  12.809 -0.1866 -0.0083 -0.6920
 1115TIP3    H124760   5.213   3.752  12.823  0.9201 -0.3335  1.5749
 1115TIP3    H224761   5.117   3.634  12.825  0.0425  0.3690  1.4169
 1116TIP3   OH224762   2.954   1.677   0.130  0.0320 -0.4547  0.2873
 1116TIP3    H124763   2.974   1.584   0.123  1.9835 -0.0592  0.0457
 1116TIP3    H224764   2.904   1.685   0.211 -1.3818 -1.8602 -0.3848
 1117TIP3   OH224765   2.396   3.586  15.912 -0.2434  0.8675 -0.1614
 1117TIP3    H124766   2.470   3.569  15.854  2.0707  0.7234  2.6113
 1117TIP3    H224767   2.421   3.663  15.963 -1.9369  0.7410  0.9687
 1118TIP3   OH224768   5.516   6.707   5.316  0.2493 -0.0450 -0.2864
 1118TIP3    H124769   5.538   6.615   5.336  0.7804 -0.2403 -1.6719
 1118TIP3    H224770   5.584   6.735   5.255 -0.6240  0.8947 -0.8500
 1119TIP3   OH224771   2.768   4.396   0.040 -0.1291 -0.0199  0.5810
 1119TIP3    H124772   2.829   4.340  -0.007  0.6866  0.8837  0.5257
 1119TIP3    H224773   2.682   4.359   0.022  0.3591 -1.0175  0.2452
 1120TIP3   OH224774   3.224   5.638  10.956 -0.1468  0.3194 -0.0154
 1120TIP3    H124775   3.267   5.713  10.914  0.7193 -0.7294 -1.0759
 1120TIP3    H224776   3.283   5.613  11.027  0.1367 -0.0276 -0.3649
 1121TIP3   OH224777   5.934   0.958   1.640  0.0184  0.3914  0.2031
 1121TIP3    H124778   5.943   0.876   1.690 -0.6468 -0.3769 -0.8972
 1121TIP3    H224779   5.840   0.977   1.642  0.0672  0.6830 -0.2436
 1122TIP3   OH224780   4.580   2.548   2.162  0.3016  0.3501 -0.8344
 1122TIP3    H124781   4.610   2.556   2.072  1.5391 -0.7443 -0.5580
 1122TIP3    H224782   4.660   2.551   2.214 -0.4717  2.2524  0.3632
 1123TIP3   OH224783   0.497   1.685   3.008  0.3282  0.5030  0.5553
 1123TIP3    H124784   0.426   1.720   3.062  0.4850  1.6273  0.0842
 1123TIP3    H224785   0.567   1.750   3.017  0.3215  0.7735 -1.0377
 1124TIP3   OH224786   4.581   4.153  12.985  0.6238 -0.4019  0.4725
 1124TIP3    H124787   4.649   4.091  13.013 -0.0928 -1.3127  0.2791
 1124TIP3    H224788   4.568   4.210  13.061  2.0123  0.1744  0.2968
 1125TIP3   OH224789   4.620   1.585   0.826  0.4060 -0.1478 -0.3303
 1125TIP3    H124790   4.677   1.661   0.837  0.1576  0.1974 -1.2691
 1125TIP3    H224791   4.649   1.546   0.743 -0.4979 -0.1541 -0.6512
 1126TIP3   OH224792   6.734   4.984   1.611  0.1981 -0.3145 -0.0707
 1126TIP3    H124793   6.743   4.953   1.521  1.2482 -1.6646  0.4553
 1126TIP3    H224794   6.647   4.955   1.638  0.1290 -0.4634 -0.4588
 1127TIP3   OH224795   2.281   3.717  14.384 -0.8019 -0.3556 -0.0792
 1127TIP3    H124796   2.294   3.627  14.353  1.8519 -0.3237  0.6632
 1127TIP3    H224797   2.297   3.771  14.306  0.2070 -0.4766  0.0239
 1128TIP3   OH224798   4.150   2.446  12.898 -0.0303 -0.0297 -0.3856
 1128TIP3    H124799   4.160   2.404  12.984  2.1902  2.0706  0.5191
 1128TIP3    H224800   4.077   2.400  12.857  0.8055 -3.2174  1.3344
 1129TIP3   OH224801   1.375   4.259  12.344 -0.1470 -0.2082 -0.5860
 1129TIP3    H124802   1.417   4.194  12.288  1.0659 -0.0998  0.1650
 1129TIP3    H224803   1.321   4.311  12.284  1.5413  0.2409 -1.7785
 1130TIP3   OH224804   3.941   0.140  16.563  0.3417 -0.6228  0.4468
 1130TIP3    H124805   3.873   0.197  16.525  1.4572  0.6742  0.3501
 1130TIP3    H224806   4.001   0.124  16.490  1.4429  0.2536  1.1541
 1131TIP3   OH224807   4.944   6.181   3.877  0.5533 -0.3586  0.6647
 1131TIP3    H124808   4.948   6.236   3.955  1.4503 -0.5992  0.7938
 1131TIP3    H224809   4.930   6.093   3.910  1.7541 -0.5803  0.6111
 1132TIP3   OH224810   4.754   4.867   2.314 -0.0448  0.5016  0.3459
 1132TIP3    H124811   4.678   4.855   2.257 -0.4583 -3.2441  1.3880
 1132TIP3    H224812   4.825   4.893   2.256 -0.9257 -1.1375 -1.5546
 1133TIP3   OH224813   1.083   4.512   4.061  0.8979 -0.1123  0.1349
 1133TIP3    H124814   1.002   4.462   4.073  1.0974 -0.9328 -1.6163
 1133TIP3    H224815   1.094   4.518   3.966  2.9057 -0.0437  0.3265
 1134TIP3   OH224816   0.244   5.037   5.949  0.2034  0.3450 -0.0476
 1134TIP3    H124817   0.332   5.029   5.987 -0.4188  0.2968  1.4509
 1134TIP3    H224818   0.186   5.004   6.017 -1.0183  0.7700 -0.8601
 1135TIP3   OH224819   1.347   2.836  12.319  0.2331 -1.0252 -0.4381
 1135TIP3    H124820   1.281   2.888  12.365 -0.3112  0.8250 -3.1142
 1135TIP3    H224821   1.298   2.768  12.274  0.5690 -1.7389  0.2498
 1136TIP3   OH224822   2.255   5.820   1.646 -0.2929 -0.3758  0.2809
 1136TIP3    H124823   2.235   5.745   1.589 -2.0929  0.1471  0.1802
 1136TIP3    H224824   2.349   5.834   1.634 -0.0197 -2.2672 -0.1170
 1137TIP3   OH224825   0.866   1.922   0.265  0.4665  0.5675  0.0063
 1137TIP3    H124826   0.818   1.859   0.211 -0.0623 -0.3792  1.5179
 1137TIP3    H224827   0.825   2.006   0.247  0.0378  0.2021 -0.7524
 1138TIP3   OH224828   5.004   4.972  10.420 -0.3558 -0.5572 -0.3603
 1138TIP3    H124829   4.916   4.995  10.451 -0.3177  1.1976 -1.4282
 1138TIP3    H224830   4.989   4.901  10.357 -0.9474 -0.6154 -0.1639
 1139TIP3   OH224831   1.738   0.262  13.648 -0.4396  0.2068 -0.4618
 1139TIP3    H124832   1.651   0.235  13.678 -0.7958  0.5999 -1.1239
 1139TIP3    H224833   1.722   0.339  13.594  0.4126  0.8066  0.1232
 1140TIP3   OH224834   4.253   6.071   0.888  0.1140 -0.0519  0.3234
 1140TIP3    H124835   4.295   6.113   0.963  0.2648  0.0073  0.2051
 1140TIP3    H224836   4.211   5.993   0.925  0.4187 -0.1724  0.4222
 1141TIP3   OH224837   3.304   5.774   4.563 -0.8145  0.1815  0.3293
 1141TIP3    H124838   3.355   5.768   4.483 -1.7200  0.2548 -0.2710
 1141TIP3    H224839   3.340   5.851   4.608 -0.6459  0.4570 -0.2629
 1142TIP3   OH224840   4.033   5.289   2.716 -0.3512  0.1902 -0.8099
 1142TIP3    H124841   3.991   5.223   2.772 -0.2554 -0.6818 -1.7305
 1142TIP3    H224842   4.074   5.238   2.646 -0.1793  1.2365 -1.4923
 1143TIP3   OH224843   1.652   4.059   2.517 -0.1295 -0.4293  0.4696
 1143TIP3    H124844   1.712   3.999   2.561  0.1620 -0.8957 -0.5515
 1143TIP3    H224845   1.582   4.073   2.581 -1.0459 -3.1140  0.1785
 1144TIP3   OH224846   4.807   6.671   1.821 -0.5982 -0.0488  0.3214
 1144TIP3    H124847   4.837   6.660   1.731  0.8377  0.3149  0.7317
 1144TIP3    H224848   4.786   6.764   1.829 -2.2054 -0.3593 -0.0532
 1145TIP3   OH224849   2.038   3.201  15.975  0.4077  0.6044 -0.3294
 1145TIP3    H124850   2.101   3.260  15.934  1.5579 -1.3073 -1.4521
 1145TIP3    H224851   1.964   3.199  15.915  0.3723  0.8606 -0.2973
 1146TIP3   OH224852   5.996   2.140  12.630  0.4061 -0.8914 -0.0034
 1146TIP3    H124853   6.009   2.069  12.692  2.2502 -0.3139  0.3415
 1146TIP3    H224854   6.033   2.217  12.673 -1.8619  0.4237 -0.2048
 1147TIP3   OH224855   0.577   4.241   2.497  0.0069 -0.2114  0.8886
 1147TIP3    H124856   0.603   4.316   2.443 -0.0542 -0.7224  0.1286
 1147TIP3    H224857   0.509   4.276   2.554 -1.8289 -0.2020 -1.1564
 1148TIP3   OH224858   1.938   1.413  11.213  0.5578  0.4466  0.6803
 1148TIP3    H124859   1.949   1.319  11.225  1.4078  0.3293 -0.7880
 1148TIP3    H224860   1.971   1.451  11.294  0.9947 -0.4847  0.9545
 1149TIP3   OH224861   4.646   5.768   3.193 -0.7067  0.5074 -0.1487
 1149TIP3    H124862   4.703   5.707   3.147  0.1943  1.1603  0.0789
 1149TIP3    H224863   4.575   5.713   3.227 -0.3524 -0.2758 -0.6494
 1150TIP3   OH224864   5.256   4.028   2.988 -0.1629  0.1952 -0.0693
 1150TIP3    H124865   5.331   4.079   3.020 -0.3893 -0.1229  1.0243
 1150TIP3    H224866   5.190   4.094   2.968  0.3766  0.4749 -0.9875
 1151TIP3   OH224867   5.247   0.794   3.285 -0.5028 -0.4488  0.0883
 1151TIP3    H124868   5.334   0.807   3.247 -0.3786 -1.9940 -0.2214
 1151TIP3    H224869   5.250   0.706   3.323 -2.1838 -0.8489 -0.6210
 1152TIP3   OH224870   2.174   0.223   3.004  0.1882 -0.2141 -0.0648
 1152TIP3    H124871   2.135   0.224   2.916 -1.0118 -1.5324  0.4227
 1152TIP3    H224872   2.237   0.151   3.000  1.1338  0.5987 -0.2268
 1153TIP3   OH224873   2.293   0.990   4.985  0.0367  0.2056  0.1726
 1153TIP3    H124874   2.325   1.075   5.016 -0.9856  0.8510 -0.4849
 1153TIP3    H224875   2.307   0.992   4.890 -0.7817 -0.0060  0.0389
 1154TIP3   OH224876   1.290   4.231  16.981  0.1628  0.1468 -0.0249
 1154TIP3    H124877   1.309   4.166  16.913  2.1937  0.7742 -0.1321
 1154TIP3    H224878   1.376   4.259  17.012 -0.7017  0.7168  2.0298
 1155TIP3   OH224879   3.716   3.790   2.742 -0.2641 -0.0743  0.0189
 1155TIP3    H124880   3.747   3.850   2.674 -1.2512 -1.6351 -1.9067
 1155TIP3    H224881   3.753   3.705   2.717 -2.4494 -1.1139  0.1511
 1156TIP3   OH224882   0.250   0.758  12.531 -0.1926  0.6320  1.0147
 1156TIP3    H124883   0.236   0.823  12.462 -2.1253  0.4738  1.2140
 1156TIP3    H224884   0.341   0.732  12.520 -0.3598  0.7953 -1.3362
 1157TIP3   OH224885   4.442   2.114   4.777 -0.3459  0.8193  0.6144
 1157TIP3    H124886   4.349   2.106   4.755  0.0307 -1.6319 -0.4356
 1157TIP3    H224887   4.447   2.086   4.869 -0.6154  0.7292  0.6034
 1158TIP3   OH224888   1.278   5.177   3.213  0.8963  0.0174  1.0856
 1158TIP3    H124889   1.303   5.088   3.238  1.8823 -0.0427 -0.0200
 1158TIP3    H224890   1.330   5.234   3.270  0.3318 -0.0953  1.7305
 1159TIP3   OH224891   3.629   4.883   5.646 -1.0236 -0.0911 -0.0623
 1159TIP3    H124892   3.648   4.790   5.661  0.9155  0.3703  0.5634
 1159TIP3    H224893   3.614   4.889   5.551  0.1877 -0.8409 -0.3240
 1160TIP3   OH224894   2.540   0.035   5.904 -0.2093  0.2207 -0.0418
 1160TIP3    H124895   2.533   0.122   5.942 -0.6123 -0.4277  1.4827
 1160TIP3    H224896   2.494  -0.022   5.966  0.3954 -1.1324 -0.7698
 1161TIP3   OH224897   5.678   2.744  14.323  0.1078 -1.0401  0.4554
 1161TIP3    H124898   5.745   2.792  14.274  0.8538 -2.0050  0.5088
 1161TIP3    H224899   5.611   2.810  14.342 -0.8169 -0.8278 -2.8740
 1162TIP3   OH224900   5.328   5.981  13.278  0.4837 -0.0376  0.1263
 1162TIP3    H124901   5.280   6.003  13.358  1.2854  2.4858  0.0027
 1162TIP3    H224902   5.399   5.924  13.306  0.8079  0.8871  1.2680
 1163TIP3   OH224903   5.335   6.815  13.953 -0.1449 -0.3619  0.0390
 1163TIP3    H124904   5.306   6.861  14.031  0.3879  1.5330 -0.8201
 1163TIP3    H224905   5.256   6.769  13.922 -0.6570 -0.1730  1.0120
 1164TIP3   OH224906   4.259   6.462   3.466 -0.8340 -0.0050  0.4282
 1164TIP3    H124907   4.206   6.484   3.389 -0.4942  0.2402  0.2612
 1164TIP3    H224908   4.197   6.465   3.539 -1.0007  0.5301  0.2726
 1165TIP3   OH224909   6.745   3.268   1.260  0.5052  0.1206 -0.1372
 1165TIP3    H124910   6.765   3.286   1.352 -1.0667  0.0355  0.2425
 1165TIP3    H224911   6.732   3.173   1.257  0.3812  0.1455 -0.4107
 1166TIP3   OH224912   2.305   5.893  15.074  0.0169  0.1671  0.5536
 1166TIP3    H124913   2.350   5.881  14.990 -2.4233 -0.8477 -0.7066
 1166TIP3    H224914   2.358   5.844  15.137 -0.3800 -2.8194 -1.2546
 1167TIP3   OH224915   5.479   5.129   0.360  0.1245  0.3465  0.0658
 1167TIP3    H124916   5.466   5.138   0.454 -1.5091 -0.6349 -0.0127
 1167TIP3    H224917   5.391   5.110   0.326  0.7686  0.1682 -1.5827
 1168TIP3   OH224918   6.758   2.856  11.232  0.0093  0.2591 -0.2139
 1168TIP3    H124919   6.756   2.844  11.137 -0.4451 -1.4798 -0.0220
 1168TIP3    H224920   6.801   2.777  11.265  1.7168  1.6019  0.9432
 1169TIP3   OH224921   2.443   1.390  12.945  0.2507 -1.0755 -0.4809
 1169TIP3    H124922   2.372   1.417  13.003  0.3277  0.1107 -0.9013
 1169TIP3    H224923   2.407   1.315  12.898 -1.0682 -0.0300 -1.2527
 1170TIP3   OH224924   1.514   3.397   4.564 -0.2786 -0.0475  0.4197
 1170TIP3    H124925   1.605   3.419   4.582 -0.7809  2.2102  0.5102
 1170TIP3    H224926   1.501   3.312   4.606  1.8046 -0.4942  0.2480
 1171TIP3   OH224927   5.427   4.210   3.187  0.3091 -0.1774 -0.1069
 1171TIP3    H124928   5.380   4.289   3.215  0.9758  0.4435 -0.7185
 1171TIP3    H224929   5.499   4.242   3.133  1.0952 -1.1624  0.3315
 1172TIP3   OH224930   4.086   3.497  15.640 -0.0105  0.0373 -0.0343
 1172TIP3    H124931   4.064   3.551  15.564  5.3119  0.7590 -1.4217
 1172TIP3    H224932   4.113   3.413  15.603  2.7347  0.4135  0.9218
 1173TIP3   OH224933   4.523   4.548  13.043 -0.2967 -0.1105 -0.2879
 1173TIP3    H124934   4.578   4.569  12.968 -0.4938 -0.8325 -0.6476
 1173TIP3    H224935   4.543   4.615  13.108 -0.9707  1.2341 -1.4110
 1174TIP3   OH224936   3.250   0.610   4.013 -0.7562  0.2478  0.3624
 1174TIP3    H124937   3.241   0.703   4.034  0.6746  0.0225  2.2615
 1174TIP3    H224938   3.329   0.606   3.960 -1.8956  0.2882 -1.4148
 1175TIP3   OH224939   0.672   2.351  10.622 -0.4370  0.5642  0.1378
 1175TIP3    H124940   0.649   2.301  10.543 -1.0714 -0.0337  0.6926
 1175TIP3    H224941   0.736   2.415  10.591 -0.4722  0.1632 -0.8158
 1176TIP3   OH224942   5.350   3.134   1.476 -0.2098  0.3896  0.3514
 1176TIP3    H124943   5.351   3.217   1.427  0.1685  0.7353  0.9345
 1176TIP3    H224944   5.331   3.160   1.566  1.9637  0.0820  0.9587
 1177TIP3   OH224945   0.633   5.886  13.129 -0.2136  0.4366 -0.0415
 1177TIP3    H124946   0.618   5.802  13.171 -0.2349  0.5675  0.2195
 1177TIP3    H224947   0.726   5.903  13.140 -0.1558  0.3145 -0.3440
 1178TIP3   OH224948   2.934   4.045   2.546  0.0463 -0.7348  0.1273
 1178TIP3    H124949   2.906   4.059   2.636 -1.1567 -0.2981 -0.3007
 1178TIP3    H224950   2.932   4.133   2.507  1.3198 -0.7955 -0.1279
 1179TIP3   OH224951   4.810   6.659   3.598 -0.3544  0.5627  0.2106
 1179TIP3    H124952   4.768   6.741   3.622  0.7717  0.9611  0.8972
 1179TIP3    H224953   4.746   6.592   3.620 -0.5919  1.1434  1.3533
 1180TIP3   OH224954   0.041   4.677  13.321 -0.2868 -0.0379 -0.0946
 1180TIP3    H124955   0.092   4.751  13.354 -1.8894  0.5291  1.2864
 1180TIP3    H224956   0.087   4.599  13.351  0.4341  0.4213  0.0100
 1181TIP3   OH224957   5.911   3.662   5.113 -0.2702 -0.1200  0.3120
 1181TIP3    H124958   5.877   3.729   5.054  2.2767  0.1600 -0.9857
 1181TIP3    H224959   5.953   3.711   5.184 -1.0746 -0.4153  1.0000
 1182TIP3   OH224960   5.617   3.678  11.362  0.2731 -0.0098 -0.0099
 1182TIP3    H124961   5.535   3.727  11.365  0.2626  0.0029 -0.4225
 1182TIP3    H224962   5.591   3.588  11.342  0.4031  0.1159 -0.7540
 1183TIP3   OH224963   2.413   3.143   5.304  0.2246 -0.0872 -0.7270
 1183TIP3    H124964   2.463   3.152   5.223  0.0348  0.7478 -0.7655
 1183TIP3    H224965   2.479   3.134   5.373  0.3789 -1.3559 -1.0213
 1184TIP3   OH224966   6.514   4.307  14.309  0.1382 -0.0916  0.1249
 1184TIP3    H124967   6.557   4.289  14.225 -0.0754  0.2840 -0.0690
 1184TIP3    H224968   6.502   4.221  14.349  1.0053 -0.2109  0.1511
 1185TIP3   OH224969   5.261   3.519   1.601  0.2414 -0.1701 -0.0222
 1185TIP3    H124970   5.283   3.612   1.595  1.6995 -0.5754 -1.7093
 1185TIP3    H224971   5.262   3.501   1.695  0.9931  1.2835  0.2895
 1186TIP3   OH224972   2.236   6.196   1.584 -0.2660  0.3750  0.1693
 1186TIP3    H124973   2.194   6.242   1.657  0.3939  0.6886  0.3491
 1186TIP3    H224974   2.329   6.213   1.594 -0.2972  2.3098 -2.0245
 1187TIP3   OH224975   0.284   5.584   5.454  0.4179  0.4041 -0.4848
 1187TIP3    H124976   0.205   5.627   5.487  1.3352  1.5410  0.3226
 1187TIP3    H224977   0.267   5.570   5.361 -0.9263  0.1567 -0.2188
 1188TIP3   OH224978   3.129   5.712  16.276 -0.4114  0.5255 -0.9619
 1188TIP3    H124979   3.036   5.734  16.280 -0.4460  0.1700  0.9932
 1188TIP3    H224980   3.156   5.737  16.187 -2.9739 -1.8032 -2.5531
 1189TIP3   OH224981   2.507   0.032   0.560  0.1611 -0.0952  0.0125
 1189TIP3    H124982   2.602   0.046   0.566  0.0439  0.3884  0.9635
 1189TIP3    H224983   2.496  -0.062   0.579  0.4356 -0.1019  0.1430
 1190TIP3   OH224984   6.111   6.121  12.416 -0.3188  0.2011 -0.6370
 1190TIP3    H124985   6.102   6.111  12.510 -0.0953  1.3147 -0.4869
 1190TIP3    H224986   6.075   6.208  12.397  1.1792  0.6988 -1.3381
 1191TIP3   OH224987   1.825   4.902   4.825  0.2063 -0.3363 -0.0132
 1191TIP3    H124988   1.889   4.903   4.896 -0.2297 -0.7526  0.3964
 1191TIP3    H224989   1.740   4.903   4.870 -0.0714 -0.9556 -0.5173
 1192TIP3   OH224990   6.382   5.866   3.123 -0.1911  0.0069 -0.6236
 1192TIP3    H124991   6.325   5.859   3.047 -2.1470 -0.9585  0.8466
 1192TIP3    H224992   6.416   5.955   3.120 -0.7028  0.1735 -2.2716
 1193TIP3   OH224993   5.758   0.306  12.674  0.3773 -0.0176 -0.4668
 1193TIP3    H124994   5.720   0.308  12.762 -4.3498 -0.4359 -2.2424
 1193TIP3    H224995   5.782   0.214  12.660  0.7713 -0.0239  0.1935
 1194TIP3   OH224996   2.987   4.138   3.952 -0.2322 -0.0742  0.0796
 1194TIP3    H124997   3.007   4.069   4.016 -0.0862  0.1330  0.2582
 1194TIP3    H224998   2.996   4.095   3.867  1.0466  0.0257  0.1490
 1195TIP3   OH224999   1.153   2.017   0.895  0.1761  0.0533  0.4157
 1195TIP3    H125000   1.162   1.925   0.922  0.6727  0.0241  0.1663
 1195TIP3    H225001   1.167   2.016   0.801  0.6757  0.4478  0.4820
 1196TIP3   OH225002   5.425   1.128  12.031 -0.0747 -0.1434  0.5281
 1196TIP3    H125003   5.460   1.078  11.957 -0.2012 -0.1916  0.5009
 1196TIP3    H225004   5.361   1.188  11.993  0.0805  0.0437  0.5610
 1197TIP3   OH225005   5.612   3.685   0.621 -0.1080  0.0914  0.0557
 1197TIP3    H125006   5.667   3.725   0.689  0.3089 -1.2210  0.5241
 1197TIP3    H225007   5.609   3.593   0.645  1.0622 -0.6496 -2.4027
 1198TIP3   OH225008   1.280   6.436  12.449  0.2737 -0.2864 -0.5467
 1198TIP3    H125009   1.250   6.508  12.504  0.5160  0.3527 -1.2344
 1198TIP3    H225010   1.200   6.387  12.428  0.3378 -1.3310  1.4420
 1199TIP3   OH225011   2.068   0.750  16.271 -0.5467  0.0347 -0.9448
 1199TIP3    H125012   1.986   0.750  16.221  0.6534 -0.6394 -3.0321
 1199TIP3    H225013   2.112   0.831  16.246 -1.5755  1.7133  2.1142
 1200TIP3   OH225014   4.859   4.740   3.434  0.4802 -0.2388  0.0745
 1200TIP3    H125015   4.802   4.683   3.382  1.9635 -1.8235  0.0686
 1200TIP3    H225016   4.803   4.775   3.503 -1.0037  0.1198 -1.2619
 1201TIP3   OH225017   4.765   6.210  15.473  0.4874 -0.1275  0.2651
 1201TIP3    H125018   4.691   6.201  15.414  2.7493  0.2350 -2.9251
 1201TIP3    H225019   4.798   6.298  15.457  2.1483 -0.5949  0.8753
 1202TIP3   OH225020   3.061   3.614   3.365  0.0404 -0.2393 -0.7187
 1202TIP3    H125021   2.977   3.576   3.337 -0.1263  0.5423 -1.3377
 1202TIP3    H225022   3.085   3.673   3.294  0.8024  0.0311 -0.2503
 1203TIP3   OH225023   4.130   0.741   0.316 -0.2720  0.3940 -0.5674
 1203TIP3    H125024   4.089   0.654   0.315 -0.9727  0.6503  1.6089
 1203TIP3    H225025   4.143   0.762   0.223 -0.8684 -1.6548 -1.1709
 1204TIP3   OH225026   0.314   3.160   3.123 -0.0112  0.3047 -0.4822
 1204TIP3    H125027   0.383   3.210   3.080  0.8482  0.2100  0.7222
 1204TIP3    H225028   0.361   3.094   3.175 -0.9427  0.8512  1.1299
 1205TIP3   OH225029   6.241   3.457   0.444  0.1538  0.0178  0.1589
 1205TIP3    H125030   6.286   3.382   0.405  1.0939  0.9466 -0.5853
 1205TIP3    H225031   6.208   3.507   0.369  0.7994  1.1097  0.5748
 1206TIP3   OH225032   1.598   4.121  12.500 -0.0490  0.0972  0.1608
 1206TIP3    H125033   1.525   4.141  12.441 -0.3725  3.0860  1.3714
 1206TIP3    H225034   1.557   4.098  12.583  0.4055 -0.7129  0.1682
 1207TIP3   OH225035   2.296   1.676   6.197  0.2394 -0.5779  0.3286
 1207TIP3    H125036   2.295   1.594   6.148  0.9041  0.9783 -2.4814
 1207TIP3    H225037   2.214   1.720   6.172  0.8715  0.5123  0.1199
 1208TIP3   OH225038   6.580   3.211   5.165  0.0320  0.5221  0.1032
 1208TIP3    H125039   6.610   3.299   5.188  0.8370  0.8871 -2.0692
 1208TIP3    H225040   6.661   3.159   5.160 -0.3520 -0.1233  0.4759
 1209TIP3   OH225041   6.077   4.851   5.040 -0.5017 -0.5159 -0.3516
 1209TIP3    H125042   6.041   4.939   5.051 -0.4324 -0.4127 -0.9080
 1209TIP3    H225043   6.093   4.821   5.129 -1.3930 -0.3279 -0.1125
 1210TIP3   OH225044   1.006   2.691   4.554 -0.6464  0.0195 -0.5760
 1210TIP3    H125045   1.065   2.621   4.580 -0.6373  0.1189 -0.3206
 1210TIP3    H225046   1.044   2.726   4.473  0.6832  1.2740  0.5068
 1211TIP3   OH225047   1.841   5.353  12.192 -0.4808 -0.8614  0.2722
 1211TIP3    H125048   1.782   5.398  12.131  0.4393 -0.7414 -0.5476
 1211TIP3    H225049   1.871   5.276  12.145 -0.0144 -0.9464  0.6940
 1212TIP3   OH225050   0.024   0.055  16.892 -0.0950 -0.3841  0.3175
 1212TIP3    H125051   0.052   0.008  16.814  1.9380  2.4201 -0.8247
 1212TIP3    H225052   0.104   0.071  16.942 -0.2688  3.1704 -0.2595
 1213TIP3   OH225053   0.018   3.359   2.559  0.6566 -0.1839  0.2537
 1213TIP3    H125054  -0.009   3.271   2.583 -1.8933 -0.0827 -1.8571
 1213TIP3    H225055   0.086   3.347   2.492 -2.5326 -0.8478 -3.2057
 1214TIP3   OH225056   2.066   0.621   4.197  0.5033 -0.3340  0.2633
 1214TIP3    H125057   2.062   0.527   4.175  0.6807  0.1038 -1.9464
 1214TIP3    H225058   2.140   0.654   4.145  0.3040  1.0830  0.8369
 1215TIP3   OH225059   1.362   6.729  15.990  1.0400  0.0583  0.7964
 1215TIP3    H125060   1.368   6.634  15.979  0.3619  0.0712  0.1620
 1215TIP3    H225061   1.432   6.751  16.050  3.3367 -0.4199 -1.5399
 1216TIP3   OH225062   0.671   6.524  11.396  0.6749 -0.0585  0.1753
 1216TIP3    H125063   0.715   6.594  11.348  0.0808  0.2428  0.0611
 1216TIP3    H225064   0.719   6.445  11.373 -0.6508 -0.2339 -2.3692
 1217TIP3   OH225065   3.970   3.761  13.985 -0.5989 -0.5594 -0.2869
 1217TIP3    H125066   3.887   3.806  13.967  0.2211  0.7529 -0.9079
 1217TIP3    H225067   4.019   3.822  14.040  0.4178 -0.8307 -0.8682
 1218TIP3   OH225068   2.925   3.625  14.967 -0.2560  0.3329 -0.0917
 1218TIP3    H125069   2.999   3.573  14.998  1.0188  0.4518 -2.6206
 1218TIP3    H225070   2.956   3.663  14.884 -2.2677  2.4926  0.0377
 1219TIP3   OH225071   6.178   1.901  12.796 -0.5358  0.0531 -0.0464
 1219TIP3    H125072   6.240   1.836  12.830 -0.7479 -1.1396 -1.8439
 1219TIP3    H225073   6.093   1.859  12.802 -0.7421  0.3548 -0.7681
 1220TIP3   OH225074   4.565   1.849   0.397  0.6359  0.0219  0.3733
 1220TIP3    H125075   4.576   1.899   0.316 -0.2787 -1.8721 -1.0012
 1220TIP3    H225076   4.472   1.824   0.398  0.6026  0.0728  2.0766
 1221TIP3   OH225077   3.727   2.788  15.641  0.7157  0.2908 -0.6268
 1221TIP3    H125078   3.770   2.832  15.568  1.5820 -0.2697 -0.4698
 1221TIP3    H225079   3.642   2.760  15.605  1.1697 -0.0701 -1.4476
 1222TIP3   OH225080   5.743   2.128   0.801  0.8311 -0.0374  0.4817
 1222TIP3    H125081   5.767   2.170   0.719  1.2153 -1.7867 -0.3592
 1222TIP3    H225082   5.758   2.194   0.868 -0.3390  1.7460 -0.9159
 1223TIP3   OH225083   5.031   0.625   5.502  0.1433  0.9890 -0.4609
 1223TIP3    H125084   4.992   0.557   5.557 -0.1850  1.8440  0.3964
 1223TIP3    H225085   4.966   0.641   5.433  1.0188 -0.8542 -1.7983
 1224TIP3   OH225086   2.665   1.601   4.817 -0.5216 -0.2311 -0.1108
 1224TIP3    H125087   2.581   1.636   4.849 -0.1441  0.6106 -0.0052
 1224TIP3    H225088   2.728   1.625   4.885  0.1910  1.0932 -1.1955
 1225TIP3   OH225089   2.938   3.312   4.820  0.1292  0.0164  0.0532
 1225TIP3    H125090   3.030   3.306   4.849  0.3210  1.8636 -0.0913
 1225TIP3    H225091   2.936   3.266   4.736  0.7304 -0.7266  0.4288
 1226TIP3   OH225092   3.574   0.532   0.886  0.1405  0.5155  0.2981
 1226TIP3    H125093   3.592   0.558   0.977 -0.2336 -0.1198  0.5580
 1226TIP3    H225094   3.632   0.457   0.871  0.1789  0.6012  0.0244
 1227TIP3   OH225095   2.274   5.977  14.694 -0.6231  0.4104 -0.4132
 1227TIP3    H125096   2.246   5.885  14.701 -0.6478  0.4088 -0.5284
 1227TIP3    H225097   2.320   5.994  14.776 -1.8743  0.7297  0.2436
 1228TIP3   OH225098   5.280   1.293  13.457 -0.6926 -0.4236  0.3200
 1228TIP3    H125099   5.272   1.232  13.383 -0.4875  1.4592 -1.3588
 1228TIP3    H225100   5.194   1.333  13.465 -0.6105 -0.3513  0.8461
 1229TIP3   OH225101   5.385   5.476  14.974  0.4455 -0.0065  0.2210
 1229TIP3    H125102   5.424   5.464  14.888 -1.5585  0.3019 -0.7961
 1229TIP3    H225103   5.334   5.396  14.989 -1.1696  0.9294 -0.0171
 1230TIP3   OH225104   2.345   2.818  16.591 -0.2720 -0.0103 -0.2309
 1230TIP3    H125105   2.361   2.912  16.592  2.0886 -0.3563  0.4819
 1230TIP3    H225106   2.400   2.785  16.520  0.1309 -1.0097  0.5276
 1231TIP3   OH225107   3.648   5.995   1.063  0.2269 -0.0526  0.3201
 1231TIP3    H125108   3.649   5.906   1.028 -1.6498 -0.4372  1.0998
 1231TIP3    H225109   3.568   5.999   1.115  0.4445  2.0016  0.5790
 1232TIP3   OH225110   4.269   4.161   3.981 -0.4908  0.3250  0.0438
 1232TIP3    H125111   4.264   4.084   3.924 -0.9568  0.3193  0.0893
 1232TIP3    H225112   4.347   4.208   3.950 -0.9403  0.5103 -0.8519
 1233TIP3   OH225113   3.999   4.891  14.132  0.4251  0.3062  0.1821
 1233TIP3    H125114   3.913   4.861  14.103 -0.0896  1.0984  0.8096
 1233TIP3    H225115   4.032   4.820  14.187  0.7678 -0.5690 -1.1401
 1234TIP3   OH225116   4.386   4.063  11.860 -0.0875 -0.2201 -0.3905
 1234TIP3    H125117   4.433   4.026  11.934 -1.7750 -3.1250 -0.5957
 1234TIP3    H225118   4.296   4.072  11.891 -0.1983  1.5735 -1.1419
 1235TIP3   OH225119   2.946   2.728  11.017 -0.0622 -0.0270 -0.2988
 1235TIP3    H125120   2.970   2.664  10.950  0.9134  0.0826 -0.0670
 1235TIP3    H225121   2.884   2.682  11.073  2.8984 -1.8941  1.7032
 1236TIP3   OH225122   5.462   4.684   6.364  1.2357  0.1284 -0.1316
 1236TIP3    H125123   5.402   4.624   6.321  0.1487  1.2715 -0.2905
 1236TIP3    H225124   5.530   4.629   6.401  0.9024 -1.0816 -1.2632
 1237TIP3   OH225125   6.743   3.251  16.343 -0.8542  0.3907 -0.5740
 1237TIP3    H125126   6.743   3.159  16.314 -1.4433  0.6485 -1.4236
 1237TIP3    H225127   6.714   3.247  16.434  1.2131 -0.4583  0.1079
 1238TIP3   OH225128   4.736   1.728  11.475 -0.5466 -0.2335 -0.1006
 1238TIP3    H125129   4.800   1.671  11.517  0.4660  0.7566 -0.2538
 1238TIP3    H225130   4.780   1.761  11.397 -1.4691 -0.0104 -0.5445
 1239TIP3   OH225131   4.745   4.497  16.995  0.0111  0.4457  0.3238
 1239TIP3    H125132   4.700   4.461  17.072  1.0103 -3.0946 -0.6013
 1239TIP3    H225133   4.837   4.496  17.019  0.2748 -0.0819 -0.6904
 1240TIP3   OH225134   5.495   6.695  13.364 -0.2011  0.1768  0.1478
 1240TIP3    H125135   5.568   6.676  13.423  1.2348  0.9046 -1.3140
 1240TIP3    H225136   5.478   6.789  13.376 -0.5468  0.1196  0.1107
 1241TIP3   OH225137   1.860   2.561   0.388 -0.6166 -0.4357 -0.4641
 1241TIP3    H125138   1.873   2.655   0.400  0.1999 -0.7481  1.3708
 1241TIP3    H225139   1.775   2.554   0.344 -1.2185  1.1193  0.3934
 1242TIP3   OH225140   1.780   1.162   0.350  0.0430  0.1405 -0.5801
 1242TIP3    H125141   1.836   1.184   0.425 -1.0685  1.1576 -0.0112
 1242TIP3    H225142   1.705   1.116   0.389  0.0271 -0.3738 -1.2099
 1243TIP3   OH225143   6.648   6.688  14.830 -0.7170 -0.0712 -0.1902
 1243TIP3    H125144   6.696   6.755  14.877 -0.2571  0.9062 -1.9374
 1243TIP3    H225145   6.593   6.646  14.896  1.0421  0.1313  1.4721
 1244TIP3   OH225146   0.773   5.801   1.780  0.4990 -0.2888 -0.7470
 1244TIP3    H125147   0.828   5.735   1.738 -0.5777 -0.7823 -1.4340
 1244TIP3    H225148   0.712   5.828   1.711 -0.3006  0.0272  0.0689
 1245TIP3   OH225149   1.057   2.119  11.199  0.0338 -0.0283  0.2774
 1245TIP3    H125150   1.076   2.155  11.113  0.8603 -0.3857  0.3050
 1245TIP3    H225151   1.127   2.152  11.255  0.5488 -1.2752  0.4058
 1246TIP3   OH225152   5.708   0.567  14.377  0.9179 -0.2490  0.1563
 1246TIP3    H125153   5.648   0.573  14.302  0.7176  2.7545  0.4494
 1246TIP3    H225154   5.790   0.536  14.338 -0.0680 -1.9125 -0.6968
 1247TIP3   OH225155   0.330   3.038  16.766  0.2567 -0.0852  0.4568
 1247TIP3    H125156   0.385   3.116  16.761  0.3593 -0.0792  1.4235
 1247TIP3    H225157   0.332   3.013  16.859 -3.4779  1.4285  1.1377
 1248TIP3   OH225158   5.314   1.920   0.445  0.0018  0.3349 -0.0249
 1248TIP3    H125159   5.359   1.877   0.372  0.5580 -1.0137  1.0537
 1248TIP3    H225160   5.298   2.009   0.415 -1.4486 -0.6531 -2.4862
 1249TIP3   OH225161   6.525   2.038   4.321  0.5162 -0.2228  0.2569
 1249TIP3    H125162   6.613   2.076   4.322  1.4769 -2.3395  1.7896
 1249TIP3    H225163   6.513   2.002   4.409 -1.5011 -0.8689 -0.2313
 1250TIP3   OH225164   4.203   6.666   5.446 -0.4522 -0.1362 -0.4913
 1250TIP3    H125165   4.194   6.571   5.445  2.1552 -0.4506 -1.1356
 1250TIP3    H225166   4.180   6.694   5.358 -1.0902 -0.1640 -0.3385
 1251TIP3   OH225167   4.729   5.416  15.911  0.5905 -0.4431 -0.3507
 1251TIP3    H125168   4.712   5.426  16.005 -1.6615  1.4733 -0.8464
 1251TIP3    H225169   4.693   5.496  15.872  0.6410 -1.5767 -2.9398
 1252TIP3   OH225170   0.856   1.632  14.697  0.3186 -0.1787  0.5545
 1252TIP3    H125171   0.852   1.572  14.623  2.2486  2.7265 -2.1379
 1252TIP3    H225172   0.764   1.652  14.717 -0.2589 -0.7500 -1.3397
 1253TIP3   OH225173   6.715   1.604   3.214  0.0648 -0.1429  0.2460
 1253TIP3    H125174   6.665   1.604   3.296 -1.0071 -1.0881 -0.3735
 1253TIP3    H225175   6.649   1.614   3.145  0.9528  0.6910 -0.5080
 1254TIP3   OH225176   1.203   5.390  15.476  0.1153 -0.6512 -0.2679
 1254TIP3    H125177   1.259   5.345  15.540  1.8363  0.7198 -0.7084
 1254TIP3    H225178   1.233   5.481  15.480 -0.8287 -0.2454 -1.9045
 1255TIP3   OH225179   5.865   6.261   1.544  0.4116 -0.3910 -0.2559
 1255TIP3    H125180   5.844   6.325   1.612  0.6610 -1.1943  0.6039
 1255TIP3    H225181   5.816   6.290   1.468 -1.3160 -0.4459  0.7771
 1256TIP3   OH225182   3.573   3.065   0.400  0.1648  0.2831  0.1279
 1256TIP3    H125183   3.645   3.128   0.405 -0.6169  1.0782  2.7332
 1256TIP3    H225184   3.610   2.984   0.434  0.3417  0.1323 -0.4065
 1257TIP3   OH225185   5.155   1.580  16.187  0.1268  0.0135 -0.3103
 1257TIP3    H125186   5.162   1.674  16.168  0.7974  0.0670  0.1399
 1257TIP3    H225187   5.227   1.563  16.248  1.0377 -1.1230 -1.6417
 1258TIP3   OH225188   0.862   2.764  10.739  0.0482  0.5987  0.1398
 1258TIP3    H125189   0.942   2.810  10.765  0.2673  0.3706 -0.1244
 1258TIP3    H225190   0.893   2.687  10.691 -0.2899 -0.3449  1.3877
 1259TIP3   OH225191   0.280   6.255  13.763 -0.1121 -0.2916  0.5432
 1259TIP3    H125192   0.307   6.222  13.849 -0.6949 -1.1626  0.4000
 1259TIP3    H225193   0.288   6.179  13.705 -1.2968 -0.1466  0.1715
 1260TIP3   OH225194   2.504   3.786  16.073 -0.1784 -0.4687 -0.0288
 1260TIP3    H125195   2.589   3.783  16.028 -0.6544 -0.7254 -0.9441
 1260TIP3    H225196   2.518   3.845  16.147  1.0435 -1.2187  0.3654
 1261TIP3   OH225197   6.167   6.062   1.020 -0.0475 -0.0233 -0.3601
 1261TIP3    H125198   6.113   6.014   0.957 -0.9827 -0.5793  0.8243
 1261TIP3    H225199   6.108   6.083   1.091  1.2688 -0.5924  0.9555
 1262TIP3   OH225200   5.620   3.303  16.788  0.4996 -0.3761  0.4491
 1262TIP3    H125201   5.626   3.306  16.692 -0.4752  0.9743  0.4023
 1262TIP3    H225202   5.686   3.365  16.818  0.7716 -0.7631  0.6668
 1263TIP3   OH225203   4.720   2.759  15.611 -0.5799 -0.1100  0.9508
 1263TIP3    H125204   4.764   2.830  15.658 -2.0227  1.1213  0.5263
 1263TIP3    H225205   4.745   2.772  15.520 -0.3032 -0.5766  0.9596
 1264TIP3   OH225206   5.869   3.436  14.532  0.4667  0.8511  0.0775
 1264TIP3    H125207   5.949   3.436  14.585  0.9007 -0.9892 -0.5063
 1264TIP3    H225208   5.898   3.410  14.445 -0.2282  3.9886 -1.1877
 1265TIP3   OH225209   3.664   3.354  11.466  0.0337  0.2508 -0.4649
 1265TIP3    H125210   3.670   3.446  11.492  1.4843  0.2276 -0.6831
 1265TIP3    H225211   3.634   3.309  11.545 -0.9214  0.9270 -0.4235
 1266TIP3   OH225212   5.362   0.357   0.675  0.6709 -0.2940  0.4498
 1266TIP3    H125213   5.440   0.411   0.687 -0.8479  1.5965  2.8096
 1266TIP3    H225214   5.371   0.287   0.740  1.4065 -1.4418 -0.8359
 1267TIP3   OH225215   6.635   6.078   4.030 -0.4409 -0.2376  0.2199
 1267TIP3    H125216   6.653   6.030   4.111  0.4551 -0.3093 -0.0025
 1267TIP3    H225217   6.702   6.046   3.969  0.4540  1.5686  0.1735
 1268TIP3   OH225218   5.764   1.163  15.201 -0.0886 -0.1479 -0.5699
 1268TIP3    H125219   5.840   1.141  15.147 -0.9798 -0.9209 -1.5501
 1268TIP3    H225220   5.689   1.131  15.151 -1.0640  0.5486  0.4012
 1269TIP3   OH225221   1.463   5.920  14.106 -0.4435  0.3086  0.3200
 1269TIP3    H125222   1.381   5.919  14.058 -0.7109  1.1505  0.7418
 1269TIP3    H225223   1.500   5.833  14.092 -2.4952 -0.9294  2.0086
 1270TIP3   OH225224   5.570   3.129  10.496 -0.3631  0.2791  0.1583
 1270TIP3    H125225   5.606   3.061  10.552 -0.2204 -0.0538 -0.3268
 1270TIP3    H225226   5.498   3.087  10.449 -2.7584  1.4422  2.5442
 1271TIP3   OH225227   1.453   2.867  14.745 -0.1694 -0.3043 -0.0160
 1271TIP3    H125228   1.542   2.902  14.754  0.3666 -1.2597 -1.2380
 1271TIP3    H225229   1.445   2.846  14.652 -1.4791 -0.7521  0.1802
 1272TIP3   OH225230   1.008   3.123  12.704 -0.1806  0.3440 -0.1799
 1272TIP3    H125231   0.935   3.186  12.705  0.1770  0.7957 -1.4253
 1272TIP3    H225232   0.983   3.057  12.769 -2.5125 -0.4132 -1.7236
 1273TIP3   OH225233   0.491   3.156   2.782  0.1641 -0.7604 -0.5960
 1273TIP3    H125234   0.517   3.178   2.871 -1.6133 -0.6942 -0.0390
 1273TIP3    H225235   0.463   3.065   2.787 -1.6711 -0.2481 -0.6143
 1274TIP3   OH225236   4.374   0.955   6.673 -0.8149  0.0642  0.4927
 1274TIP3    H125237   4.454   1.007   6.663 -1.1855  0.7084  0.8092
 1274TIP3    H225238   4.307   1.019   6.695 -1.9942 -0.0841 -2.2287
 1275TIP3   OH225239   5.558   5.722   2.168  0.1483 -0.1670 -0.3520
 1275TIP3    H125240   5.520   5.664   2.235  0.3474 -0.8267 -0.8065
 1275TIP3    H225241   5.529   5.809   2.194  0.5887 -0.3575  0.8548
 1276TIP3   OH225242   6.315   3.026  14.687  0.0690 -0.1819  0.5075
 1276TIP3    H125243   6.268   2.976  14.754  0.4619  0.0511  0.9640
 1276TIP3    H225244   6.359   2.959  14.634 -0.7749 -0.4008  0.0695
 1277TIP3   OH225245   0.464   5.425   6.375  0.0259 -0.0273  0.1806
 1277TIP3    H125246   0.494   5.334   6.378  0.9254  0.2787  1.0309
 1277TIP3    H225247   0.541   5.475   6.348 -0.1637  0.5973  0.7681
 1278TIP3   OH225248   2.895   5.966   5.145 -0.2304 -0.9174 -0.4453
 1278TIP3    H125249   2.920   5.935   5.233  1.0544  2.0009  0.3237
 1278TIP3    H225250   2.824   5.907   5.119 -0.2481 -2.2890  2.2812
 1279TIP3   OH225251   6.739   3.905   4.182 -0.7792 -0.2357 -0.1529
 1279TIP3    H125252   6.671   3.841   4.158  0.4502 -1.2604 -1.0467
 1279TIP3    H225253   6.783   3.925   4.099  0.6034 -0.2896  0.5488
 1280TIP3   OH225254   4.552   3.020   4.513 -0.2406  0.1138  0.6183
 1280TIP3    H125255   4.627   3.017   4.454  0.4290 -0.4624  1.4732
 1280TIP3    H225256   4.489   2.960   4.473  0.1117 -0.0910  0.3567
 1281TIP3   OH225257   1.630   6.035   4.885 -0.7469 -0.2815 -0.1774
 1281TIP3    H125258   1.651   6.082   4.965 -1.3424  0.6672 -0.5573
 1281TIP3    H225259   1.695   6.065   4.822 -1.4505  0.4894 -0.5702
 1282TIP3   OH225260   3.940   1.191  13.773 -0.7998  0.0839  0.0865
 1282TIP3    H125261   3.857   1.230  13.801 -0.1794  1.4435  0.1058
 1282TIP3    H225262   3.938   1.196  13.677  0.3351  2.5898  0.1138
 1283TIP3   OH225263   3.111   4.568   6.168  0.0070 -0.5937  0.4387
 1283TIP3    H125264   3.176   4.611   6.223 -1.6666 -0.9125  2.7964
 1283TIP3    H225265   3.150   4.484   6.145  0.7651 -0.4343  1.1089
 1284TIP3   OH225266   6.468   0.743  15.970  0.1832 -0.4898  0.3048
 1284TIP3    H125267   6.544   0.799  15.954  0.1948 -0.4049  0.6560
 1284TIP3    H225268   6.490   0.660  15.927  0.6521 -0.6025  0.7509
 1285TIP3   OH225269   4.094   2.192   6.254  0.0127 -0.3462  0.6838
 1285TIP3    H125270   4.169   2.203   6.312 -0.7318 -0.7268  1.7400
 1285TIP3    H225271   4.060   2.105   6.275  0.3555 -0.9491 -1.0905
 1286TIP3   OH225272   0.796   2.125   1.782 -0.0156  0.0485 -0.1287
 1286TIP3    H125273   0.847   2.169   1.851  2.1073 -1.5175 -0.6021
 1286TIP3    H225274   0.827   2.164   1.701  0.3963 -0.8483 -0.4150
 1287TIP3   OH225275   3.138   3.641  14.187  0.0623  0.6292 -0.4652
 1287TIP3    H125276   3.081   3.715  14.207 -0.5261 -0.0200  0.3576
 1287TIP3    H225277   3.110   3.612  14.100 -0.6446  0.5377 -0.2140
 1288TIP3   OH225278   6.582   4.836   2.919 -0.0020  0.1128 -0.3309
 1288TIP3    H125279   6.584   4.764   2.982 -1.7328 -0.1414 -0.5137
 1288TIP3    H225280   6.525   4.805   2.849  2.3060  0.1596 -2.3704
 1289TIP3   OH225281   2.414   3.703  15.571 -0.0572  0.0351  0.2107
 1289TIP3    H125282   2.354   3.763  15.615  1.3516  0.6597  1.3777
 1289TIP3    H225283   2.476   3.760  15.526 -0.2441 -0.5954 -0.8885
 1290TIP3   OH225284   2.305   4.202   3.370 -0.6374  0.3408  0.1192
 1290TIP3    H125285   2.358   4.186   3.448  0.8701 -1.1487 -1.0931
 1290TIP3    H225286   2.314   4.295   3.353 -1.2338  0.7437  1.8572
 1291TIP3   OH225287   3.410   2.632   0.283  0.0753  0.2779 -0.2279
 1291TIP3    H125288   3.384   2.641   0.191  0.3400  0.2935 -0.3038
 1291TIP3    H225289   3.329   2.617   0.330 -0.1570  1.0483 -0.3626
 1292TIP3   OH225290   5.831   3.431   6.324 -0.3405  0.0885  0.0344
 1292TIP3    H125291   5.804   3.340   6.339 -0.9585  0.5562  2.0681
 1292TIP3    H225292   5.754   3.473   6.286 -0.4257  0.0086  0.1188
 1293TIP3   OH225293   4.317   1.828  16.588  0.0920 -0.2373  0.0791
 1293TIP3    H125294   4.234   1.784  16.566 -0.1406 -0.4560  1.3246
 1293TIP3    H225295   4.371   1.818  16.509 -1.1861  0.2175 -0.8928
 1294TIP3   OH225296   4.189   1.573   2.274  0.3829  0.2846 -0.4924
 1294TIP3    H125297   4.119   1.547   2.335  1.2840 -0.7385  0.1297
 1294TIP3    H225298   4.250   1.624   2.329  0.0943  1.2703 -1.0567
 1295TIP3   OH225299   6.777   4.148  16.652 -0.0005  0.0415 -0.3990
 1295TIP3    H125300   6.846   4.087  16.678 -0.1960  0.1254  0.3402
 1295TIP3    H225301   6.711   4.093  16.611  1.1151  0.1313 -2.4240
 1296TIP3   OH225302   1.157   5.736   3.619  0.7558  0.1005 -0.6871
 1296TIP3    H125303   1.229   5.799   3.619  2.3062 -1.5690  0.0274
 1296TIP3    H225304   1.194   5.656   3.581  0.0456 -1.5273  1.7344
 1297TIP3   OH225305   6.578   3.926  13.188  0.0246  0.2469 -0.4722
 1297TIP3    H125306   6.584   3.896  13.097 -1.1155 -2.0747  0.1383
 1297TIP3    H225307   6.615   4.014  13.186 -0.0132  0.3087 -3.1878
 1298TIP3   OH225308   2.330   3.945   6.071 -0.3820  0.8205  0.1618
 1298TIP3    H125309   2.268   4.008   6.034 -0.7883  1.0634  1.2452
 1298TIP3    H225310   2.283   3.903   6.143  0.1622 -0.1574 -0.0324
 1299TIP3   OH225311   4.024   6.515  14.679  0.2054  0.5948  0.0412
 1299TIP3    H125312   3.994   6.598  14.641  0.3646  0.9142  0.5979
 1299TIP3    H225313   4.109   6.536  14.718  0.8276 -0.1343 -0.8926
 1300TIP3   OH225314   5.438   6.052  14.527 -0.3333 -0.0118 -0.3256
 1300TIP3    H125315   5.426   5.964  14.492 -1.1236 -0.6105  1.3149
 1300TIP3    H225316   5.519   6.047  14.577 -0.7341 -0.0136  0.3329
 1301TIP3   OH225317   4.041   4.239   1.534  0.3983 -0.1207  0.1631
 1301TIP3    H125318   3.949   4.215   1.524  0.1996  0.9346 -0.7159
 1301TIP3    H225319   4.049   4.269   1.624  0.2723 -1.7774  0.7588
 1302TIP3   OH225320   6.170   2.617   2.270 -0.1524  0.0887  0.3169
 1302TIP3    H125321   6.189   2.677   2.198 -0.3846 -0.8052 -0.5095
 1302TIP3    H225322   6.150   2.675   2.344  1.4671  1.0339  0.0669
 1303TIP3   OH225323   3.671   5.013  14.844  0.4500 -0.1650  0.7704
 1303TIP3    H125324   3.641   5.077  14.909  0.5942  1.4803 -0.7198
 1303TIP3    H225325   3.593   4.994  14.792  1.0522  1.2309 -0.7317
 1304TIP3   OH225326   4.954   3.951  11.749 -0.6538  0.2179 -0.3084
 1304TIP3    H125327   4.981   3.894  11.677 -2.4439 -1.2811  0.1262
 1304TIP3    H225328   5.032   3.962  11.802  0.0191 -0.8773 -1.0467
 1305TIP3   OH225329   1.803   1.294   0.082 -0.3110  0.4896 -0.6310
 1305TIP3    H125330   1.792   1.247   0.165  2.5809 -0.2492 -0.5601
 1305TIP3    H225331   1.716   1.296   0.044 -1.2879 -1.3162  1.2849
 1306TIP3   OH225332   2.237   5.763   2.174 -0.3126  0.1462 -0.0256
 1306TIP3    H125333   2.220   5.704   2.100 -1.0929  0.3241  0.0018
 1306TIP3    H225334   2.288   5.835   2.136  1.3886 -0.9426  0.1132
 1307TIP3   OH225335   5.354   1.501  16.366 -0.2940 -0.3961 -0.3538
 1307TIP3    H125336   5.390   1.423  16.408 -2.1614 -1.1714 -0.0826
 1307TIP3    H225337   5.429   1.559  16.356  1.0507 -1.9865 -0.0455
 1308TIP3   OH225338   0.759   4.138  13.234 -0.3563  0.2837 -0.1962
 1308TIP3    H125339   0.739   4.047  13.259  0.8669 -0.3301 -1.2947
 1308TIP3    H225340   0.692   4.160  13.170  0.6674 -0.6999 -1.6594
 1309TIP3   OH225341   0.421   5.946  10.863  0.2645 -0.0865  0.5522
 1309TIP3    H125342   0.427   5.850  10.871  0.9234  0.0178  1.4297
 1309TIP3    H225343   0.371   5.960  10.782  0.4674 -1.1687  0.2239
 1310TIP3   OH225344   1.416   6.535   2.635 -0.0920 -0.1236 -0.1712
 1310TIP3    H125345   1.511   6.548   2.633  0.1942 -1.4653  1.7803
 1310TIP3    H225346   1.394   6.506   2.547  1.5607 -1.1002 -0.3074
 1311TIP3   OH225347   0.562   1.813  16.486  0.3494 -0.1134  0.2967
 1311TIP3    H125348   0.612   1.890  16.459  0.0196 -0.5384 -1.6234
 1311TIP3    H225349   0.609   1.739  16.449 -0.0115 -0.7579  1.0906
 1312TIP3   OH225350   3.716   0.255  12.214  0.9689  0.0036  0.1335
 1312TIP3    H125351   3.661   0.333  12.205  0.9821  0.1355  1.0139
 1312TIP3    H225352   3.780   0.280  12.281  0.6375 -0.9387  0.8259
 1313TIP3   OH225353   1.848   2.538   4.679 -0.6128 -0.3956  0.4483
 1313TIP3    H125354   1.908   2.492   4.620 -2.3653 -0.6152 -1.2765
 1313TIP3    H225355   1.860   2.631   4.657  1.2251 -0.1437  2.2687
 1314TIP3   OH225356   3.300   0.373  11.538 -0.7465 -0.3262 -0.0991
 1314TIP3    H125357   3.319   0.413  11.453 -0.5407  0.1521  0.1684
 1314TIP3    H225358   3.381   0.384  11.587 -0.9577 -0.3520  0.2553
 1315TIP3   OH225359   6.138   6.499  13.980 -0.0721 -0.1061  0.0814
 1315TIP3    H125360   6.174   6.411  13.995 -0.6746 -0.2007  1.1282
 1315TIP3    H225361   6.202   6.558  14.019 -0.2286 -0.1636  0.4293
 1316TIP3   OH225362   6.562   4.159   1.957 -0.0791 -0.2691  0.4599
 1316TIP3    H125363   6.608   4.153   2.040 -0.0228  0.4761  0.4921
 1316TIP3    H225364   6.472   4.136   1.978 -0.0269 -0.2629  0.6943
 1317TIP3   OH225365   1.038   1.880   1.880 -0.2439 -0.5374  0.3679
 1317TIP3    H125366   0.954   1.886   1.927 -0.6172 -1.3782 -0.1684
 1317TIP3    H225367   1.103   1.908   1.944 -0.7650 -1.4735  1.3397
 1318TIP3   OH225368   2.430   2.992  12.873  0.2094  0.2456  0.3067
 1318TIP3    H125369   2.506   3.051  12.875  0.1261  0.4504 -1.4344
 1318TIP3    H225370   2.366   3.037  12.818  0.7098 -2.0891 -2.3518
 1319TIP3   OH225371   4.021   1.644   5.161 -0.0136  0.7667  0.0065
 1319TIP3    H125372   4.095   1.687   5.117 -0.1959  0.3993 -0.6778
 1319TIP3    H225373   3.949   1.651   5.099 -0.5812  1.1706  0.6979
 1320TIP3   OH225374   5.604   0.342  15.644 -0.3445  0.2189  0.1726
 1320TIP3    H125375   5.516   0.312  15.670  0.1289 -0.1938  1.3540
 1320TIP3    H225376   5.590   0.384  15.559 -1.8225  0.9016  0.7165
 1321TIP3   OH225377   3.066   3.741  17.008  0.5356 -0.1950  0.7000
 1321TIP3    H125378   3.082   3.647  17.003 -0.0073 -0.4073  2.3847
 1321TIP3    H225379   3.136   3.775  17.064 -1.1359 -0.1810  2.9347
 1322TIP3   OH225380   2.926   5.672  15.249 -0.4153 -0.2875  0.0189
 1322TIP3    H125381   2.976   5.688  15.169  0.2180  0.6356  0.5864
 1322TIP3    H225382   2.984   5.617  15.302 -1.0385 -1.3287 -0.3418
 1323TIP3   OH225383   2.481   5.737   4.736 -0.1913 -0.6725  0.4972
 1323TIP3    H125384   2.493   5.643   4.741 -0.7375 -0.7229  1.0509
 1323TIP3    H225385   2.483   5.766   4.828  1.4445  0.0547  0.2666
 1324TIP3   OH225386   3.420   2.272  11.244 -0.1833  0.3097  1.1338
 1324TIP3    H125387   3.508   2.300  11.217 -0.9869  1.5067 -0.4077
 1324TIP3    H225388   3.368   2.352  11.242 -1.4846 -0.5090  1.2786
 1325TIP3   OH225389   0.902   5.070   0.319 -0.1701  0.0102 -0.3178
 1325TIP3    H125390   0.860   5.024   0.391 -0.7177  2.3391  0.9577
 1325TIP3    H225391   0.915   5.159   0.352  1.3787  0.6308 -2.4134
 1326TIP3   OH225392   0.985   5.001   1.882  0.0898  0.0881 -0.0427
 1326TIP3    H125393   0.965   5.009   1.789 -0.4479 -1.0513 -0.0407
 1326TIP3    H225394   0.939   4.923   1.910 -0.0669  0.6236  1.2807
 1327TIP3   OH225395   0.056   3.383  12.761 -0.3203  0.3903 -0.3199
 1327TIP3    H125396   0.118   3.435  12.811 -0.5938  0.9019 -0.5084
 1327TIP3    H225397   0.049   3.428  12.677 -2.5509  1.5851  0.4223
 1328TIP3   OH225398   0.114   1.091  16.196  0.2545  0.3811  0.3603
 1328TIP3    H125399   0.167   1.162  16.232  0.6164  1.3186 -1.8661
 1328TIP3    H225400   0.071   1.130  16.120 -1.3115 -1.2007  0.3747
 1329TIP3   OH225401   0.348   3.027  16.081 -0.0540 -0.2026  0.5946
 1329TIP3    H125402   0.356   3.089  16.153  0.7089 -0.4431  0.7223
 1329TIP3    H225403   0.371   3.077  16.003  0.5118 -0.2986  0.6922
 1330TIP3   OH225404   2.127   0.422   5.032  0.2487  0.0923  0.2172
 1330TIP3    H125405   2.068   0.466   4.972 -0.5623 -0.0047  0.9272
 1330TIP3    H225406   2.090   0.439   5.119  0.9114 -0.5043  0.6271
 1331TIP3   OH225407   4.996   0.546  15.772 -0.0010 -0.3334  0.5636
 1331TIP3    H125408   4.994   0.539  15.868 -3.2983 -0.8820  0.6038
 1331TIP3    H225409   4.912   0.586  15.750 -1.1439 -3.7178 -2.2170
 1332TIP3   OH225410   2.767   1.628  14.234 -0.0143 -0.2315 -0.2276
 1332TIP3    H125411   2.793   1.582  14.154 -1.4491 -1.2269 -0.1562
 1332TIP3    H225412   2.835   1.695  14.246  1.6423 -1.6964 -0.8592
 1333TIP3   OH225413   4.903   2.922   1.891 -0.1517  0.1434  0.3289
 1333TIP3    H125414   4.862   2.847   1.847 -0.3151 -0.1675  0.9976
 1333TIP3    H225415   4.844   2.943   1.964  1.3636 -1.0269  1.9986
 1334TIP3   OH225416   6.675   2.293  16.427  0.8501 -0.1862 -0.5681
 1334TIP3    H125417   6.732   2.358  16.467 -0.5516  2.2749 -2.3358
 1334TIP3    H225418   6.706   2.285  16.337 -0.1609 -0.5828 -0.8966
 1335TIP3   OH225419   3.029   6.191   5.518  0.0252  0.0434  0.3100
 1335TIP3    H125420   3.031   6.140   5.599 -0.5530  1.6988  1.4143
 1335TIP3    H225421   3.121   6.199   5.492  0.1623 -1.0446  0.4274
 1336TIP3   OH225422   5.639   5.859   3.774 -0.0856  0.0654 -0.1366
 1336TIP3    H125423   5.606   5.772   3.797  2.4874 -0.6414  1.3765
 1336TIP3    H225424   5.694   5.843   3.697  2.7815 -0.3411  1.8488
 1337TIP3   OH225425   6.290   2.302   0.869  0.1563  0.2550  0.1240
 1337TIP3    H125426   6.268   2.394   0.854 -0.7904 -0.2477 -1.8477
 1337TIP3    H225427   6.252   2.282   0.955 -0.8185  1.3574 -0.0223
 1338TIP3   OH225428   5.177   1.383   0.993  0.5190  0.4085  0.2748
 1338TIP3    H125429   5.269   1.358   1.006 -0.0746 -2.6264 -0.5918
 1338TIP3    H225430   5.178   1.436   0.913  1.3459 -1.2270 -0.8620
 1339TIP3   OH225431   6.497   1.218  12.436 -0.1008 -0.4297  0.2883
 1339TIP3    H125432   6.526   1.175  12.356 -1.3572  1.4535 -1.2866
 1339TIP3    H225433   6.402   1.208  12.436 -0.3195  1.2632  0.4505
 1340TIP3   OH225434   6.329   2.849  16.291 -0.2429  0.2849  0.4499
 1340TIP3    H125435   6.284   2.929  16.264 -0.5551  0.1230  0.4857
 1340TIP3    H225436   6.259   2.791  16.321 -0.2204 -0.6752 -1.2606
 1341TIP3   OH225437   5.757   2.798  13.073  0.1884  0.4151 -0.3518
 1341TIP3    H125438   5.706   2.874  13.047 -0.4885 -0.5418 -1.9741
 1341TIP3    H225439   5.711   2.761  13.148  0.2472  1.2979  0.1276
 1342TIP3   OH225440   3.825   1.266   3.458 -0.3676  0.6195  0.0458
 1342TIP3    H125441   3.917   1.281   3.483 -0.1385 -0.0460 -0.3737
 1342TIP3    H225442   3.828   1.251   3.364 -0.4859 -2.4870  0.4573
 1343TIP3   OH225443   4.089   0.098   4.407  0.5557  0.0699  0.1897
 1343TIP3    H125444   4.090   0.003   4.417 -1.4861 -0.3170 -2.2615
 1343TIP3    H225445   4.136   0.113   4.325  0.8901  1.2016  0.5749
 1344TIP3   OH225446   1.487   6.803  16.669  0.5354  0.0887  0.7584
 1344TIP3    H125447   1.392   6.813  16.673  0.4528  0.1091 -0.7481
 1344TIP3    H225448   1.506   6.728  16.726 -0.7722 -1.9569 -1.3380
 1345TIP3   OH225449   2.722   2.211   1.254 -0.0096 -0.4209 -0.2925
 1345TIP3    H125450   2.792   2.170   1.203  1.1248 -0.0564  0.9325
 1345TIP3    H225451   2.749   2.302   1.263 -0.7033 -0.2462  0.0993
 1346TIP3   OH225452   0.660   2.314  13.557 -0.2061  0.4403  0.1919
 1346TIP3    H125453   0.663   2.368  13.636 -1.7662  1.6360 -0.5019
 1346TIP3    H225454   0.715   2.238  13.577  2.5476  2.4954  1.0113
 1347TIP3   OH225455   1.946   2.139  11.753 -0.2522 -0.0960 -0.8213
 1347TIP3    H125456   2.016   2.197  11.722  0.0612 -0.0781 -0.1068
 1347TIP3    H225457   1.888   2.197  11.802 -0.5764 -0.1798 -1.1012
 1348TIP3   OH225458   2.425   4.645   4.037  0.2329 -0.5519  0.9376
 1348TIP3    H125459   2.352   4.623   3.979 -0.8647 -0.6536  2.3001
 1348TIP3    H225460   2.385   4.694   4.109  1.8718  1.4477  0.5821
 1349TIP3   OH225461   4.586   0.971  13.701 -0.2304  0.0765 -0.2520
 1349TIP3    H125462   4.505   1.000  13.659 -0.4638  0.0715  0.1812
 1349TIP3    H225463   4.651   0.972  13.632 -0.6315 -0.0419 -0.6377
 1350TIP3   OH225464   1.737   3.175   0.848  0.1796 -0.2681 -0.0347
 1350TIP3    H125465   1.710   3.205   0.762  0.9022 -2.7042 -1.1900
 1350TIP3    H225466   1.655   3.150   0.892 -0.0300 -1.0183 -0.8379
 1351TIP3   OH225467   1.429   5.002  16.834 -0.0029 -0.1607  0.0616
 1351TIP3    H125468   1.448   4.947  16.758  1.1116 -0.2822  0.4113
 1351TIP3    H225469   1.506   4.994  16.889  0.5144  2.2876 -0.1857
 1352TIP3   OH225470   2.805   0.706   6.269  0.6613  0.5579  0.0498
 1352TIP3    H125471   2.885   0.688   6.218  0.0323 -1.4354 -0.2923
 1352TIP3    H225472   2.740   0.730   6.203  0.9520  2.2891  0.3388
 1353TIP3   OH225473   3.977   3.840  15.804  0.3269  0.2319 -0.1517
 1353TIP3    H125474   4.030   3.902  15.754 -2.0365  2.2723 -0.3205
 1353TIP3    H225475   3.914   3.806  15.741  0.0180 -0.4610  0.5123
 1354TIP3   OH225476   4.772   0.846   4.791 -0.0785 -0.1306 -0.1790
 1354TIP3    H125477   4.737   0.878   4.708 -1.9267  1.1180  1.0067
 1354TIP3    H225478   4.701   0.793   4.828  0.5751 -0.3633  0.7806
 1355TIP3   OH225479   0.612   1.035   3.277 -0.4728 -0.3115 -0.3190
 1355TIP3    H125480   0.678   0.970   3.302 -1.1690 -0.6384  0.7563
 1355TIP3    H225481   0.649   1.080   3.201  0.8113 -0.7370  0.0429
 1356TIP3   OH225482   4.886   5.928   2.182 -0.0143  0.6612  0.2222
 1356TIP3    H125483   4.872   5.972   2.098  1.9158 -0.5471 -0.8138
 1356TIP3    H225484   4.979   5.943   2.201  0.4740 -2.0724  0.3005
 1357TIP3   OH225485   5.850   6.610   0.998  0.4547 -0.0545 -0.0347
 1357TIP3    H125486   5.914   6.541   1.015  0.9237  0.0175 -1.4108
 1357TIP3    H225487   5.877   6.648   0.915 -1.4246 -0.0799 -0.7012
 1358TIP3   OH225488   1.281   5.271  15.241 -0.3970 -0.4446  0.0465
 1358TIP3    H125489   1.376   5.281  15.248 -0.5049  1.2358 -0.3677
 1358TIP3    H225490   1.246   5.319  15.316 -0.9496  0.6498 -0.8742
 1359TIP3   OH225491   3.036   3.768  10.566 -0.0444  0.1664  0.1688
 1359TIP3    H125492   3.081   3.766  10.651  0.9237  0.7958 -0.3097
 1359TIP3    H225493   3.076   3.842  10.520 -1.9979  1.1242 -0.0791
 1360TIP3   OH225494   4.047   4.535   2.180 -0.3771  0.0370 -0.2671
 1360TIP3    H125495   4.000   4.555   2.260  0.4158 -1.0844  0.4988
 1360TIP3    H225496   3.991   4.474   2.133 -0.4525  0.0340 -0.1713
 1361TIP3   OH225497   0.352   0.657  11.658 -0.5704 -0.0755  0.5578
 1361TIP3    H125498   0.335   0.674  11.751  0.0887 -2.9330  1.2880
 1361TIP3    H225499   0.448   0.652  11.652 -0.6503 -1.1033 -0.0265
 1362TIP3   OH225500   2.691   6.317  14.767  0.1157  0.5480 -0.1625
 1362TIP3    H125501   2.752   6.378  14.725 -1.7388  2.3373 -0.4494
 1362TIP3    H225502   2.652   6.269  14.694  0.9230 -0.3761 -0.0027
 1363TIP3   OH225503   6.597   5.366   4.967  0.2654  0.4239  0.2472
 1363TIP3    H125504   6.581   5.455   4.997  0.8982  0.2842  1.0336
 1363TIP3    H225505   6.683   5.369   4.927  1.6398 -0.3913  2.8637
 1364TIP3   OH225506   3.089   5.800  14.219  0.3349 -0.0019  0.1657
 1364TIP3    H125507   3.051   5.789  14.132 -0.9550  0.8138  0.5990
 1364TIP3    H225508   3.167   5.745  14.218  1.9782  2.1806 -2.4542
 1365TIP3   OH225509   2.322   3.271   1.715 -0.2094  0.3958 -0.2359
 1365TIP3    H125510   2.289   3.187   1.747  0.8776 -0.4238 -1.1549
 1365TIP3    H225511   2.340   3.322   1.793  1.7911 -1.3034  0.5193
 1366TIP3   OH225512   0.972   5.699   0.386 -1.1160 -0.6173  0.6792
 1366TIP3    H125513   1.004   5.707   0.296 -2.0977  0.2529  0.3918
 1366TIP3    H225514   0.984   5.606   0.407 -2.1227 -1.1425 -0.8573
 1367TIP3   OH225515   1.402   3.423   0.330  0.5128  0.3501 -0.0228
 1367TIP3    H125516   1.334   3.453   0.269  0.0974 -0.3729  0.0680
 1367TIP3    H225517   1.359   3.354   0.380  0.9581  0.7158  0.8729
 1368TIP3   OH225518   4.045   4.617   1.758  0.0290 -0.2661 -0.0431
 1368TIP3    H125519   4.089   4.696   1.791  3.7514 -1.9644 -0.4338
 1368TIP3    H225520   4.014   4.641   1.671  0.2218  1.0296  0.2214
 1369TIP3   OH225521   4.318   6.503   2.348  0.2802  0.1293  0.2674
 1369TIP3    H125522   4.298   6.591   2.316 -1.2564  0.2540  1.4641
 1369TIP3    H225523   4.233   6.464   2.367  0.9912 -0.0145  3.8722
 1370TIP3   OH225524   1.884   6.798  11.664  0.1164 -0.7417 -0.0771
 1370TIP3    H125525   1.903   6.704  11.666  0.1092 -0.8216 -1.9242
 1370TIP3    H225526   1.795   6.806  11.698  0.3317 -1.3173  0.6559
 1371TIP3   OH225527   3.931   6.543   6.271  0.2097 -0.5162 -0.7341
 1371TIP3    H125528   3.902   6.536   6.180 -0.6751 -0.6159 -0.4582
 1371TIP3    H225529   3.854   6.518   6.323 -0.2793  2.3306  0.1174
 1372TIP3   OH225530   5.037   1.289  11.463 -0.2393 -0.4943 -0.0989
 1372TIP3    H125531   5.033   1.227  11.536  2.1759 -0.6675 -0.0286
 1372TIP3    H225532   5.089   1.362  11.497 -0.7382  0.3107 -1.0403
 1373TIP3   OH225533   0.414   0.093  15.335 -0.5071 -0.7542  0.1556
 1373TIP3    H125534   0.407   0.163  15.400  1.1063 -1.2788  0.9425
 1373TIP3    H225535   0.349   0.028  15.363 -2.7977  0.8128 -1.1921
 1374TIP3   OH225536   4.491   5.542  14.202 -0.0866  0.6105  0.2044
 1374TIP3    H125537   4.444   5.534  14.285  0.0706 -1.5952  0.1486
 1374TIP3    H225538   4.459   5.468  14.150  0.5247  1.4007 -1.3451
 1375TIP3   OH225539   3.231   5.679  13.255 -0.3161  0.9492  0.5354
 1375TIP3    H125540   3.309   5.636  13.220 -1.3230 -0.2571 -0.2864
 1375TIP3    H225541   3.205   5.624  13.329 -1.8466 -0.1766 -0.7708
 1376TIP3   OH225542   6.536   3.848  15.071 -0.1321  0.0787  0.4677
 1376TIP3    H125543   6.516   3.755  15.067  0.8203 -0.0876 -1.1328
 1376TIP3    H225544   6.456   3.891  15.043  0.0646 -0.3692 -0.8496
 1377TIP3   OH225545   5.358   0.248  15.757  0.6962  0.4363 -0.1128
 1377TIP3    H125546   5.321   0.167  15.724 -0.1957  0.9822 -0.4750
 1377TIP3    H225547   5.368   0.233  15.851 -4.9244  1.7962  1.0543
 1378TIP3   OH225548   0.385   6.098  11.846  0.6705  0.0038 -0.1670
 1378TIP3    H125549   0.377   6.163  11.776 -2.0456  1.1517  1.0795
 1378TIP3    H225550   0.316   6.034  11.828 -0.6697  0.8014  1.8780
 1379TIP3   OH225551   1.939   1.995   1.756  0.5245 -0.1995  0.1370
 1379TIP3    H125552   1.975   1.906   1.753  1.3373  0.0573  1.5665
 1379TIP3    H225553   2.012   2.049   1.785 -0.0459  0.9048 -0.4226
 1380TIP3   OH225554   4.139   2.697   2.801  0.4962 -0.2503  0.2234
 1380TIP3    H125555   4.082   2.774   2.807  0.8071 -0.0790  1.0692
 1380TIP3    H225556   4.100   2.644   2.731 -0.2722  0.2177  0.2867
 1381TIP3   OH225557   0.572   5.168   1.371 -0.2628 -0.4278 -0.1376
 1381TIP3    H125558   0.611   5.255   1.365 -1.0627  0.0266  0.9355
 1381TIP3    H225559   0.633   5.117   1.424 -1.3053  0.4230  1.9672
 1382TIP3   OH225560   1.910   6.260  15.881 -0.4946 -0.1849  0.4233
 1382TIP3    H125561   1.985   6.279  15.938  1.8970 -0.9095 -2.2370
 1382TIP3    H225562   1.883   6.346  15.848  1.8427 -0.1157 -1.6004
 1383TIP3   OH225563   0.367   4.051  12.752  0.0553  0.5117 -0.0817
 1383TIP3    H125564   0.363   4.134  12.800 -1.5847  0.4793 -0.1127
 1383TIP3    H225565   0.298   4.058  12.687  1.6327  0.1893 -1.9015
 1384TIP3   OH225566   3.072   1.804  16.955  0.4618 -0.3922 -0.4884
 1384TIP3    H125567   3.040   1.760  17.033 -1.6694  1.4950 -0.1946
 1384TIP3    H225568   3.138   1.744  16.919  0.3076 -2.0778  1.7928
 1385TIP3   OH225569   2.295   1.118   0.224  0.2011 -0.1370 -0.3394
 1385TIP3    H125570   2.302   1.043   0.165  1.4524 -1.7831  1.7846
 1385TIP3    H225571   2.360   1.180   0.191  1.4472 -1.3629 -0.2532
 1386TIP3   OH225572   0.162   1.828  15.351  0.0538  0.0780 -0.0678
 1386TIP3    H125573   0.167   1.774  15.272  0.4978 -2.4256  1.5460
 1386TIP3    H225574   0.077   1.808  15.389  0.3888  0.2002  0.7749
 1387TIP3   OH225575   3.825   0.963   3.123  0.0275  0.0015 -0.3775
 1387TIP3    H125576   3.909   0.917   3.127  1.0850  1.9284  1.5797
 1387TIP3    H225577   3.768   0.913   3.182  0.8019  0.4888  0.8047
 1388TIP3   OH225578   5.639   1.315  14.180 -0.1728 -0.1165  0.5025
 1388TIP3    H125579   5.594   1.266  14.249  0.3218 -2.6805 -0.8679
 1388TIP3    H225580   5.580   1.310  14.104  0.8231 -0.4226 -0.2690
 1389TIP3   OH225581   6.270   6.241  15.134  0.3090  0.1583  1.1046
 1389TIP3    H125582   6.361   6.216  15.149  0.0555 -0.8000  1.1186
 1389TIP3    H225583   6.220   6.186  15.194 -0.3774 -0.3252  0.1148
 1390TIP3   OH225584   5.220   2.777  16.434  0.1470  0.1899  0.2726
 1390TIP3    H125585   5.163   2.804  16.361 -0.5701 -1.0427  0.3342
 1390TIP3    H225586   5.309   2.790  16.401 -0.1684  0.2637 -0.5903
 1391TIP3   OH225587   5.104   4.306  15.194  0.3163 -0.0872  0.1697
 1391TIP3    H125588   5.073   4.362  15.266 -0.0909  1.0033 -0.8170
 1391TIP3    H225589   5.188   4.273  15.224  0.6588  1.2154  0.7287
 1392TIP3   OH225590   2.247   5.463   3.585 -0.5943  0.0947  0.7111
 1392TIP3    H125591   2.178   5.511   3.540  0.7509  0.9830 -0.5039
 1392TIP3    H225592   2.241   5.374   3.551 -1.1601  0.1542  0.6505
 1393TIP3   OH225593   4.078   5.725  16.169  0.0896 -0.5971  0.5543
 1393TIP3    H125594   4.089   5.633  16.143  0.8907 -0.6600  1.0880
 1393TIP3    H225595   4.158   5.746  16.218 -0.2927  0.2520  0.8306
 1394TIP3   OH225596   5.850   0.628   4.748  0.1785 -0.6522 -0.5662
 1394TIP3    H125597   5.911   0.644   4.676  0.3964 -0.0089 -0.2535
 1394TIP3    H225598   5.905   0.635   4.827 -0.5719  1.6321 -0.1771
 1395TIP3   OH225599   0.040   1.478   5.046  0.0820 -0.3141 -0.0147
 1395TIP3    H125600   0.023   1.436   5.130 -1.3785 -0.1219 -0.1976
 1395TIP3    H225601  -0.015   1.557   5.046 -1.2535 -1.1759 -1.8150
 1396TIP3   OH225602   1.374   0.201  15.482  0.1706  0.0696 -0.0956
 1396TIP3    H125603   1.384   0.245  15.566  1.1447  0.9335 -0.6476
 1396TIP3    H225604   1.335   0.267  15.424 -0.1804 -0.4129 -0.4264
 1397TIP3   OH225605   1.353   1.963  15.416 -0.3371 -0.4147 -0.2781
 1397TIP3    H125606   1.287   1.923  15.471  1.2050  0.1202  2.0955
 1397TIP3    H225607   1.311   2.042  15.381 -0.6876  0.4844  2.0318
 1398TIP3   OH225608   6.208   6.365   3.810  0.0822 -0.1741  0.0762
 1398TIP3    H125609   6.270   6.438   3.819  0.7660 -0.6580 -0.6005
 1398TIP3    H225610   6.177   6.371   3.720  0.8759 -1.2786 -0.2901
 1399TIP3   OH225611   3.851   1.959  11.904  0.0647 -0.1699 -0.4532
 1399TIP3    H125612   3.864   1.866  11.923  1.4467  0.1754  0.4410
 1399TIP3    H225613   3.759   1.975  11.927  0.0916 -1.0872  0.3771
 1400TIP3   OH225614   5.518   5.110   1.299  0.2069  0.0418  0.1470
 1400TIP3    H125615   5.540   5.199   1.272 -3.1918  0.8630 -0.4571
 1400TIP3    H225616   5.534   5.057   1.222  0.7278  0.4280 -0.0164
 1401TIP3   OH225617   2.383   0.462  14.720  0.2190 -0.0131 -0.1769
 1401TIP3    H125618   2.438   0.383  14.726  0.0050 -0.0748  1.2623
 1401TIP3    H225619   2.436   0.530  14.762 -0.4797  0.1048  0.5203
 1402TIP3   OH225620   1.831   6.664  16.373  0.0563  0.0820 -0.1078
 1402TIP3    H125621   1.912   6.677  16.422 -0.0402  2.2217 -0.4325
 1402TIP3    H225622   1.857   6.668  16.281 -0.3637  0.4428 -0.2157
 1403TIP3   OH225623   4.541   1.206   1.241 -0.2220  0.1473  0.5257
 1403TIP3    H125624   4.570   1.297   1.236  0.0574  0.0306 -0.1929
 1403TIP3    H225625   4.446   1.211   1.245 -0.2297  0.4611  0.0182
 1404TIP3   OH225626   4.000   6.290   0.554  0.0855  0.0416  0.2827
 1404TIP3    H125627   4.043   6.333   0.628  0.5508 -0.8685  0.5576
 1404TIP3    H225628   4.007   6.196   0.574 -2.1436 -0.1405  0.3938
 1405TIP3   OH225629   4.941   5.670  12.369  0.0291  0.0828  0.3388
 1405TIP3    H125630   4.951   5.602  12.436 -2.5276 -1.5793 -0.7855
 1405TIP3    H225631   4.968   5.627  12.287  0.8522  1.3125 -0.0632
 1406TIP3   OH225632   1.070   0.730   5.574  0.1669 -0.7641 -0.5501
 1406TIP3    H125633   1.162   0.707   5.559 -0.0959 -2.1615 -0.2092
 1406TIP3    H225634   1.022   0.676   5.511 -0.5123 -1.4147  0.4955
 1407TIP3   OH225635   0.952   2.901  11.075 -0.4041  0.2231 -0.0248
 1407TIP3    H125636   0.962   2.946  11.159 -1.2117 -0.6953  0.5819
 1407TIP3    H225637   0.984   2.965  11.010 -1.0824  1.5029  0.8448
 1408TIP3   OH225638   6.559   6.747   1.845  0.6547 -0.4217  0.6779
 1408TIP3    H125639   6.515   6.688   1.906  0.9759 -2.0820 -0.6232
 1408TIP3    H225640   6.651   6.747   1.873  1.0494 -2.1726 -0.4840
 1409TIP3   OH225641   1.560   1.626   1.393 -0.5189  0.0947 -0.4437
 1409TIP3    H125642   1.562   1.614   1.488  1.2593  0.4075 -0.4171
 1409TIP3    H225643   1.650   1.648   1.369 -0.8976 -0.1388 -2.2329
 1410TIP3   OH225644   4.949   6.652  12.384  0.1301 -0.1264  0.4750
 1410TIP3    H125645   4.866   6.608  12.369  1.3224 -2.1651 -0.6449
 1410TIP3    H225646   4.995   6.645  12.300  0.3935  3.4824  0.1503
 1411TIP3   OH225647   2.605   6.765   0.081  0.4253  0.6279  0.4135
 1411TIP3    H125648   2.636   6.788   0.169  1.5109  1.5816 -0.1853
 1411TIP3    H225649   2.637   6.676   0.067  2.2203  1.2614  0.1741
 1412TIP3   OH225650   5.958   2.156   2.236  0.2246 -0.6278 -0.9164
 1412TIP3    H125651   5.916   2.074   2.260  0.4966 -0.5986 -0.3298
 1412TIP3    H225652   5.886   2.217   2.220 -0.0449  0.0999  2.3186
 1413TIP3   OH225653   0.404   5.647   1.891  0.3273  0.4309  0.1363
 1413TIP3    H125654   0.347   5.694   1.951  1.7696  0.6407  1.4011
 1413TIP3    H225655   0.383   5.682   1.804 -1.8036  0.1091  0.4857
 1414TIP3   OH225656   0.373   5.896  12.881 -0.5867 -0.3337 -0.1251
 1414TIP3    H125657   0.367   5.801  12.872  0.2504 -0.3542 -0.5968
 1414TIP3    H225658   0.342   5.930  12.797  2.0171 -0.3280 -1.1804
 1415TIP3   OH225659   0.224   6.537   6.165 -0.4661 -0.5071  0.6462
 1415TIP3    H125660   0.294   6.570   6.221  0.7638 -0.5077 -0.8163
 1415TIP3    H225661   0.191   6.615   6.120 -0.2920 -0.7293  0.1327
 1416TIP3   OH225662   2.375   0.910  13.337 -0.2522  0.6547  0.3757
 1416TIP3    H125663   2.370   0.842  13.404 -1.2894  0.4452  0.1049
 1416TIP3    H225664   2.441   0.971  13.370 -1.4889  1.1205  2.1575
 1417TIP3   OH225665   5.440   4.695   1.350 -0.1867  0.1697  0.0256
 1417TIP3    H125666   5.368   4.690   1.413 -0.3215 -1.3487 -0.2353
 1417TIP3    H225667   5.405   4.661   1.269  0.9285 -0.9959 -0.0011
 1418TIP3   OH225668   2.005   1.636   3.038  0.1651  0.0195 -0.4764
 1418TIP3    H125669   1.946   1.682   2.978 -0.3493  0.5736  0.4252
 1418TIP3    H225670   1.950   1.569   3.079  0.3936 -0.0596 -0.2939
 1419TIP3   OH225671   3.349   1.760   4.795  0.0526 -0.2257  0.4993
 1419TIP3    H125672   3.305   1.762   4.880 -0.2089 -0.6419  0.3813
 1419TIP3    H225673   3.277   1.765   4.732  0.1027 -1.5817  0.2983
 1420TIP3   OH225674   0.926   4.942   4.633 -0.5624  0.0065  0.1887
 1420TIP3    H125675   0.929   4.933   4.538  2.0684 -2.0920  0.3639
 1420TIP3    H225676   0.966   5.028   4.650 -1.9580  0.8422 -0.5799
 1421TIP3   OH225677   4.048   5.554  15.777  0.2494  0.3820 -0.2735
 1421TIP3    H125678   3.976   5.594  15.826  0.2565 -0.8675  0.7985
 1421TIP3    H225679   4.127   5.578  15.826  0.2202 -1.2265  0.6279
 1422TIP3   OH225680   0.527   1.989   2.746  0.3583 -0.4437  0.0329
 1422TIP3    H125681   0.589   2.060   2.730 -0.4529  0.1021 -0.7975
 1422TIP3    H225682   0.441   2.029   2.736 -0.1228 -1.7103 -1.4426
 1423TIP3   OH225683   3.594   0.869  16.798  1.3877 -0.3168 -0.0014
 1423TIP3    H125684   3.556   0.951  16.767  2.0314 -0.2762 -0.7415
 1423TIP3    H225685   3.538   0.841  16.870  0.1751 -0.0979 -0.8442
 1424TIP3   OH225686   1.135   3.682   3.404  0.1151 -0.8287 -0.3223
 1424TIP3    H125687   1.224   3.695   3.372 -0.3153  0.6970 -0.9929
 1424TIP3    H225688   1.109   3.768   3.438 -0.9941 -1.3191  0.1109
 1425TIP3   OH225689   5.421   1.225   3.236  0.4771  0.4635 -0.3499
 1425TIP3    H125690   5.450   1.290   3.300  1.2669  1.9449 -2.1076
 1425TIP3    H225691   5.422   1.142   3.283 -4.1758  1.9756  3.2329
 1426TIP3   OH225692   2.800   2.214  11.632 -0.2448 -0.4627  0.3358
 1426TIP3    H125693   2.880   2.161  11.632  1.0331  1.3221  1.7326
 1426TIP3    H225694   2.759   2.195  11.717  0.3640  0.8530  0.9740
 1427TIP3   OH225695   0.101   3.510  12.539 -0.3457 -0.1385  0.1043
 1427TIP3    H125696   0.086   3.602  12.562 -1.2445 -0.5942  1.4974
 1427TIP3    H225697   0.178   3.511  12.483  0.7846  1.2918  1.5931
 1428TIP3   OH225698   6.820   4.398   3.415  0.6411  0.0896 -0.1300
 1428TIP3    H125699   6.831   4.487   3.446 -0.5378  1.3821 -3.0667
 1428TIP3    H225700   6.848   4.343   3.489 -1.9446  2.7528  3.1558
 1429TIP3   OH225701   5.085   6.515  12.836  0.2151  0.4160  0.0437
 1429TIP3    H125702   4.996   6.507  12.801 -0.2698  2.0336  0.7853
 1429TIP3    H225703   5.076   6.490  12.928  0.8563 -0.8682 -0.2249
 1430TIP3   OH225704   3.720   3.517  15.617  0.7055 -0.4448 -0.1570
 1430TIP3    H125705   3.641   3.544  15.569  1.1398 -1.0329 -1.2419
 1430TIP3    H225706   3.687   3.462  15.688 -0.2439  2.8243  2.2299
 1431TIP3   OH225707   0.189   0.112   1.699 -0.2138 -0.2501  0.6688
 1431TIP3    H125708   0.268   0.060   1.682  0.4497  1.0868 -0.4852
 1431TIP3    H225709   0.218   0.181   1.759 -0.3142  0.6979 -0.3569
 1432TIP3   OH225710   0.031   2.009   4.964 -0.1831 -0.6649 -0.1262
 1432TIP3    H125711  -0.008   1.992   4.878  0.1260 -1.4132 -0.1212
 1432TIP3    H225712   0.106   2.066   4.944 -1.6464  1.3859 -0.0605
 1433TIP3   OH225713   6.387   2.245  11.296 -0.4400 -0.2008 -0.0889
 1433TIP3    H125714   6.444   2.237  11.220  0.7679 -2.4478  0.9435
 1433TIP3    H225715   6.392   2.338  11.320  2.0582 -0.1212 -0.6349
 1434TIP3   OH225716   5.159   5.001   5.398 -0.3045  0.3643 -0.7661
 1434TIP3    H125717   5.187   5.082   5.355 -1.6046  1.0757 -0.3159
 1434TIP3    H225718   5.166   5.019   5.491 -0.4123 -0.1147 -0.6627
 1435TIP3   OH225719   2.277   2.155   2.598  0.4727  0.2759  0.1951
 1435TIP3    H125720   2.182   2.145   2.590  0.4876 -0.0772  0.4165
 1435TIP3    H225721   2.309   2.153   2.508  0.3384 -0.3772  0.1533
 1436TIP3   OH225722   4.622   2.209  10.645 -0.3770  0.0150  0.1380
 1436TIP3    H125723   4.654   2.248  10.726 -0.3609  1.4065 -0.5170
 1436TIP3    H225724   4.664   2.123  10.641  1.0496  0.6592  0.7064
 1437TIP3   OH225725   5.311   0.154   1.808  0.4749 -0.0511 -0.5960
 1437TIP3    H125726   5.342   0.211   1.878  0.1840 -0.4039 -0.1709
 1437TIP3    H225727   5.343   0.194   1.727  2.9396 -0.9445 -0.1290
 1438TIP3   OH225728   6.056   1.915  11.439  0.4266  0.1351  0.0723
 1438TIP3    H125729   5.967   1.950  11.449  0.5157  0.8277 -1.3146
 1438TIP3    H225730   6.109   1.992  11.417  1.5231 -0.1591  1.5454
 1439TIP3   OH225731   3.081   4.279   4.571  0.6684 -0.1630 -0.3920
 1439TIP3    H125732   3.073   4.224   4.493 -0.4606 -0.7142  0.0963
 1439TIP3    H225733   3.030   4.234   4.638 -0.4419  1.5556 -0.0162
 1440TIP3   OH225734   0.891   0.510  15.253  0.4461 -0.2070  0.1228
 1440TIP3    H125735   0.833   0.443  15.287  1.0174 -1.3927 -1.1506
 1440TIP3    H225736   0.913   0.481  15.165  1.7677  0.9833  0.0145
 1441TIP3   OH225737   5.534   6.644   5.983 -0.7245  0.0321 -0.0001
 1441TIP3    H125738   5.461   6.657   6.044 -1.7223  0.4722 -1.2419
 1441TIP3    H225739   5.540   6.726   5.934  0.6673  0.0258  0.1227
 1442TIP3   OH225740   2.460   3.293   2.744 -0.4695  0.5118 -0.7623
 1442TIP3    H125741   2.481   3.361   2.808  2.0886 -0.8749  0.0259
 1442TIP3    H225742   2.507   3.319   2.664  0.5015 -0.2439 -0.4658
 1443TIP3   OH225743   3.637   6.176   1.859 -0.4447  0.5655  0.7068
 1443TIP3    H125744   3.619   6.260   1.901  0.6524 -0.2806  3.0352
 1443TIP3    H225745   3.692   6.129   1.922 -0.8475 -1.8257 -0.6086
 1444TIP3   OH225746   1.322   3.207  11.142  0.4091  0.0235 -0.6902
 1444TIP3    H125747   1.361   3.286  11.105 -0.5285  1.0413  0.4280
 1444TIP3    H225748   1.375   3.136  11.108  0.8490  1.0724 -2.2954
 1445TIP3   OH225749   5.844   1.591  13.127 -0.3863 -0.0501  0.0451
 1445TIP3    H125750   5.768   1.618  13.076 -0.7192 -0.7803  0.1378
 1445TIP3    H225751   5.860   1.500  13.100 -0.0469 -0.1671  0.6169
 1446TIP3   OH225752   3.793   6.301  13.871 -0.3019  0.1219 -0.0575
 1446TIP3    H125753   3.828   6.304  13.782 -3.5687 -1.2969 -1.5475
 1446TIP3    H225754   3.747   6.217  13.876  2.1436 -1.2451  4.0445
 1447TIP3   OH225755   1.450   5.429  13.939 -0.2010 -0.2105 -0.8231
 1447TIP3    H125756   1.457   5.369  13.865  0.0196 -0.0119 -0.9642
 1447TIP3    H225757   1.537   5.469  13.946  0.1194 -1.0097  0.2020
 1448TIP3   OH225758   0.655   2.874  10.945  0.2173 -0.0640  0.3814
 1448TIP3    H125759   0.591   2.804  10.958  0.8472 -0.5197  1.0672
 1448TIP3    H225760   0.740   2.830  10.946  0.5438  0.4657 -1.0216
 1449TIP3   OH225761   3.704   0.734  12.474 -0.1654  0.3244 -0.0464
 1449TIP3    H125762   3.612   0.718  12.494 -0.0926  0.1531  0.1525
 1449TIP3    H225763   3.741   0.646  12.462  0.2077  0.3498  0.9112
 1450TIP3   OH225764   1.874   5.580   3.671  0.5028 -0.5602 -0.1729
 1450TIP3    H125765   1.889   5.489   3.646 -0.5191 -0.9124  0.4368
 1450TIP3    H225766   1.946   5.628   3.630  1.7715 -1.7946  0.4785
 1451TIP3   OH225767   4.894   0.995  16.959  0.9034  0.4541  0.2266
 1451TIP3    H125768   4.845   1.039  16.889  1.9414  2.0677  0.4577
 1451TIP3    H225769   4.902   1.061  17.028  2.0082 -0.2906  0.8465
 1452TIP3   OH225770   2.123   3.382  13.398  0.1792  0.3722 -0.4103
 1452TIP3    H125771   2.091   3.336  13.321 -0.7672  1.0173 -0.4181
 1452TIP3    H225772   2.053   3.373  13.462  1.6027 -1.5658  0.9989
 1453TIP3   OH225773   1.306   3.890  12.975  0.6634  0.2103  0.0377
 1453TIP3    H125774   1.268   3.829  13.039  0.5128  1.5210  1.2432
 1453TIP3    H225775   1.232   3.917  12.921  0.1251  1.5654  1.3941
 1454TIP3   OH225776   1.389   2.220  11.551  0.0302  0.0118  0.3241
 1454TIP3    H125777   1.386   2.126  11.570 -2.2221  0.3864  2.3216
 1454TIP3    H225778   1.378   2.262  11.636  0.5169  2.0982 -0.5829
 1455TIP3   OH225779   1.736   4.841  12.570 -0.4297  0.0469  0.1218
 1455TIP3    H125780   1.742   4.801  12.483 -1.5433  1.3237 -0.5886
 1455TIP3    H225781   1.784   4.924  12.561 -0.3921  0.0951  0.7784
 1456TIP3   OH225782   0.495   5.712   4.637 -0.2600 -0.2319  0.2319
 1456TIP3    H125783   0.515   5.677   4.550  1.5964 -0.4212  0.6730
 1456TIP3    H225784   0.527   5.802   4.634  2.2193 -0.9795  1.4247
 1457TIP3   OH225785   6.598   0.908  11.313 -0.5204  0.1688 -0.0816
 1457TIP3    H125786   6.678   0.939  11.269 -0.3930  0.8396  0.6122
 1457TIP3    H225787   6.546   0.869  11.243  0.4755 -0.4051 -0.5306
 1458TIP3   OH225788   2.601   6.213  12.247 -0.4269 -0.3643 -0.5955
 1458TIP3    H125789   2.548   6.192  12.323 -1.9188 -0.8662 -1.7296
 1458TIP3    H225790   2.555   6.173  12.173  1.3062 -0.4531 -1.6995
 1459TIP3   OH225791   1.603   3.915  15.767 -0.3427  0.1962 -0.6065
 1459TIP3    H125792   1.540   3.852  15.732 -2.2156  0.5193  1.9111
 1459TIP3    H225793   1.549   3.980  15.812  1.7627  0.1580  2.2231
 1460TIP3   OH225794   4.011   2.137  16.168  0.3591 -0.2110  0.1403
 1460TIP3    H125795   4.001   2.067  16.233  0.8294 -0.7514 -0.3534
 1460TIP3    H225796   4.059   2.096  16.097 -0.9569  0.1164 -0.9637
 1461TIP3   OH225797   5.483   6.661  15.619 -0.4374  0.0193 -0.4226
 1461TIP3    H125798   5.443   6.583  15.581 -0.1151 -1.1555  1.4799
 1461TIP3    H225799   5.422   6.688  15.688  0.7387 -0.2423  0.7695
 1462TIP3   OH225800   3.813   5.707   6.083  0.2474  0.5385  0.1123
 1462TIP3    H125801   3.787   5.691   6.174 -0.0477  1.0005  0.1106
 1462TIP3    H225802   3.888   5.765   6.089  0.1325  0.6918  0.0539
 1463TIP3   OH225803   0.091   1.323   3.347 -0.1725 -0.4857 -0.2417
 1463TIP3    H125804   0.031   1.392   3.320  1.1776  0.7906 -0.0799
 1463TIP3    H225805   0.065   1.302   3.437  0.3552  0.8936  0.2465
 1464TIP3   OH225806   6.461   2.657  16.109  1.0044 -0.5491 -0.4117
 1464TIP3    H125807   6.373   2.620  16.114  0.8025  0.0819  1.5556
 1464TIP3    H225808   6.468   2.712  16.187  3.4583 -1.2779 -0.0517
 1465TIP3   OH225809   3.855   6.781  11.743 -0.4491 -0.0492  0.1154
 1465TIP3    H125810   3.781   6.773  11.683 -1.3654  0.0930  1.2036
 1465TIP3    H225811   3.827   6.737  11.823  0.4100  0.5209  0.7553
 1466TIP3   OH225812   2.400   3.807   4.074 -0.6085 -0.5157 -0.1128
 1466TIP3    H125813   2.386   3.879   4.012  0.2346 -0.2052  0.0387
 1466TIP3    H225814   2.313   3.787   4.108 -1.0293 -0.4499 -1.1339
 1467TIP3   OH225815   1.426   2.606  15.978 -0.2315 -0.6050 -0.4593
 1467TIP3    H125816   1.405   2.662  16.053 -0.0674 -0.3660 -0.5917
 1467TIP3    H225817   1.500   2.553  16.008 -0.5103 -0.8963 -0.2654
 1468TIP3   OH225818   3.470   0.594  12.826 -0.4206  0.1876 -0.9690
 1468TIP3    H125819   3.379   0.598  12.853 -0.8604  1.7657 -2.4742
 1468TIP3    H225820   3.520   0.618  12.904 -1.3319 -0.0433 -0.3099
 1469TIP3   OH225821   5.315   1.035  14.896  0.1817  0.7600  0.2632
 1469TIP3    H125822   5.258   1.071  14.828  0.9610  0.0542 -0.7835
 1469TIP3    H225823   5.397   1.015  14.851  1.4148  2.0533  1.7997
 1470TIP3   OH225824   5.739   6.669  13.491 -0.1129 -0.0715 -0.2986
 1470TIP3    H125825   5.769   6.727  13.420 -0.9121  0.1670 -0.4496
 1470TIP3    H225826   5.766   6.714  13.571  1.9937 -0.9872 -0.4330
 1471TIP3   OH225827   4.529   5.859   2.909 -0.3589  0.4677 -0.1695
 1471TIP3    H125828   4.499   5.852   2.818  1.0041 -1.1512 -0.5401
 1471TIP3    H225829   4.619   5.889   2.902 -0.5923  1.4158  0.7265
 1472TIP3   OH225830   3.718   3.050  12.951 -0.7155  0.1055 -0.0585
 1472TIP3    H125831   3.649   3.088  12.896 -2.7840 -0.7823  1.7669
 1472TIP3    H225832   3.671   2.992  13.011  1.7733 -1.3110  0.6435
 1473TIP3   OH225833   0.295   4.119   1.064 -0.2659 -0.2473 -0.4856
 1473TIP3    H125834   0.378   4.134   1.018  0.2334 -1.2677  0.0483
 1473TIP3    H225835   0.300   4.028   1.093 -2.7641 -1.2492 -2.8261
 1474TIP3   OH225836   1.829   1.615  10.608  0.2643  1.0484  0.4105
 1474TIP3    H125837   1.812   1.530  10.650  1.7460  0.8891  0.7509
 1474TIP3    H225838   1.889   1.595  10.536 -2.2818  1.3093 -1.9690
 1475TIP3   OH225839   0.929   2.977   4.562 -0.0738 -0.8127 -0.1705
 1475TIP3    H125840   0.950   3.070   4.565 -2.1090 -0.2711 -0.7600
 1475TIP3    H225841   1.013   2.933   4.569  0.9516  1.0676  0.0163
 1476TIP3   OH225842   2.307   4.853  12.362  0.0733 -0.5346  0.0045
 1476TIP3    H125843   2.253   4.848  12.441  0.0099  0.2084  0.0110
 1476TIP3    H225844   2.274   4.928  12.314  0.8153 -0.3333 -0.2041
 1477TIP3   OH225845   5.723   5.291  15.881 -0.5031  0.7622 -0.3190
 1477TIP3    H125846   5.706   5.343  15.803  0.3953  1.5567  0.0014
 1477TIP3    H225847   5.759   5.208  15.847 -0.5262  0.9318 -0.7642
 1478TIP3   OH225848   3.217   1.409  10.981  0.4796 -0.2218 -0.0138
 1478TIP3    H125849   3.218   1.495  11.023  1.2748 -0.4452  0.4488
 1478TIP3    H225850   3.192   1.348  11.050 -0.3313 -0.3459 -0.4027
 1479TIP3   OH225851   2.168   1.767   1.407  0.2057 -0.3972  0.4336
 1479TIP3    H125852   2.123   1.834   1.355 -1.2892 -1.7344 -0.0721
 1479TIP3    H225853   2.111   1.754   1.482  1.5913  0.4185  1.6744
 1480TIP3   OH225854   0.529   1.814  11.152  0.3588 -0.3398 -0.0116
 1480TIP3    H125855   0.467   1.801  11.080 -0.1188  1.2786  0.0635
 1480TIP3    H225856   0.479   1.793  11.231  1.3483 -3.7319 -0.1394
 1481TIP3   OH225857   3.823   5.388   3.633  0.7257 -0.2895  0.3613
 1481TIP3    H125858   3.803   5.301   3.598 -0.0714 -0.0297  0.1436
 1481TIP3    H225859   3.745   5.411   3.684  0.4462  0.7729 -0.5232
 1482TIP3   OH225860   6.379   5.207  13.953  0.3229  0.1750 -0.0876
 1482TIP3    H125861   6.366   5.291  13.908  2.3700 -0.4664 -2.0031
 1482TIP3    H225862   6.428   5.153  13.892  0.4899 -1.8955  1.7328
 1483TIP3   OH225863   4.837   4.827   5.936 -0.1941  0.4238 -0.2383
 1483TIP3    H125864   4.748   4.859   5.947 -0.8034 -1.5448  1.0714
 1483TIP3    H225865   4.837   4.740   5.977  2.7139  0.9997  1.3249
 1484TIP3   OH225866   1.197   4.653  12.373  0.8405  0.3234  0.1588
 1484TIP3    H125867   1.278   4.646  12.424  1.6081  0.0538 -1.0724
 1484TIP3    H225868   1.225   4.648  12.282 -0.7465 -1.7117 -0.2828
 1485TIP3   OH225869   4.221   3.556   0.885 -0.4147 -0.3240 -0.5187
 1485TIP3    H125870   4.225   3.652   0.879 -0.9370 -0.3603 -1.7104
 1485TIP3    H225871   4.152   3.539   0.949 -0.1602  0.0973 -0.1282
 1486TIP3   OH225872   1.046   0.814   3.376 -0.0703 -0.2614 -0.6353
 1486TIP3    H125873   1.099   0.883   3.336  1.8241 -1.1890  0.1147
 1486TIP3    H225874   1.095   0.790   3.455 -1.9612 -0.7805  0.4436
 1487TIP3   OH225875   5.426   3.103  16.778 -0.1599  0.2883 -0.0451
 1487TIP3    H125876   5.362   3.165  16.812  0.0700  1.6123 -1.8591
 1487TIP3    H225877   5.461   3.145  16.700  3.1197 -0.2539  0.9734
 1488TIP3   OH225878   2.601   2.888  13.992  0.8474  0.1893 -0.7610
 1488TIP3    H125879   2.674   2.950  13.991  2.4971 -1.5682  0.9364
 1488TIP3    H225880   2.591   2.860  13.901  1.8169  0.9932 -1.1337
 1489TIP3   OH225881   6.304   5.426   5.105 -0.4048  0.0597  0.0294
 1489TIP3    H125882   6.340   5.396   5.189 -0.3648  1.0781  0.3849
 1489TIP3    H225883   6.237   5.489   5.129  0.7687  1.6611 -0.7012
 1490TIP3   OH225884   6.459   5.408   4.465 -0.3037  0.3881 -0.4564
 1490TIP3    H125885   6.486   5.486   4.513  0.4351  0.9862 -1.7792
 1490TIP3    H225886   6.465   5.337   4.528  1.5805  0.9863  0.0829
 1491TIP3   OH225887   3.385   5.370   2.156  0.5440  0.5221 -0.0255
 1491TIP3    H125888   3.296   5.337   2.140  1.6466 -2.8855  0.1266
 1491TIP3    H225889   3.394   5.370   2.251  1.7367 -2.5614 -0.0472
 1492TIP3   OH225890   0.799   6.787   5.925 -0.0701 -0.5705 -0.0090
 1492TIP3    H125891   0.833   6.836   6.001 -0.8087  0.3403 -0.2416
 1492TIP3    H225892   0.859   6.808   5.854 -0.2686 -0.1440 -0.0568
 1493TIP3   OH225893   6.501   4.831  16.497 -0.6292 -0.2451 -0.4958
 1493TIP3    H125894   6.466   4.767  16.435 -0.6167 -0.2679 -0.4794
 1493TIP3    H225895   6.434   4.837  16.566 -0.5632 -0.3468 -0.4228
 1494TIP3   OH225896   5.640   6.459  11.917 -0.3594 -0.1290  0.2905
 1494TIP3    H125897   5.560   6.428  11.874 -0.8175 -0.2730  1.2235
 1494TIP3    H225898   5.703   6.470  11.845 -1.7355  1.7264 -0.7266
 1495TIP3   OH225899   4.705   5.441   3.597  0.1905  0.1790 -0.0649
 1495TIP3    H125900   4.624   5.482   3.566 -0.2051 -0.5006  0.0598
 1495TIP3    H225901   4.693   5.431   3.691 -0.5282 -1.9648 -0.3424
 1496TIP3   OH225902   5.855   6.485   5.097  0.1520  0.1240 -0.0433
 1496TIP3    H125903   5.912   6.420   5.139  1.1652  0.9387 -0.1196
 1496TIP3    H225904   5.776   6.436   5.074  1.0248 -1.1632 -0.4157
 1497TIP3   OH225905   0.246   0.082  14.424 -0.4446  0.6695 -0.2906
 1497TIP3    H125906   0.339   0.070  14.405 -0.7309 -1.6105 -0.5339
 1497TIP3    H225907   0.211   0.123  14.345  0.0362 -0.2181 -0.9915
 1498TIP3   OH225908   3.559   5.477   0.753 -0.0191  0.2985 -0.3474
 1498TIP3    H125909   3.622   5.534   0.796 -0.6279  1.0439 -0.4385
 1498TIP3    H225910   3.494   5.536   0.716  0.0355 -0.3752 -1.5660
 1499TIP3   OH225911   5.281   5.584  12.545 -0.0616 -0.3823  0.5110
 1499TIP3    H125912   5.319   5.644  12.481 -0.6817 -0.0812  0.4226
 1499TIP3    H225913   5.218   5.532  12.496  1.1484 -1.7904  0.3746
 1500TIP3   OH225914   2.194   3.889  10.392 -0.5122  0.0246  0.1210
 1500TIP3    H125915   2.149   3.968  10.421 -0.4982  0.4086 -0.8678
 1500TIP3    H225916   2.130   3.819  10.404 -0.8283  0.3255  0.1947
 1501TIP3   OH225917   6.544   0.611   4.269 -0.0273  0.3756 -0.3668
 1501TIP3    H125918   6.451   0.620   4.290 -0.6672 -1.8609 -1.9349
 1501TIP3    H225919   6.586   0.592   4.353 -1.1077  0.5434  0.2326
 1502TIP3   OH225920   3.070   2.768   2.515 -0.0021 -0.3228 -0.4672
 1502TIP3    H125921   2.979   2.794   2.529 -0.3075 -1.3808 -0.3977
 1502TIP3    H225922   3.093   2.807   2.430 -0.1552  0.8612  0.0103
 1503TIP3   OH225923   0.470   4.570   2.115 -0.4850  0.3857 -0.3164
 1503TIP3    H125924   0.444   4.651   2.158 -0.2876 -0.0331  0.6261
 1503TIP3    H225925   0.563   4.581   2.097 -1.1090  1.7678 -3.4280
 1504TIP3   OH225926   1.520   1.103   4.198 -0.2537  0.3148  0.0891
 1504TIP3    H125927   1.498   1.026   4.250  0.0341 -0.7734 -1.3400
 1504TIP3    H225928   1.435   1.139   4.171 -0.5272 -2.2358 -3.0591
 1505TIP3   OH225929   1.380   6.259   3.584  0.1599  0.2537 -0.3750
 1505TIP3    H125930   1.311   6.276   3.648  1.7830  1.0149  1.2610
 1505TIP3    H225931   1.358   6.317   3.510 -1.1151  0.2275 -0.0490
 1506TIP3   OH225932   1.598   0.399  11.889 -0.1756 -0.1720 -0.0339
 1506TIP3    H125933   1.603   0.483  11.934 -0.8522 -0.4560  0.6122
 1506TIP3    H225934   1.506   0.373  11.898  0.0239 -0.9737 -0.2203
 1507TIP3   OH225935   5.888   4.481   5.990  0.3763 -0.7288 -0.7102
 1507TIP3    H125936   5.962   4.420   5.986  0.6722 -0.3967 -0.4886
 1507TIP3    H225937   5.904   4.531   6.071  0.2783 -0.1931 -1.0171
 1508TIP3   OH225938   5.616   3.709   2.540  0.2439 -0.2512 -0.2496
 1508TIP3    H125939   5.651   3.667   2.462 -1.3493 -0.3930 -0.9201
 1508TIP3    H225940   5.639   3.802   2.531 -0.7993 -0.0900 -1.4080
 1509TIP3   OH225941   1.960   1.407  14.997  0.0287 -0.2863 -0.7486
 1509TIP3    H125942   1.928   1.485  15.042  1.8051  0.2586 -0.3524
 1509TIP3    H225943   1.893   1.340  15.015 -1.5841  1.1345 -1.2035
 1510TIP3   OH225944   0.526   4.245   1.523 -0.3218  0.2903 -0.2303
 1510TIP3    H125945   0.496   4.334   1.538 -1.6464 -0.2071  0.1649
 1510TIP3    H225946   0.466   4.210   1.458  2.8119  1.0599 -3.9105
 1511TIP3   OH225947   1.392   2.291  11.821 -0.0355  0.2252 -0.3707
 1511TIP3    H125948   1.344   2.363  11.863  1.6561  1.7364 -0.9218
 1511TIP3    H225949   1.416   2.233  11.893 -2.4558 -0.5018 -0.0569
 1512TIP3   OH225950   2.386   2.612   4.745 -0.1286 -0.1919  0.1371
 1512TIP3    H125951   2.433   2.692   4.770  1.4953 -1.1228  0.2513
 1512TIP3    H225952   2.438   2.577   4.672 -2.1821  0.0766 -1.5471
 1513TIP3   OH225953   4.401   2.819  13.050  0.1741 -0.2777 -0.2666
 1513TIP3    H125954   4.324   2.838  12.997  0.8767  0.4745 -1.0540
 1513TIP3    H225955   4.437   2.738  13.014  1.3323  0.8553 -1.7917
 1514TIP3   OH225956   3.032   6.777  14.326 -0.0014 -0.0525  0.0239
 1514TIP3    H125957   3.029   6.862  14.282  2.4760 -0.0781 -0.2871
 1514TIP3    H225958   2.994   6.794  14.412  1.2215  1.5974  0.2808
 1515TIP3   OH225959   1.782   1.681   2.610  0.1008 -0.3809 -0.0917
 1515TIP3    H125960   1.834   1.661   2.532  0.5351  1.1550 -0.2251
 1515TIP3    H225961   1.701   1.720   2.576 -1.3173 -2.9009  0.1026
 1516TIP3   OH225962   2.147   1.613  13.360  0.4024 -0.7557 -0.4548
 1516TIP3    H125963   2.086   1.641  13.292 -0.5092 -2.8367 -0.5910
 1516TIP3    H225964   2.188   1.534  13.324  1.2805 -0.8336  0.6644
 1517TIP3   OH225965   1.745   1.880  15.737 -0.3993  0.0288 -0.7206
 1517TIP3    H125966   1.695   1.841  15.809 -0.9373 -0.1210 -1.1710
 1517TIP3    H225967   1.783   1.805  15.691  1.4119  0.1758  0.4202
 1518TIP3   OH225968   3.532   5.275  16.077 -0.3511  0.0231  0.2746
 1518TIP3    H125969   3.579   5.285  15.994  0.8347  0.7366  1.0012
 1518TIP3    H225970   3.536   5.181  16.095 -0.4122 -0.1047 -0.3631
 1519TIP3   OH225971   4.370   1.583   5.727  0.5151  0.5744 -0.2539
 1519TIP3    H125972   4.335   1.511   5.779 -1.5460  1.7754  0.1536
 1519TIP3    H225973   4.307   1.594   5.656  1.3498  1.3372 -0.9050
 1520TIP3   OH225974   6.664   6.610  11.945 -0.5901  0.5495  0.2161
 1520TIP3    H125975   6.569   6.608  11.944 -0.6429 -1.5189  2.0616
 1520TIP3    H225976   6.691   6.519  11.935  1.2171  1.0601 -0.0500
 1521TIP3   OH225977   0.567   5.021   4.157 -0.1252  0.2874  0.3772
 1521TIP3    H125978   0.513   5.070   4.095  0.0071  0.9022  0.7398
 1521TIP3    H225979   0.639   5.081   4.178 -0.0596  0.0045  0.9635
 1522TIP3   OH225980   4.757   3.588   2.406  0.2105 -0.1478 -0.7509
 1522TIP3    H125981   4.672   3.631   2.399  0.5831  0.5168 -1.2919
 1522TIP3    H225982   4.753   3.516   2.344 -0.3572 -0.8065  0.0367
 1523TIP3   OH225983   3.887   2.819   5.993  0.0655 -0.1277 -0.1145
 1523TIP3    H125984   3.817   2.758   6.014  1.2657 -0.9660  1.6089
 1523TIP3    H225985   3.917   2.853   6.077  0.4173  1.7565 -0.9310
 1524TIP3   OH225986   6.774   4.048   4.402 -0.0216  0.3206 -0.1918
 1524TIP3    H125987   6.700   4.107   4.392 -0.6407 -0.3418  0.3349
 1524TIP3    H225988   6.765   3.985   4.331 -1.5276 -1.3611  1.4014
 1525TIP3   OH225989   5.823   6.361   0.642 -0.0516  0.0327  0.0622
 1525TIP3    H125990   5.813   6.277   0.687 -2.8013 -0.0893 -0.5661
 1525TIP3    H225991   5.779   6.348   0.558 -1.6188  2.3925  0.4190
 1526TIP3   OH225992   0.717   1.161   0.328 -0.3438  0.0757  0.4979
 1526TIP3    H125993   0.668   1.231   0.371  1.1998  1.1210  0.6212
 1526TIP3    H225994   0.713   1.181   0.235  1.1591  1.0949  0.6174
 1527TIP3   OH225995   0.365   0.747  14.813  0.1627 -0.1473  0.0042
 1527TIP3    H125996   0.316   0.829  14.800 -1.3288 -1.0575 -0.3509
 1527TIP3    H225997   0.334   0.714  14.897  0.3012 -0.6519 -0.1406
 1528TIP3   OH225998   0.822   3.320  12.735 -0.4066 -0.1857  0.6225
 1528TIP3    H125999   0.814   3.397  12.678  1.1870 -0.5897 -0.1940
 1528TIP3    H226000   0.731   3.291  12.748 -1.2082  2.5730  2.0413
 1529TIP3   OH226001   5.321   5.948  15.538 -0.2107  0.1698 -0.2838
 1529TIP3    H126002   5.315   6.001  15.458 -0.5197  0.5663 -0.0014
 1529TIP3    H226003   5.320   5.858  15.506  1.9743  0.3019 -0.8869
 1530TIP3   OH226004   0.405   3.263  11.586  0.6675 -0.1419  0.5274
 1530TIP3    H126005   0.326   3.240  11.538 -0.1727  0.8174  1.4016
 1530TIP3    H226006   0.437   3.180  11.622  0.8744 -0.7500 -1.0093
 1531TIP3   OH226007   6.169   4.641   1.183 -0.3697  0.1727  0.4884
 1531TIP3    H126008   6.237   4.581   1.213  0.3554 -0.1135 -1.5581
 1531TIP3    H226009   6.167   4.710   1.248  2.3578  0.5263  0.3234
 1532TIP3   OH226010   4.789   5.622   1.083 -0.3379 -0.2754 -0.0523
 1532TIP3    H126011   4.877   5.605   1.051 -0.0668 -0.7361  0.9046
 1532TIP3    H226012   4.766   5.708   1.048  1.1057  0.5582  0.9619
 1533TIP3   OH226013   6.594   0.151  11.479  0.6104  0.3114  0.5131
 1533TIP3    H126014   6.657   0.201  11.427  0.8754 -1.3705 -0.8510
 1533TIP3    H226015   6.625   0.160  11.569  2.6892 -0.2825 -0.0919
 1534TIP3   OH226016   4.674   4.476  16.266 -0.0836  0.0856  0.6458
 1534TIP3    H126017   4.602   4.516  16.219  0.1241  1.0677  1.1256
 1534TIP3    H226018   4.636   4.400  16.310 -0.3909 -0.5283 -0.6399
 1535TIP3   OH226019   3.438   0.216  11.144 -1.1592  0.4300  0.1660
 1535TIP3    H126020   3.434   0.125  11.116 -2.1078  0.9443 -1.5264
 1535TIP3    H226021   3.354   0.231  11.188 -1.4548  0.7675 -0.5088
 1536TIP3   OH226022   5.018   5.287   2.366  0.6139  0.0188 -0.5024
 1536TIP3    H126023   4.944   5.340   2.335  0.2906  0.1861  0.5403
 1536TIP3    H226024   5.083   5.294   2.295 -0.3280 -0.0742 -1.3960
 1537TIP3   OH226025   1.337   0.929  14.432  0.0877 -0.1759  0.2005
 1537TIP3    H126026   1.417   0.880  14.449 -0.2740 -1.3858 -1.3576
 1537TIP3    H226027   1.306   0.896  14.347 -1.8084  0.5923  0.5398
 1538TIP3   OH226028   0.559   3.804  14.479 -0.4346 -0.0406 -0.1704
 1538TIP3    H126029   0.570   3.780  14.387 -2.7253 -0.6226 -0.3563
 1538TIP3    H226030   0.497   3.740  14.514 -0.0796  0.5230  1.6379
 1539TIP3   OH226031   5.087   2.455   2.818 -0.2227 -0.4591 -0.1689
 1539TIP3    H126032   5.071   2.367   2.852  0.8914 -0.6163  0.0078
 1539TIP3    H226033   5.002   2.484   2.786 -0.2481 -2.4516 -2.2237
 1540TIP3   OH226034   1.025   4.605   0.236  0.4813  0.0078  0.0228
 1540TIP3    H126035   1.068   4.633   0.317  0.8858 -1.0262  0.1804
 1540TIP3    H226036   1.063   4.519   0.217 -0.8219 -0.5155 -0.3480
 1541TIP3   OH226037   4.518   4.248   2.029 -0.0586  0.6600 -1.0848
 1541TIP3    H126038   4.514   4.340   2.001 -1.4469  1.2417  0.8227
 1541TIP3    H226039   4.429   4.228   2.058  0.3977 -1.0824 -0.7738
 1542TIP3   OH226040   4.861   2.378   0.027  0.2911  0.2904  0.5609
 1542TIP3    H126041   4.807   2.303   0.051  0.6330  0.4082  1.7450
 1542TIP3    H226042   4.876   2.367  -0.067 -1.4336  0.0495  0.2907
 1543TIP3   OH226043   2.874   2.441   3.980  0.0643 -0.0656  0.2735
 1543TIP3    H126044   2.835   2.460   4.066 -0.4186 -2.3058  0.6038
 1543TIP3    H226045   2.937   2.512   3.967  0.3848  0.1753  2.6370
 1544TIP3   OH226046   5.454   0.827   2.623 -0.3926 -0.3726  0.1640
 1544TIP3    H126047   5.420   0.846   2.535  0.3956 -0.7674 -0.2321
 1544TIP3    H226048   5.435   0.734   2.636 -0.7549 -0.2499  0.5308
 1545TIP3   OH226049   4.472   3.841   3.236 -0.1450 -0.0913 -0.4441
 1545TIP3    H126050   4.433   3.889   3.309 -3.5376 -2.5752 -0.3960
 1545TIP3    H226051   4.534   3.780   3.277  4.2133  3.7403 -0.5081
 1546TIP3   OH226052   4.982   2.758   0.658  0.0534 -0.3129 -0.1981
 1546TIP3    H126053   4.923   2.745   0.583 -0.5173 -0.7845  0.3207
 1546TIP3    H226054   4.955   2.691   0.721 -0.7768  1.2821  1.2165
 1547TIP3   OH226055   6.739   2.577   0.885  0.0120 -0.1581  0.4290
 1547TIP3    H126056   6.664   2.579   0.827 -0.0405 -1.0206  0.4557
 1547TIP3    H226057   6.796   2.509   0.848  0.6236  0.2570  0.5944
 1548TIP3   OH226058   1.337   0.674   5.356  0.0552 -0.1088  0.2342
 1548TIP3    H126059   1.328   0.584   5.323 -1.8472  0.6580 -1.5796
 1548TIP3    H226060   1.351   0.727   5.277 -0.0351  1.3254  1.1442
 1549TIP3   OH226061   5.893   1.538   1.220  0.5186  0.0748  0.7843
 1549TIP3    H126062   5.966   1.479   1.201 -0.2177 -0.2474 -1.2668
 1549TIP3    H226063   5.901   1.608   1.156 -0.4799  0.4871  1.0896
 1550TIP3   OH226064   4.974   4.570  13.702  0.2322  0.0289  0.0739
 1550TIP3    H126065   4.885   4.537  13.711 -0.2122  1.1983 -0.0011
 1550TIP3    H226066   4.980   4.597  13.610  0.7289 -0.2191  0.0298
 1551TIP3   OH226067   1.687   1.756  13.771 -0.0071  0.9530  0.8145
 1551TIP3    H126068   1.710   1.805  13.692 -0.7829  0.9196  0.5598
 1551TIP3    H226069   1.770   1.743  13.817  0.7337 -0.4918 -0.8167
 1552TIP3   OH226070   2.360   5.209   5.897 -0.3842  0.2631  0.3621
 1552TIP3    H126071   2.402   5.171   5.974 -1.4044  2.1755  1.9541
 1552TIP3    H226072   2.272   5.232   5.927  0.3207  4.4300 -0.1797
 1553TIP3   OH226073   1.509   0.128  13.711  0.0255  0.0479  0.3828
 1553TIP3    H126074   1.469   0.215  13.724 -1.6482 -0.5168 -0.6037
 1553TIP3    H226075   1.485   0.079  13.790  0.3423  0.2520  0.6088
 1554TIP3   OH226076   5.557   2.742  16.531  0.0409 -0.0930 -0.2520
 1554TIP3    H126077   5.573   2.681  16.459 -0.0702 -0.1047 -0.2682
 1554TIP3    H226078   5.609   2.708  16.603  1.7529  1.0468 -0.9028
 1555TIP3   OH226079   5.645   6.022   4.826  0.4762  0.2869 -0.5200
 1555TIP3    H126080   5.600   5.959   4.883  3.1269 -0.7964  0.5084
 1555TIP3    H226081   5.624   6.108   4.865  1.5520 -0.3726  1.6662
 1556TIP3   OH226082   3.903   5.295  12.038 -0.1223  0.2500 -0.6458
 1556TIP3    H126083   3.874   5.220  12.091 -1.2543  0.3539 -1.0931
 1556TIP3    H226084   3.997   5.282  12.029 -0.3804 -1.5115 -1.2748
 1557TIP3   OH226085   2.317   6.370   2.754  0.7481 -0.4845 -0.0444
 1557TIP3    H126086   2.397   6.422   2.758 -0.7124  1.9383 -0.3001
 1557TIP3    H226087   2.249   6.428   2.789 -0.7993 -2.7200  0.8819
 1558TIP3   OH226088   3.778   2.870   3.519  0.4143 -0.1661  0.0276
 1558TIP3    H126089   3.806   2.823   3.440  2.3857  0.4483  0.3311
 1558TIP3    H226090   3.856   2.876   3.573 -0.4361  1.1809  1.1704
 1559TIP3   OH226091   5.790   3.317  15.444  0.0599  0.0933  0.8611
 1559TIP3    H126092   5.856   3.360  15.498  0.1570 -0.0550  0.8614
 1559TIP3    H226093   5.727   3.385  15.424  0.8134  0.5280 -0.0997
 1560TIP3   OH226094   0.804   3.014   3.548  0.0138  0.1773  0.1950
 1560TIP3    H126095   0.708   3.021   3.551  0.0406  0.3604  0.7584
 1560TIP3    H226096   0.821   2.921   3.564 -0.0739  0.1114 -0.0839
 1561TIP3   OH226097   3.262   2.159   5.735  0.2999 -0.4189  0.3940
 1561TIP3    H126098   3.169   2.182   5.742  0.6329  2.0414 -1.6626
 1561TIP3    H226099   3.276   2.095   5.805 -3.1304 -1.6506  0.1525
 1562TIP3   OH226100   4.907   2.032  16.761 -0.3119  0.2674 -0.1397
 1562TIP3    H126101   4.845   2.106  16.759 -0.1153  0.4798  0.8917
 1562TIP3    H226102   4.858   1.959  16.723 -1.0636  0.5333  0.3022
 1563TIP3   OH226103   3.530   4.499   3.902  0.1062 -0.1249 -0.0974
 1563TIP3    H126104   3.495   4.537   3.982  1.8961 -0.1147  0.7181
 1563TIP3    H226105   3.509   4.406   3.908  1.0679 -0.2972  0.8808
 1564TIP3   OH226106   0.477   3.486   2.777 -0.3455  0.4585  0.3315
 1564TIP3    H126107   0.522   3.439   2.708  0.1136  2.0268 -0.4851
 1564TIP3    H226108   0.538   3.554   2.804 -0.7364  0.2281  1.9139
 1565TIP3   OH226109   1.704   1.648   3.539  0.3348 -0.3753 -0.1847
 1565TIP3    H126110   1.654   1.673   3.617 -0.0758 -0.4734 -0.4176
 1565TIP3    H226111   1.655   1.576   3.500  1.5031 -1.5681  0.4733
 1566TIP3   OH226112   5.247   5.956  16.557 -0.3540  0.0271 -0.6575
 1566TIP3    H126113   5.266   5.876  16.508 -1.4787  0.6746 -2.2352
 1566TIP3    H226114   5.300   5.949  16.636 -0.7698 -2.4871 -0.5402
 1567TIP3   OH226115   0.056   4.722  13.687  0.4350  0.3546 -0.5183
 1567TIP3    H126116   0.073   4.786  13.618  1.4360 -0.5570 -1.1454
 1567TIP3    H226117   0.133   4.726  13.743 -0.1018  0.6505  0.2161
 1568TIP3   OH226118   2.830   0.679  13.568  0.3822  0.5480  0.4298
 1568TIP3    H126119   2.879   0.605  13.532 -0.4413 -0.2154  0.8465
 1568TIP3    H226120   2.870   0.756  13.528 -0.2219 -0.2292 -1.7755
 1569TIP3   OH226121   0.500   3.848   3.809  0.4682 -0.0372  0.2436
 1569TIP3    H126122   0.574   3.786   3.807 -0.2802 -0.9440 -0.0905
 1569TIP3    H226123   0.515   3.905   3.733  1.2268  0.2684  0.6164
 1570TIP3   OH226124   3.086   4.696   4.497  0.4245  0.1038  0.5169
 1570TIP3    H126125   3.026   4.631   4.463 -0.5558  0.8299  0.8233
 1570TIP3    H226126   3.037   4.778   4.497  1.9588  1.0908 -0.8899
 1571TIP3   OH226127   2.842   5.148   1.839 -0.2401 -0.2337  0.0253
 1571TIP3    H126128   2.929   5.169   1.805 -0.4770 -0.0895 -0.4988
 1571TIP3    H226129   2.850   5.161   1.933  0.9508 -2.4463  0.3053
 1572TIP3   OH226130   1.226   3.891  10.307 -0.0956  0.4275  0.1090
 1572TIP3    H126131   1.320   3.874  10.317 -0.0619  1.1942  1.3696
 1572TIP3    H226132   1.184   3.806  10.322  0.2636  0.5997  2.5165
 1573TIP3   OH226133   3.330   4.900   2.631  0.1858 -0.2182 -0.1076
 1573TIP3    H126134   3.390   4.827   2.645 -0.9883 -1.3637 -0.7655
 1573TIP3    H226135   3.255   4.881   2.688  1.4457  2.5651  2.7945
 1574TIP3   OH226136   0.979   0.720  10.729  0.5295  0.9751  0.4571
 1574TIP3    H126137   1.016   0.633  10.715  2.4694  1.0222  4.0675
 1574TIP3    H226138   1.042   0.780  10.689  1.5991  0.8137  1.8082
 1575TIP3   OH226139   0.331   3.016  10.756 -0.3903 -0.3156  0.1783
 1575TIP3    H126140   0.329   2.986  10.665  0.6751 -1.7617  0.5832
 1575TIP3    H226141   0.392   3.089  10.757  0.9903 -1.4248 -0.0054
 1576TIP3   OH226142   1.435   1.320  15.647 -0.0255  0.6775  0.4223
 1576TIP3    H126143   1.489   1.399  15.654 -0.2304  1.0438 -1.5386
 1576TIP3    H226144   1.498   1.249  15.636  0.1345  0.9148 -0.3166
 1577TIP3   OH226145   4.595   3.031  11.461  0.1457 -0.1180 -0.1389
 1577TIP3    H126146   4.618   3.006  11.551  0.8708  2.3302  0.4526
 1577TIP3    H226147   4.566   2.950  11.420 -0.9325 -1.2131  2.5137
 1578TIP3   OH226148   0.826   4.352   3.577 -0.1223 -0.0694 -0.3240
 1578TIP3    H126149   0.831   4.441   3.543 -1.1431 -0.2613 -1.0278
 1578TIP3    H226150   0.734   4.340   3.599  0.0661 -0.8446  0.0783
 1579TIP3   OH226151   5.578   6.047   1.243 -0.0421 -0.3832  0.2463
 1579TIP3    H126152   5.616   5.965   1.213  1.4299  0.4494 -0.2758
 1579TIP3    H226153   5.653   6.104   1.260 -0.9594  0.4341  1.8940
 1580TIP3   OH226154   4.714   1.878   3.965 -0.2612  0.4211  0.8946
 1580TIP3    H126155   4.791   1.935   3.977  0.0823 -0.4333  3.0968
 1580TIP3    H226156   4.691   1.849   4.053 -1.6609 -1.2819  0.0288
 1581TIP3   OH226157   1.113   1.579  16.878  0.4547 -0.4761  0.1927
 1581TIP3    H126158   1.197   1.565  16.835  0.9046 -0.6831  1.0972
 1581TIP3    H226159   1.109   1.510  16.945 -0.4284 -0.4558  0.1694
 1582TIP3   OH226160   5.983   1.636   3.199 -0.0085 -0.1500  0.4936
 1582TIP3    H126161   6.033   1.718   3.191  0.1980 -0.3541 -0.5407
 1582TIP3    H226162   5.898   1.663   3.235  0.0957  0.5138  0.2571
 1583TIP3   OH226163   0.744   4.382   1.338  0.3187  0.1237  0.5571
 1583TIP3    H126164   0.804   4.357   1.408 -0.6598  1.5685  1.9755
 1583TIP3    H226165   0.660   4.347   1.364  0.2536 -0.7920 -0.7881
 1584TIP3   OH226166   5.660   6.259  16.986  0.6315  0.1211  0.0856
 1584TIP3    H126167   5.622   6.342  17.013 -0.0805  0.2205 -1.1963
 1584TIP3    H226168   5.715   6.281  16.911  1.5187 -0.3677  0.5718
 1585TIP3   OH226169   0.624   0.906  15.965 -0.1990  0.0366 -0.2721
 1585TIP3    H126170   0.696   0.969  15.960 -0.3580  0.2971  0.5681
 1585TIP3    H226171   0.640   0.858  16.047  0.2346 -1.4159 -1.1595
 1586TIP3   OH226172   2.810   3.036  14.196  0.6502 -0.8298 -0.3983
 1586TIP3    H126173   2.744   3.096  14.231 -0.3262 -1.7705 -0.5702
 1586TIP3    H226174   2.828   3.070  14.108 -0.2801 -1.0718 -0.6905
 1587TIP3   OH226175   2.766   0.161  12.823 -0.0148 -0.3099 -0.3253
 1587TIP3    H126176   2.764   0.178  12.917  2.2747 -1.0076 -0.0885
 1587TIP3    H226177   2.723   0.076  12.813 -2.0059  0.6290 -0.2025
 1588TIP3   OH226178   4.740   4.188   2.258  0.5909 -0.0085  0.0643
 1588TIP3    H126179   4.689   4.178   2.178 -0.5812  0.8560  0.6768
 1588TIP3    H226180   4.808   4.120   2.252 -0.0033 -0.5143 -1.2453
 1589TIP3   OH226181   0.145   4.398   1.075 -0.3822  0.2395 -0.0574
 1589TIP3    H126182   0.134   4.325   1.136  1.2660  1.1930  1.4600
 1589TIP3    H226183   0.233   4.386   1.038 -0.0158  1.5036  0.3346
 1590TIP3   OH226184   5.900   4.547  11.954  0.4758 -0.4414  0.1585
 1590TIP3    H126185   5.870   4.581  11.869  0.6546  0.0627  0.2985
 1590TIP3    H226186   5.971   4.605  11.980 -1.1543  0.9286  1.8109
 1591TIP3   OH226187   4.285   6.491   0.243  0.3218  0.2126 -0.3415
 1591TIP3    H126188   4.299   6.477   0.150 -1.3344  0.7443 -0.7221
 1591TIP3    H226189   4.254   6.582   0.249 -1.0331 -0.2666  0.5136
 1592TIP3   OH226190   2.998   3.325   3.262  0.0090  0.1280 -0.6126
 1592TIP3    H126191   3.035   3.357   3.180 -0.5989 -0.4186 -1.1087
 1592TIP3    H226192   2.921   3.274   3.236  0.4534 -1.0095  0.2048
 1593TIP3   OH226193   1.528   3.017  12.595  0.0182 -0.1387  0.0747
 1593TIP3    H126194   1.571   3.024  12.680 -0.1570  3.5929  0.0172
 1593TIP3    H226195   1.439   2.987  12.615  0.7658 -1.9777  0.8318
 1594TIP3   OH226196   4.683   5.586   4.323  0.7498  0.6217  0.6656
 1594TIP3    H126197   4.591   5.581   4.300  0.9630 -2.1490  0.1531
 1594TIP3    H226198   4.691   5.537   4.405  1.8996 -0.0515  0.1716
 1595TIP3   OH226199   3.835   0.558  12.704  0.4250 -0.5076  0.2369
 1595TIP3    H126200   3.928   0.565  12.680 -0.0355  0.4807 -1.4510
 1595TIP3    H226201   3.808   0.648  12.721 -0.4795 -0.6463 -0.4064
 1596TIP3   OH226202   1.926   1.053  11.911 -0.4341 -0.1901 -0.2737
 1596TIP3    H126203   1.899   1.075  12.000 -0.1902  1.2301 -0.5284
 1596TIP3    H226204   1.861   1.097  11.855  0.6416  0.7475 -0.8270
 1597TIP3   OH226205   3.260   5.482   5.001 -0.3585  0.0126 -1.1369
 1597TIP3    H126206   3.333   5.535   4.969 -0.1434 -0.2304 -1.0624
 1597TIP3    H226207   3.216   5.537   5.066 -0.2111  0.1415 -1.1458
 1598TIP3   OH226208   6.125   0.464  11.501 -0.3486 -0.0788 -0.2183
 1598TIP3    H126209   6.090   0.437  11.417  0.7308 -1.7021 -0.1954
 1598TIP3    H226210   6.127   0.384  11.554  0.9232  0.4634  0.6291
 1599TIP3   OH226211   0.871   0.656   2.188  0.6472  0.3088  0.1553
 1599TIP3    H126212   0.942   0.700   2.235 -0.0239  1.3216  0.2366
 1599TIP3    H226213   0.885   0.563   2.207  1.4748  0.5531  0.8345
 1600TIP3   OH226214   4.964   1.409   1.784  0.0603 -0.2331  0.1267
 1600TIP3    H126215   5.055   1.392   1.810  0.4373  0.3592 -0.7796
 1600TIP3    H226216   4.938   1.486   1.835  0.5614  0.4941 -0.7020
 1601TIP3   OH226217   3.238   2.748  10.776 -0.4596  0.0017  0.3193
 1601TIP3    H126218   3.192   2.725  10.695 -1.0377 -0.8950  0.8948
 1601TIP3    H226219   3.300   2.677  10.790  0.3823  0.6750  0.1259
 1602TIP3   OH226220   5.456   1.305  13.980  0.0104 -0.2928  0.2278
 1602TIP3    H126221   5.516   1.242  13.940  1.1548  0.8829  0.0341
 1602TIP3    H226222   5.393   1.325  13.911  0.3376 -0.3338 -0.0845
 1603TIP3   OH226223   3.839   2.829  13.416  0.3899 -0.2529  0.2124
 1603TIP3    H126224   3.929   2.802  13.432  1.4380  2.8092  0.1614
 1603TIP3    H226225   3.813   2.878  13.494 -0.9017 -0.3361 -0.1325
 1604TIP3   OH226226   4.111   2.145  14.724 -0.0179  0.0058  0.3533
 1604TIP3    H126227   4.088   2.176  14.811 -0.1140 -2.0353  1.1120
 1604TIP3    H226228   4.180   2.080  14.739 -1.0414 -1.4579 -0.9165
 1605TIP3   OH226229   2.806   3.947  12.542 -0.3804  0.0592 -0.0016
 1605TIP3    H126230   2.901   3.955  12.554 -0.5014  1.3608  0.2583
 1605TIP3    H226231   2.794   3.945  12.447 -0.1802  1.5020 -0.0787
 1606TIP3   OH226232   0.903   2.593  14.514 -0.1639  0.2147  0.0897
 1606TIP3    H126233   0.889   2.506  14.477 -0.7939  0.9833 -1.5957
 1606TIP3    H226234   0.982   2.585  14.567 -0.0043 -1.2847 -0.3389
 1607TIP3   OH226235   1.384   0.481  12.442  0.3793  0.1551 -0.2082
 1607TIP3    H126236   1.346   0.470  12.529  2.9152 -2.6934  0.7210
 1607TIP3    H226237   1.313   0.458  12.381 -1.4588  2.2829  0.9802
 1608TIP3   OH226238   3.294   6.040   2.417 -0.2916 -0.2046  0.9206
 1608TIP3    H126239   3.295   6.093   2.497  0.6470  0.7885  0.2815
 1608TIP3    H226240   3.360   6.081   2.361 -1.2385 -0.6118 -0.5410
 1609TIP3   OH226241   4.316   1.543   1.166  0.3763  0.5809 -0.0167
 1609TIP3    H126242   4.265   1.582   1.237  0.0358  0.6207 -0.2786
 1609TIP3    H226243   4.256   1.543   1.091  0.7058  0.4693 -0.2827
 1610TIP3   OH226244   0.050   5.745  16.235  0.0249  0.5635  0.3240
 1610TIP3    H126245   0.037   5.840  16.231  2.9260  1.0294 -0.0109
 1610TIP3    H226246   0.110   5.726  16.163  4.6721 -0.4023  3.9186
 1611TIP3   OH226247   2.811   1.019  11.068 -0.2422  0.1581 -0.4354
 1611TIP3    H126248   2.734   0.976  11.032  0.3900 -0.5468 -0.9694
 1611TIP3    H226249   2.783   1.110  11.083 -2.5142 -0.9244  3.4359
 1612TIP3   OH226250   1.587   4.906  16.382  0.0020  0.6669  0.1041
 1612TIP3    H126251   1.669   4.886  16.336 -1.1449  1.2869 -2.3553
 1612TIP3    H226252   1.521   4.908  16.313 -2.4818 -1.6095  2.1933
 1613TIP3   OH226253   5.959   3.647  13.034 -0.0356  0.3719 -0.4944
 1613TIP3    H126254   5.956   3.568  12.981  2.3140  0.9440 -1.6102
 1613TIP3    H226255   6.015   3.624  13.109  0.1774  0.8003 -0.5193
 1614TIP3   OH226256   1.602   0.600  16.295  0.2151 -0.7789 -0.9496
 1614TIP3    H126257   1.529   0.539  16.283  0.8914 -1.5642 -1.1391
 1614TIP3    H226258   1.649   0.598  16.212 -0.3020  0.7558 -1.3035
 1615TIP3   OH226259   5.745   3.758  13.595  0.0282 -0.1296  0.0679
 1615TIP3    H126260   5.770   3.780  13.505  0.5702  0.3314  0.3210
 1615TIP3    H226261   5.661   3.802  13.609  0.2013  0.2417 -0.0433
 1616TIP3   OH226262   4.723   0.767  11.609  0.9271  0.5996  0.0414
 1616TIP3    H126263   4.815   0.785  11.590  0.8296 -0.2077 -1.2617
 1616TIP3    H226264   4.721   0.677  11.640  0.6363  0.7966  0.6133
 1617TIP3   OH226265   2.594   4.263   0.571  0.1712 -0.7241  0.3382
 1617TIP3    H126266   2.578   4.203   0.644  0.6590 -0.5105  0.6232
 1617TIP3    H226267   2.638   4.209   0.505  0.8772 -0.6211  0.7109
 1618TIP3   OH226268   5.562   2.715   1.236 -0.5959  0.4065  0.2239
 1618TIP3    H126269   5.572   2.808   1.258 -3.8487  0.8389  0.3113
 1618TIP3    H226270   5.530   2.715   1.146 -0.0831 -0.7049  0.0217
 1619TIP3   OH226271   0.211   6.438  11.702  0.3724  0.2512 -0.0521
 1619TIP3    H126272   0.302   6.420  11.680 -0.2419 -0.1253 -2.5479
 1619TIP3    H226273   0.208   6.533  11.717  0.7087  0.7762 -2.8501
 1620TIP3   OH226274   2.826   5.764  15.696 -0.1386 -0.1898 -0.2656
 1620TIP3    H126275   2.765   5.702  15.655 -2.5215  1.6870  0.2562
 1620TIP3    H226276   2.843   5.830  15.629  0.2915  0.0110  0.0316
 1621TIP3   OH226277   5.066   0.360   1.008 -0.2792  0.2447  0.0179
 1621TIP3    H126278   5.071   0.317   1.093  0.2483  0.9503  0.3604
 1621TIP3    H226279   5.122   0.437   1.018 -1.1034  0.9334 -0.6147
 1622TIP3   OH226280   5.968   2.143  12.279 -0.5340  0.2261 -0.1864
 1622TIP3    H126281   5.945   2.229  12.244 -1.6288  0.4232  0.9648
 1622TIP3    H226282   5.884   2.098  12.288  0.1119 -1.7427 -2.5935
 1623TIP3   OH226283   4.828   0.432  13.674  0.7318 -0.3117 -0.3795
 1623TIP3    H126284   4.822   0.527  13.670  0.5636 -0.3350 -0.6900
 1623TIP3    H226285   4.915   0.411  13.639  1.0519 -0.2342  0.3344
 1624TIP3   OH226286   6.772   0.410   0.735  0.2545  0.6141 -0.0434
 1624TIP3    H126287   6.811   0.398   0.648  3.4533 -0.1533  1.3244
 1624TIP3    H226288   6.695   0.353   0.736  2.5445 -2.7990 -1.0654
 1625TIP3   OH226289   0.383   5.090   3.097  0.2912 -0.1397 -0.4192
 1625TIP3    H126290   0.330   5.170   3.097 -0.5087 -0.6376  0.9498
 1625TIP3    H226291   0.454   5.108   3.158 -0.2297 -0.6707  0.3576
 1626TIP3   OH226292   6.503   2.179  14.137  0.0368  0.1573  0.0943
 1626TIP3    H126293   6.416   2.187  14.098 -0.3471 -0.0258  0.8810
 1626TIP3    H226294   6.497   2.228  14.219  1.4191  2.1985 -0.9551
 1627TIP3   OH226295   6.297   2.184  15.529  0.1372  0.5119  0.1504
 1627TIP3    H126296   6.266   2.123  15.462  0.5056  0.7371 -0.2255
 1627TIP3    H226297   6.217   2.219  15.568 -0.1085  1.6878 -1.3470
 1628TIP3   OH226298   4.280   4.472  16.397 -0.6437  0.5673 -0.5508
 1628TIP3    H126299   4.304   4.419  16.321 -2.3467 -0.2269 -0.5622
 1628TIP3    H226300   4.306   4.561  16.373  1.7995 -0.1052 -0.7310
 1629TIP3   OH226301   1.610   0.812   0.078 -1.0084 -0.4298  0.1130
 1629TIP3    H126302   1.560   0.856   0.147  0.7369 -0.1873  1.2853
 1629TIP3    H226303   1.593   0.718   0.092 -0.8892 -0.3666  0.7231
 1630TIP3   OH226304   0.950   3.184  11.207  0.1590 -0.2658 -0.3188
 1630TIP3    H126305   0.974   3.242  11.135  1.2780  0.2319  0.4304
 1630TIP3    H226306   1.031   3.171  11.256 -0.8070  0.3241  1.5170
 1631TIP3   OH226307   5.352   1.410  11.674 -0.2495  0.1190 -0.0121
 1631TIP3    H126308   5.307   1.371  11.749 -3.8363 -0.1083 -2.0839
 1631TIP3    H226309   5.428   1.353  11.659 -0.7829 -1.1974  1.9611
 1632TIP3   OH226310   1.633   5.712  10.814  0.0377  0.3179 -0.0346
 1632TIP3    H126311   1.587   5.632  10.840 -0.0524 -0.1559 -1.5336
 1632TIP3    H226312   1.568   5.782  10.824 -0.0865  0.1053  0.6655
 1633TIP3   OH226313   1.135   4.545   6.041  0.4539 -0.2507 -0.4853
 1633TIP3    H126314   1.109   4.466   6.089  2.9474 -0.6743  0.3353
 1633TIP3    H226315   1.129   4.615   6.105 -0.7906  0.0971 -0.9429
 1634TIP3   OH226316   2.111   0.868  12.561 -0.2008 -0.2381  0.1545
 1634TIP3    H126317   2.174   0.817  12.611 -1.5670 -2.7678 -0.5496
 1634TIP3    H226318   2.140   0.860  12.470  0.6303  1.9403  0.1526
 1635TIP3   OH226319   5.901   4.302  11.685  0.2634 -0.2576 -0.8901
 1635TIP3    H126320   5.976   4.251  11.653  0.3564 -0.2575 -0.6731
 1635TIP3    H226321   5.855   4.329  11.606  0.2076 -0.6879 -1.0073
 1636TIP3   OH226322   3.636   3.102   5.063 -0.1345 -0.4552 -0.0101
 1636TIP3    H126323   3.608   3.095   5.154 -1.7752 -0.1475 -0.4741
 1636TIP3    H226324   3.597   3.025   5.020  0.5665 -0.5591 -0.4789
 1637TIP3   OH226325   3.108   0.929  12.021 -0.2455 -0.4546  0.1239
 1637TIP3    H126326   3.044   0.871  12.061 -0.3376  0.0065  0.6462
 1637TIP3    H226327   3.170   0.869  11.978 -1.9448 -0.9141 -1.9121
 1638TIP3   OH226328   4.610   5.281  13.825 -0.1012  0.6357 -0.1887
 1638TIP3    H126329   4.653   5.310  13.744 -0.3274  2.8969  0.4267
 1638TIP3    H226330   4.531   5.334  13.831 -0.2956  0.2381  1.3153
 1639TIP3   OH226331   3.598   2.872  13.914  0.4088 -0.9536  0.4569
 1639TIP3    H126332   3.663   2.881  13.845 -1.2007  1.2623 -0.9041
 1639TIP3    H226333   3.552   2.791  13.894  1.0380 -1.1803 -0.0837
 1640TIP3   OH226334   0.495   6.362  15.380 -0.3217 -0.0585 -0.2562
 1640TIP3    H126335   0.508   6.454  15.402 -0.7921 -0.4576  2.0004
 1640TIP3    H226336   0.573   6.318  15.414 -1.3885 -0.7986  1.3899
 1641TIP3   OH226337   0.974   2.253   5.186 -0.0583 -0.0171 -0.2392
 1641TIP3    H126338   1.007   2.163   5.186 -0.7448 -0.2793  0.7591
 1641TIP3    H226339   0.971   2.278   5.279 -1.3877  0.4685 -0.3959
 1642TIP3   OH226340   5.296   6.177  13.909 -0.4377  0.3796 -0.1523
 1642TIP3    H126341   5.256   6.188  13.823 -0.8827  0.4333  0.0594
 1642TIP3    H226342   5.262   6.250  13.961 -0.3196  0.2429  0.1202
 1643TIP3   OH226343   0.471   4.920  11.613  0.1249  0.3105 -0.1802
 1643TIP3    H126344   0.384   4.885  11.635  0.5228  0.4228  1.7791
 1643TIP3    H226345   0.485   4.894  11.522 -1.8469  0.0619 -0.4578
 1644TIP3   OH226346   2.831   5.816  14.407 -0.5303 -0.2080  0.1884
 1644TIP3    H126347   2.858   5.758  14.335  0.7983  1.0544 -0.3942
 1644TIP3    H226348   2.784   5.759  14.467 -0.0601 -1.7035 -0.7864
 1645TIP3   OH226349   6.196   5.007   6.144 -0.2946  0.6042  0.4080
 1645TIP3    H126350   6.271   5.057   6.114 -0.0260  1.7063  2.6815
 1645TIP3    H226351   6.133   5.074   6.174 -1.1552 -0.3426  0.7755
 1646TIP3   OH226352   6.783   0.248   2.189  0.2935 -0.1624  0.6261
 1646TIP3    H126353   6.834   0.168   2.202 -0.7890 -0.7299  1.6126
 1646TIP3    H226354   6.695   0.216   2.168  0.1162  0.7865 -0.1168
 1647TIP3   OH226355   3.454   3.078  11.438  0.1743  0.0188  0.0250
 1647TIP3    H126356   3.387   3.055  11.502 -0.8017 -1.4047 -1.4213
 1647TIP3    H226357   3.410   3.135  11.375  0.6493  0.0559 -0.2837
 1648TIP3   OH226358   6.575   2.093  15.162 -0.3180 -0.3003 -0.1681
 1648TIP3    H126359   6.527   2.157  15.214 -2.4890 -0.2822 -2.0198
 1648TIP3    H226360   6.646   2.064  15.219 -2.1980  0.0885  2.5923
 1649TIP3   OH226361   3.389   3.488  14.660  0.0616 -0.4041  0.3719
 1649TIP3    H126362   3.469   3.452  14.699 -1.2794 -1.9159  1.8931
 1649TIP3    H226363   3.351   3.415  14.611  1.1218  1.1397 -3.1096
 1650TIP3   OH226364   1.351   2.304  13.069 -0.0486 -0.6661  0.0004
 1650TIP3    H126365   1.279   2.338  13.016  0.2621  0.8815  0.5084
 1650TIP3    H226366   1.310   2.241  13.128 -0.7328 -0.8824 -0.6927
 1651TIP3   OH226367   0.250   2.748  16.456  0.1077 -0.1421 -0.1872
 1651TIP3    H126368   0.319   2.716  16.514 -0.2850  1.0172  0.9589
 1651TIP3    H226369   0.279   2.722  16.368  2.1649  0.5810  0.2187
 1652TIP3   OH226370   1.220   5.697  11.743 -0.7670  0.5321  0.3884
 1652TIP3    H126371   1.260   5.645  11.812 -0.3198 -1.3244 -1.1827
 1652TIP3    H226372   1.275   5.775  11.736  1.7726 -1.2155 -0.6527
 1653TIP3   OH226373   4.546   3.270   5.275  0.4734  0.2618  0.1158
 1653TIP3    H126374   4.637   3.267   5.304  0.6424  0.8381 -0.3336
 1653TIP3    H226375   4.547   3.226   5.189  0.1861 -0.4134  0.4504
 1654TIP3   OH226376   6.529   0.047   0.577 -0.3471 -0.6704  0.4289
 1654TIP3    H126377   6.532   0.068   0.484  1.3847  1.2578  0.8310
 1654TIP3    H226378   6.509   0.130   0.620  0.8954 -1.0707  1.8751
 1655TIP3   OH226379   3.737   6.804   4.513 -0.3565  0.0580  0.6734
 1655TIP3    H126380   3.761   6.847   4.430  0.6392 -0.5053  0.6522
 1655TIP3    H226381   3.771   6.863   4.581 -0.8558  0.3399  0.6854
 1656TIP3   OH226382   4.283   0.193   5.591 -0.3975 -0.2416  0.0181
 1656TIP3    H126383   4.331   0.111   5.604 -0.2115 -0.3727 -1.3460
 1656TIP3    H226384   4.337   0.259   5.635 -0.6446 -0.8501  1.2940
 1657TIP3   OH226385   4.111   2.895  12.980 -0.6611  0.1393 -0.6060
 1657TIP3    H126386   4.059   2.940  13.047 -0.7188  1.3639 -1.4356
 1657TIP3    H226387   4.047   2.845  12.929 -0.3425 -3.1080  1.8615
 1658TIP3   OH226388   1.666   6.610  15.065  0.4821  0.8786  0.4887
 1658TIP3    H126389   1.659   6.597  14.971 -1.5279  1.3995  0.5126
 1658TIP3    H226390   1.664   6.705  15.076  0.1347  0.8084  1.0731
 1659TIP3   OH226391   5.219   3.107  16.532  0.1969 -0.4236 -0.4174
 1659TIP3    H126392   5.306   3.077  16.507  0.4334 -1.4146  1.4599
 1659TIP3    H226393   5.171   3.113  16.450  1.8138 -0.5397 -1.4083
 1660TIP3   OH226394   0.366   6.298  14.732 -0.1081  0.3030 -0.3523
 1660TIP3    H126395   0.336   6.209  14.752 -0.4580  0.3729 -0.5576
 1660TIP3    H226396   0.313   6.354  14.789  0.2622  0.3672 -0.0682
 1661TIP3   OH226397   4.692   2.800  16.017  0.1755 -0.5130 -0.2052
 1661TIP3    H126398   4.721   2.775  16.105  0.8748  1.5139  0.1978
 1661TIP3    H226399   4.774   2.816  15.969 -0.2011  0.7722 -0.4543
 1662TIP3   OH226400   0.414   1.045   3.496 -0.5863  0.1409  0.3137
 1662TIP3    H126401   0.437   1.025   3.406 -0.4708 -0.2911  0.4375
 1662TIP3    H226402   0.441   0.968   3.546  2.3877  1.6509  1.2416
 1663TIP3   OH226403   3.274   5.525  10.711 -0.3085 -0.1981 -0.3441
 1663TIP3    H126404   3.243   5.546  10.799  0.7986  0.1344 -0.0242
 1663TIP3    H226405   3.305   5.608  10.676  2.4396 -0.8670  0.2549
 1664TIP3   OH226406   5.151   0.718  16.472  0.4424  0.7486  0.3338
 1664TIP3    H126407   5.180   0.688  16.386  0.2548  2.7743 -0.4867
 1664TIP3    H226408   5.229   0.759  16.511 -0.1300  2.2822 -0.0512
 1665TIP3   OH226409   2.880   1.272  13.138 -0.3883  0.4420 -0.3308
 1665TIP3    H126410   2.822   1.348  13.145 -0.3142  0.5096 -0.4594
 1665TIP3    H226411   2.915   1.261  13.227  1.0850  1.7317 -0.7097
 1666TIP3   OH226412   6.467   0.705   3.660  0.4441 -0.2451  0.1323
 1666TIP3    H126413   6.403   0.725   3.729  1.1521  0.0786  0.7117
 1666TIP3    H226414   6.552   0.709   3.704  0.8588 -0.8583 -0.5852
 1667TIP3   OH226415   3.866   1.140  14.942  0.1042 -0.2605 -0.1847
 1667TIP3    H126416   3.858   1.145  15.037  3.3641  0.5417  0.1763
 1667TIP3    H226417   3.888   1.048  14.925  0.6627 -0.1650 -0.0078
 1668TIP3   OH226418   3.186   2.083   1.216 -0.7704 -0.0296  0.0108
 1668TIP3    H126419   3.247   2.024   1.259 -1.0495 -0.4342 -0.1385
 1668TIP3    H226420   3.130   2.116   1.287 -0.6956 -0.0465  0.0770
 1669TIP3   OH226421   0.154   2.967   3.270 -0.1968 -0.4194 -0.3784
 1669TIP3    H126422   0.173   2.937   3.359 -3.7774 -1.7605  0.1403
 1669TIP3    H226423   0.181   3.059   3.269  1.9635 -0.9642  1.3218
 1670TIP3   OH226424   5.564   2.913   3.738 -0.3959  0.0786  0.0652
 1670TIP3    H126425   5.558   2.819   3.723  0.3109 -0.1681  1.2037
 1670TIP3    H226426   5.553   2.923   3.833  0.6394  1.0295  0.1095
 1671TIP3   OH226427   2.405   4.424   5.497  0.2168  0.1232 -0.2239
 1671TIP3    H126428   2.479   4.364   5.492 -0.2392 -0.3693 -2.0970
 1671TIP3    H226429   2.445   4.511   5.496  0.9961  0.0483  4.3980
 1672TIP3   OH226430   2.196   3.505  13.860 -0.0734 -0.2627 -0.3117
 1672TIP3    H126431   2.148   3.449  13.921  1.9280 -0.6237  1.0447
 1672TIP3    H226432   2.249   3.444  13.809  2.1071  0.2746  1.1589
 1673TIP3   OH226433   0.389   3.459   5.177  0.0484  0.4365  0.3449
 1673TIP3    H126434   0.440   3.409   5.114 -1.0677 -0.2275 -0.0594
 1673TIP3    H226435   0.330   3.395   5.217 -0.0937  1.0728  1.2035
 1674TIP3   OH226436   5.605   2.064  17.001  0.7196  0.7468  0.0131
 1674TIP3    H126437   5.579   2.146  16.960 -0.0718  0.6728  0.3526
 1674TIP3    H226438   5.523   2.015  17.012  1.2218 -0.2841 -0.5961
 1675TIP3   OH226439   4.602   0.109  14.993 -0.0288  0.2106  0.5224
 1675TIP3    H126440   4.562   0.174  15.050 -1.8482  0.7825 -1.2762
 1675TIP3    H226441   4.560   0.027  15.017  0.2479  0.1871  0.9372
 1676TIP3   OH226442   3.967   5.978  14.720 -0.6078  0.3508 -0.1266
 1676TIP3    H126443   3.916   5.966  14.800 -1.0433  0.2863 -0.4069
 1676TIP3    H226444   3.989   5.889  14.692 -0.3684  0.3778 -0.0241
 1677TIP3   OH226445   5.475   0.610   5.986 -0.0182  0.1138  0.2277
 1677TIP3    H126446   5.398   0.665   5.976 -1.3437 -1.4857  1.1210
 1677TIP3    H226447   5.519   0.614   5.901 -2.3883 -0.7816 -1.1475
 1678TIP3   OH226448   5.126   1.583  15.311  0.6249  0.1235  0.5594
 1678TIP3    H126449   5.065   1.528  15.359  2.4146 -2.5083  0.0480
 1678TIP3    H226450   5.145   1.534  15.231  1.8657  1.7865 -0.2192
 1679TIP3   OH226451   2.963   5.262  10.692  0.9352  0.1122  0.1745
 1679TIP3    H126452   2.941   5.336  10.748 -0.0965 -1.6434  2.2549
 1679TIP3    H226453   2.882   5.244  10.643  0.8348 -0.2752  0.4756
 1680TIP3   OH226454   3.684   5.534   3.370 -0.3386 -0.4319  0.1740
 1680TIP3    H126455   3.755   5.567   3.315 -0.2043 -1.7289 -0.4481
 1680TIP3    H226456   3.604   5.552   3.320 -0.6136  1.9075  1.2856
 1681TIP3   OH226457   0.298   5.429  13.793 -0.0323 -0.4381 -0.0346
 1681TIP3    H126458   0.374   5.484  13.811 -0.4055  0.3047 -0.7142
 1681TIP3    H226459   0.223   5.483  13.815 -0.4530 -0.1386 -2.0566
 1682TIP3   OH226460   6.697   4.123  12.945 -0.6492  0.0455  0.4162
 1682TIP3    H126461   6.787   4.103  12.969  0.2032  1.0737 -1.6582
 1682TIP3    H226462   6.699   4.216  12.922 -1.8340 -0.2895 -1.2410
 1683TIP3   OH226463   1.789   0.360   3.892  0.2573 -0.1664  0.5843
 1683TIP3    H126464   1.768   0.411   3.814  0.9597 -1.5793 -0.5971
 1683TIP3    H226465   1.822   0.424   3.955  0.5664  0.9140 -0.6215
 1684TIP3   OH226466   5.359   4.517   2.774  0.1658  0.3862 -0.8249
 1684TIP3    H126467   5.383   4.430   2.807  0.5138  0.5591 -0.6118
 1684TIP3    H226468   5.346   4.569   2.853  0.5482  0.6827 -0.9565
 1685TIP3   OH226469   2.954   6.028  16.129 -0.9286 -0.1622 -0.5545
 1685TIP3    H126470   2.989   6.068  16.050 -0.9963  0.8879 -0.0743
 1685TIP3    H226471   2.864   6.061  16.134 -0.7272  0.2982  0.2797
 1686TIP3   OH226472   4.782   1.652   3.008  0.0810  0.0973  0.3182
 1686TIP3    H126473   4.847   1.721   3.007 -1.5232  1.6825  0.1351
 1686TIP3    H226474   4.754   1.644   2.917  0.2524 -0.8247  0.3328
 1687TIP3   OH226475   2.755   4.541   2.436 -0.4278  0.0854  0.0447
 1687TIP3    H126476   2.682   4.579   2.387  0.0215 -0.1700 -0.8526
 1687TIP3    H226477   2.791   4.613   2.487  1.9760  1.6323 -3.4681
 1688TIP3   OH226478   2.003   4.187   4.281  0.3889 -0.7713  0.3345
 1688TIP3    H126479   1.975   4.277   4.262 -0.1959 -1.0625 -0.2496
 1688TIP3    H226480   2.026   4.188   4.373 -0.0815 -0.1295  0.4537
 1689TIP3   OH226481   1.818   0.222  14.571  0.3150 -0.2432  0.4756
 1689TIP3    H126482   1.824   0.222  14.666  0.8027  0.7396  0.4628
 1689TIP3    H226483   1.887   0.161  14.543  1.5710  1.0051  0.7181
 1690TIP3   OH226484   4.721   3.517  16.771 -0.0147 -0.6410  0.0774
 1690TIP3    H126485   4.672   3.451  16.722 -1.0279 -0.9523  1.4908
 1690TIP3    H226486   4.685   3.601  16.741 -0.0358 -0.7853 -0.3152
 1691TIP3   OH226487   6.816   1.156   1.414 -0.0213  0.1386 -0.0412
 1691TIP3    H126488   6.894   1.107   1.441  1.3775  1.6029 -1.1805
 1691TIP3    H226489   6.760   1.157   1.492  1.1801 -0.7841  0.8833
 1692TIP3   OH226490   4.512   4.587  15.448 -0.0929 -0.4305 -0.6347
 1692TIP3    H126491   4.455   4.647  15.400 -0.2411  1.1889  1.3905
 1692TIP3    H226492   4.568   4.644  15.501  1.1323 -2.0582 -0.0895
 1693TIP3   OH226493   6.259   4.013  13.232 -0.3330  0.2046  0.0746
 1693TIP3    H126494   6.225   4.005  13.142 -0.3902 -1.6427  0.2146
 1693TIP3    H226495   6.347   4.048  13.221 -1.1515  2.1942 -0.5101
 1694TIP3   OH226496   5.059   5.318  13.999  0.8462  0.4432  0.2122
 1694TIP3    H126497   5.022   5.405  13.991 -0.3470 -0.0671 -0.0832
 1694TIP3    H226498   5.038   5.274  13.917  1.4033 -0.1326  0.3631
 1695TIP3   OH226499   1.568   2.968   1.404 -0.4513 -0.2921  0.1069
 1695TIP3    H126500   1.481   3.000   1.381 -0.0675 -0.6293 -2.0843
 1695TIP3    H226501   1.613   2.959   1.320  2.1404  1.0635  1.2399
 1696TIP3   OH226502   1.516   2.315  15.143 -0.1594  0.3394  0.5649
 1696TIP3    H126503   1.453   2.325  15.072  0.6770  0.3761 -0.1808
 1696TIP3    H226504   1.505   2.394  15.196 -0.6866  0.3745  0.4127
 1697TIP3   OH226505   2.887   6.254  13.468  0.1895 -0.4410 -0.2029
 1697TIP3    H126506   2.930   6.230  13.550  0.8327  0.6203 -0.2028
 1697TIP3    H226507   2.909   6.183  13.408 -0.0565 -1.0877  0.4577
 1698TIP3   OH226508   2.979   3.207   1.301 -0.0420 -0.0324  0.1682
 1698TIP3    H126509   3.033   3.209   1.380 -1.8638 -0.3419  1.4855
 1698TIP3    H226510   3.005   3.126   1.256 -0.4517 -0.9931  1.5838
 1699TIP3   OH226511   0.019   4.930   4.454  0.1810 -0.0830 -0.4774
 1699TIP3    H126512   0.066   4.853   4.486  0.5681  0.2555 -0.2138
 1699TIP3    H226513  -0.040   4.954   4.526 -0.4376 -0.5353 -0.8259
 1700TIP3   OH226514   4.392   0.171  11.659  0.0678 -0.4044 -0.4840
 1700TIP3    H126515   4.430   0.174  11.571  3.5149  0.2303  0.8475
 1700TIP3    H226516   4.358   0.259  11.674  1.4304  0.1533 -0.4881
 1701TIP3   OH226517   3.259   5.521   1.468  0.3841 -0.5294 -0.1832
 1701TIP3    H126518   3.327   5.460   1.442 -1.0272 -2.9771  1.4611
 1701TIP3    H226519   3.260   5.519   1.564 -2.6577 -1.5832 -0.0546
 1702TIP3   OH226520   1.736   6.258   2.492  0.1439 -0.6388  0.6682
 1702TIP3    H126521   1.695   6.268   2.578 -0.3788  0.2270  0.3271
 1702TIP3    H226522   1.821   6.218   2.511 -0.3410 -1.3214  1.4911
 1703TIP3   OH226523   5.970   4.695  16.675  0.1124 -0.2528 -0.4777
 1703TIP3    H126524   5.984   4.673  16.767  0.5711 -2.9485 -1.1275
 1703TIP3    H226525   5.997   4.787  16.668 -2.2239  0.8528  2.5310
 1704TIP3   OH226526   6.797   0.024  11.910  0.0892 -0.3449  0.0928
 1704TIP3    H126527   6.742  -0.055  11.912  0.6402 -0.7415  2.1392
 1704TIP3    H226528   6.885  -0.009  11.926  0.4247  0.6323  0.2576
 1705TIP3   OH226529   4.398   3.971  12.595 -0.9277 -0.6445 -0.1128
 1705TIP3    H126530   4.433   3.975  12.506 -1.4295  3.5698 -0.3202
 1705TIP3    H226531   4.316   3.922  12.587 -0.1436 -1.8078 -1.5581
 1706TIP3   OH226532   5.913   5.715   1.248 -0.1601  0.8665 -0.2836
 1706TIP3    H126533   5.923   5.763   1.330 -0.2378  3.1423 -1.5174
 1706TIP3    H226534   5.821   5.728   1.224 -0.3485 -0.4623 -0.3652
 1707TIP3   OH226535   4.150   5.562   6.128 -0.3661  0.4376 -0.5137
 1707TIP3    H126536   4.126   5.633   6.187  0.3955  0.2069  0.0807
 1707TIP3    H226537   4.245   5.556   6.134 -0.2756  0.3545 -1.7127
 1708TIP3   OH226538   2.932   6.007   4.142  0.4404  0.0583 -0.6377
 1708TIP3    H126539   2.976   6.003   4.227 -0.7638  0.0867  0.0129
 1708TIP3    H226540   2.849   5.962   4.156 -0.2717  1.0628 -1.4897
 1709TIP3   OH226541   0.532   2.743   2.408  0.5980 -0.4647  0.1788
 1709TIP3    H126542   0.470   2.800   2.454  0.8173  1.2864 -1.5541
 1709TIP3    H226543   0.510   2.654   2.438 -0.8981  0.3545  1.6811
 1710TIP3   OH226544   4.816   5.546  15.602 -0.0130  0.3467  0.3029
 1710TIP3    H126545   4.889   5.486  15.586 -1.0570 -1.1104  0.8627
 1710TIP3    H226546   4.789   5.573  15.515 -1.7189 -2.7367 -0.2517
 1711TIP3   OH226547   3.269   6.760   0.383 -0.2361 -0.5116  0.3039
 1711TIP3    H126548   3.359   6.793   0.384  0.4113 -2.1972  0.7665
 1711TIP3    H226549   3.227   6.803   0.458  0.2037  0.1878  0.1610
 1712TIP3   OH226550   1.973   3.086  10.138 -0.3197  0.1384  0.1074
 1712TIP3    H126551   1.934   3.164  10.099 -0.1925 -0.3727 -1.0712
 1712TIP3    H226552   2.065   3.108  10.151  0.2812 -0.5717 -2.4295
 1713TIP3   OH226553   4.399   4.793  15.317  0.6765 -0.0283  0.2598
 1713TIP3    H126554   4.313   4.757  15.295  0.7930 -0.3877  0.3808
 1713TIP3    H226555   4.404   4.875  15.268  0.1216  0.1720  0.5316
 1714TIP3   OH226556   3.198   5.269  12.288  0.1045 -0.6732  0.4481
 1714TIP3    H126557   3.225   5.360  12.294 -1.8228 -0.0381  0.0587
 1714TIP3    H226558   3.216   5.233  12.375  0.3472  0.2266  0.7846
 1715TIP3   OH226559   2.710   5.582  10.913  0.3495  0.1755  0.0798
 1715TIP3    H126560   2.633   5.608  10.862  0.9268 -1.7893 -1.9323
 1715TIP3    H226561   2.676   5.524  10.981 -0.0603  0.2026 -0.0996
 1716TIP3   OH226562   1.255   3.912  12.094 -0.0234 -0.0010  0.0911
 1716TIP3    H126563   1.181   3.959  12.056  1.1770  1.6905 -0.2596
 1716TIP3    H226564   1.267   3.837  12.036 -0.6263  0.4466 -0.6392
 1717TIP3   OH226565   3.910   4.132  15.788 -0.0877  0.5760 -0.3370
 1717TIP3    H126566   3.876   4.062  15.733 -0.1847  1.0166 -0.8425
 1717TIP3    H226567   4.005   4.124  15.782 -0.0897 -0.0603  0.3159
 1718TIP3   OH226568   6.210   2.119   2.134 -0.0967  0.5895  0.2605
 1718TIP3    H126569   6.136   2.134   2.193 -0.3361  0.4114  0.0061
 1718TIP3    H226570   6.287   2.143   2.186 -0.4500  2.9387 -0.1817
 1719TIP3   OH226571   0.991   5.268   3.578 -0.3164 -0.0702  0.5945
 1719TIP3    H126572   1.072   5.279   3.628  0.7823  0.5369 -1.2185
 1719TIP3    H226573   0.962   5.357   3.560  0.2945 -0.2269 -1.3197
 1720TIP3   OH226574   3.746   6.397  15.869 -0.0734  0.7018  0.0779
 1720TIP3    H126575   3.719   6.459  15.938 -0.0384  1.3623 -0.4941
 1720TIP3    H226576   3.795   6.329  15.916  1.3416  1.9786  0.5068
 1721TIP3   OH226577   2.135   3.740   4.289  0.3647  0.2386 -0.2677
 1721TIP3    H126578   2.185   3.779   4.361  1.7452 -1.6373 -0.1252
 1721TIP3    H226579   2.100   3.659   4.326 -0.6722  0.2790 -1.1253
 1722TIP3   OH226580   1.728   3.178  14.983 -0.4464 -0.3215  0.0755
 1722TIP3    H126581   1.663   3.214  14.923 -0.1539  3.0131  1.5115
 1722TIP3    H226582   1.812   3.205  14.946 -0.0956 -0.8430  0.4734
 1723TIP3   OH226583   1.949   6.709  10.646  0.2447 -0.0135 -0.0508
 1723TIP3    H126584   1.987   6.628  10.612  1.8181  0.3095  0.8415
 1723TIP3    H226585   2.007   6.779  10.614 -1.0504  0.7767 -0.7627
 1724TIP3   OH226586   5.125   2.689   1.295 -0.3245 -0.5308  0.3154
 1724TIP3    H126587   5.149   2.769   1.342 -0.4866  0.0819 -0.6179
 1724TIP3    H226588   5.129   2.620   1.361 -0.3701  0.2784  1.1819
 1725TIP3   OH226589   0.079   5.067  14.280  0.1398  0.2015  0.7728
 1725TIP3    H126590   0.156   5.122  14.290  0.3253 -0.0782  0.8992
 1725TIP3    H226591   0.112   4.977  14.289 -0.1781  0.0751  0.7035
 1726TIP3   OH226592   5.699   6.558  16.781  0.2641  0.0387 -0.2356
 1726TIP3    H126593   5.617   6.524  16.744  0.3691  0.1534 -0.5822
 1726TIP3    H226594   5.699   6.650  16.755  1.1199 -0.2609 -1.3476
 1727TIP3   OH226595   4.218   5.615  13.515  0.6933 -0.5997 -0.1411
 1727TIP3    H126596   4.279   5.684  13.489  0.5070  0.0564  1.0656
 1727TIP3    H226597   4.141   5.628  13.459  0.4342  0.5517  0.4476
 1728TIP3   OH226598   2.333   6.224  11.942 -0.1664  0.5064 -0.3617
 1728TIP3    H126599   2.284   6.251  12.020  0.7454  0.1396  0.3491
 1728TIP3    H226600   2.285   6.148  11.909 -2.4475  2.5227 -2.0673
 1729TIP3   OH226601   1.824   6.786  14.247 -0.7719  0.5317  0.3331
 1729TIP3    H126602   1.808   6.787  14.152 -0.9262  0.1477  0.3528
 1729TIP3    H226603   1.739   6.766  14.285 -0.4438 -0.6489  0.4831
 1730TIP3   OH226604   4.407   2.953  16.995  0.9037  0.1717  0.4315
 1730TIP3    H126605   4.329   2.977  17.045  1.9025  0.5227  1.8663
 1730TIP3    H226606   4.455   3.035  16.983  1.8824 -0.2937  1.0304
 1731TIP3   OH226607   5.771   3.557  15.920  0.0400 -0.7950 -0.3301
 1731TIP3    H126608   5.689   3.584  15.878 -0.7024 -1.5437  0.5665
 1731TIP3    H226609   5.838   3.613  15.881 -1.0043  0.3512 -0.5596
 1732TIP3   OH226610   2.106   0.771  15.940  0.4000  0.9232  0.6799
 1732TIP3    H126611   2.123   0.740  15.851 -0.0152  1.5947  0.3584
 1732TIP3    H226612   2.093   0.691  15.991 -0.0289  0.5456 -0.0010
 1733TIP3   OH226613   4.573   5.192   0.993  0.2257 -0.3489 -0.5088
 1733TIP3    H126614   4.567   5.257   1.062 -0.3052  0.5063 -1.3470
 1733TIP3    H226615   4.592   5.110   1.039  0.1703  0.2554  0.6142
 1734TIP3   OH226616   1.631   2.583   2.576 -0.0970  0.9333 -0.0812
 1734TIP3    H126617   1.593   2.671   2.574 -0.5006  0.7549 -0.3537
 1734TIP3    H226618   1.583   2.538   2.646 -0.3994  0.7028 -0.4362
 1735TIP3   OH226619   3.836   0.810   5.729  1.1041 -0.0516  0.2471
 1735TIP3    H126620   3.905   0.745   5.718  1.7106  0.5488  0.4272
 1735TIP3    H226621   3.872   0.874   5.790  0.1302 -0.0703  0.8768
 1736TIP3   OH226622   3.934   1.758   4.907  0.4346  0.3830 -0.0044
 1736TIP3    H126623   4.023   1.758   4.871  0.9335  0.4291  1.1999
 1736TIP3    H226624   3.920   1.848   4.936 -0.0573  0.4016 -0.2898
 1737TIP3   OH226625   5.622   2.192  11.468 -0.2124  0.5612 -0.1457
 1737TIP3    H126626   5.542   2.181  11.520  0.1796  1.3898  0.6604
 1737TIP3    H226627   5.591   2.196  11.378 -1.1861  1.6974  0.2087
 1738TIP3   OH226628   5.032   2.479   6.378  0.2251 -0.0070 -0.4707
 1738TIP3    H126629   4.999   2.438   6.458 -1.5611  0.5165 -0.8768
 1738TIP3    H226630   4.997   2.425   6.307 -2.8703  2.4740 -1.0530
 1739TIP3   OH226631   6.384   4.279  12.629 -0.3214  0.3055 -0.3174
 1739TIP3    H126632   6.367   4.361  12.584 -0.2558  0.5819  0.1544
 1739TIP3    H226633   6.392   4.303  12.721  0.5818 -0.1024 -0.2791
 1740TIP3   OH226634   6.778   1.285   1.712 -0.1986 -0.2943  0.5251
 1740TIP3    H126635   6.845   1.328   1.660 -1.6568 -1.3301 -2.4530
 1740TIP3    H226636   6.823   1.255   1.791  1.9903  1.9806  0.2479
 1741TIP3   OH226637   2.347   0.089  14.584  0.5482  0.1282  0.3926
 1741TIP3    H126638   2.358   0.078  14.490  1.8765  0.3199  0.5051
 1741TIP3    H226639   2.427   0.132  14.613 -0.5758  1.6984  1.3586
 1742TIP3   OH226640   1.006   2.315  11.617  0.0090  0.5056  1.1158
 1742TIP3    H126641   0.955   2.298  11.537  0.5609 -2.1617  1.2205
 1742TIP3    H226642   0.940   2.334  11.684 -0.5683  0.9982  0.4240
 1743TIP3   OH226643   1.773   2.721   1.849 -0.1079 -0.1766 -0.2147
 1743TIP3    H126644   1.819   2.784   1.905  1.5790 -2.0633  0.6605
 1743TIP3    H226645   1.764   2.643   1.903  1.2071 -1.9558 -2.3620
 1744TIP3   OH226646   4.474   2.513  11.135 -0.3826  0.3011  0.0443
 1744TIP3    H126647   4.560   2.546  11.110 -0.6551  0.4533 -0.7041
 1744TIP3    H226648   4.413   2.560  11.079 -0.8575 -0.7064 -0.2981
 1745TIP3   OH226649   1.328   3.220   0.501  0.1504  0.3851  0.0683
 1745TIP3    H126650   1.374   3.183   0.576 -0.6442  1.0609  0.8992
 1745TIP3    H226651   1.267   3.283   0.538 -0.2961  0.6936 -1.1418
 1746TIP3   OH226652   1.868   4.957   5.114 -0.2781  0.2414  0.1327
 1746TIP3    H126653   1.796   4.894   5.117 -0.5678  0.5414 -0.3540
 1746TIP3    H226654   1.941   4.909   5.075  0.9661 -1.1896  3.7607
 1747TIP3   OH226655   6.491   3.092  11.871  0.1714 -0.0632 -0.1695
 1747TIP3    H126656   6.473   3.043  11.951  0.4577 -0.0935 -0.1230
 1747TIP3    H226657   6.529   3.028  11.811 -1.3077 -0.3603 -0.8232
 1748TIP3   OH226658   4.697   5.337  14.086  0.3989  0.1502  0.3394
 1748TIP3    H126659   4.776   5.391  14.099 -0.6197  1.7245  0.3012
 1748TIP3    H226660   4.675   5.350  13.994  0.2582 -0.5196  0.2802
 1749TIP3   OH226661   2.194   3.205   0.244 -0.6778 -0.0102  0.5203
 1749TIP3    H126662   2.179   3.149   0.320 -0.7271 -0.1270  0.4236
 1749TIP3    H226663   2.286   3.189   0.221 -0.6982 -0.0656  0.4796
 1750TIP3   OH226664   3.561   3.919   0.666  0.1816  0.4295  0.3104
 1750TIP3    H126665   3.567   3.952   0.755  0.1907  0.2952  0.3596
 1750TIP3    H226666   3.608   3.835   0.668  0.4238  0.5601  0.1164
 1751TIP3   OH226667   4.149   4.418  13.386 -0.2579 -0.5503 -0.3518
 1751TIP3    H126668   4.221   4.474  13.415 -0.3265 -1.1384  1.0390
 1751TIP3    H226669   4.180   4.329  13.401 -0.4891 -0.8731 -1.7027
 1752TIP3   OH226670   1.245   5.010   2.635  0.1436  0.0802  0.0677
 1752TIP3    H126671   1.162   4.970   2.661 -0.0304  1.1608  1.2462
 1752TIP3    H226672   1.286   5.036   2.717  0.4014  2.0194 -0.6343
 1753TIP3   OH226673   1.435   6.804   5.260  0.0854  0.0220 -0.7974
 1753TIP3    H126674   1.511   6.765   5.216  1.0060 -0.2257  0.9403
 1753TIP3    H226675   1.431   6.893   5.227  0.0236 -0.4915 -2.2521
 1754TIP3   OH226676   3.710   2.877   0.769  0.1514 -0.7384 -0.6478
 1754TIP3    H126677   3.791   2.833   0.742  1.4581  0.7984  0.5447
 1754TIP3    H226678   3.662   2.891   0.688 -0.6649 -4.7366 -1.0988
 1755TIP3   OH226679   2.431   0.835   0.450 -0.1990 -0.2353  0.1303
 1755TIP3    H126680   2.445   0.928   0.428  1.0017 -0.4887 -0.2985
 1755TIP3    H226681   2.512   0.810   0.496 -0.5603 -1.0443  0.3320
 1756TIP3   OH226682   3.193   1.994  16.038 -0.5813  0.0126 -0.3082
 1756TIP3    H126683   3.222   2.053  16.107 -0.9726 -0.2033  0.0447
 1756TIP3    H226684   3.273   1.951  16.008 -0.4584 -0.1670  0.2648
 1757TIP3   OH226685   4.001   2.313  12.716 -0.9340  0.4345  0.0287
 1757TIP3    H126686   4.070   2.317  12.650  1.0501 -2.1594  1.7651
 1757TIP3    H226687   3.949   2.236  12.691 -0.8079  0.0663  0.8819
 1758TIP3   OH226688   5.543   2.969  11.454  0.6950  0.1176  0.4255
 1758TIP3    H126689   5.551   2.941  11.545 -0.2820 -2.3095 -0.1718
 1758TIP3    H226690   5.451   2.993  11.445  0.7265  0.0731 -0.0011
 1759TIP3   OH226691   6.638   2.509  12.353 -0.1012 -0.0821 -0.2439
 1759TIP3    H126692   6.669   2.594  12.384 -0.7310  0.7078 -1.7007
 1759TIP3    H226693   6.546   2.506  12.380 -0.4168  0.2436 -1.2581
 1760TIP3   OH226694   2.875   5.668   0.931 -0.1483 -0.2903  0.2026
 1760TIP3    H126695   2.831   5.626   0.857  1.2716 -3.0999  0.8160
 1760TIP3    H226696   2.805   5.684   0.994 -0.7903 -1.8232 -0.0644
 1761TIP3   OH226697   1.528   0.805  16.458  0.8079  0.2311 -1.0524
 1761TIP3    H126698   1.440   0.830  16.431  0.1212 -0.8836  0.0786
 1761TIP3    H226699   1.547   0.726  16.408  0.0120 -1.1483  0.7471
 1762TIP3   OH226700   4.880   1.585   5.772 -0.2260  0.5420 -0.8169
 1762TIP3    H126701   4.791   1.573   5.806  0.5003  0.6325  1.1906
 1762TIP3    H226702   4.870   1.654   5.706 -1.6865  0.3028 -0.8907
 1763TIP3   OH226703   0.679   2.412   5.621  0.3896  0.3926 -0.9592
 1763TIP3    H126704   0.643   2.334   5.579  1.0153 -0.0368 -0.7139
 1763TIP3    H226705   0.695   2.473   5.549  1.0131 -0.1603 -1.2911
 1764TIP3   OH226706   1.641   0.176   4.645 -0.4393  0.0606 -0.2403
 1764TIP3    H126707   1.632   0.092   4.600 -0.3614 -0.3107  0.4343
 1764TIP3    H226708   1.572   0.176   4.711 -0.5789  0.6255 -0.3728
 1765TIP3   OH226709   0.224   4.901   0.733 -0.8795 -0.4041  0.1963
 1765TIP3    H126710   0.183   4.843   0.668  0.1492 -0.6624 -0.2523
 1765TIP3    H226711   0.315   4.907   0.704 -0.2405 -1.0193  1.9496
 1766TIP3   OH226712   1.672   3.901   5.186 -0.0553 -0.2354  0.3490
 1766TIP3    H126713   1.765   3.926   5.183 -0.0767  0.3627  2.5608
 1766TIP3    H226714   1.625   3.985   5.192 -0.9018 -0.4486 -2.1155
 1767TIP3   OH226715   3.741   5.989  14.503 -0.3538 -0.0467  0.1265
 1767TIP3    H126716   3.692   5.983  14.421  0.3164  1.3285 -0.4063
 1767TIP3    H226717   3.717   5.910  14.551 -0.1818 -1.2755 -1.7070
 1768TIP3   OH226718   4.354   4.912   3.207  0.0548 -0.0364  0.0306
 1768TIP3    H126719   4.381   5.002   3.189  2.1938 -0.7806 -0.7429
 1768TIP3    H226720   4.424   4.857   3.171 -1.8462 -2.0977 -0.8279
 1769TIP3   OH226721   2.113   5.227   5.999  0.0680  0.0222 -0.2876
 1769TIP3    H126722   2.052   5.287   5.957  0.4785  0.9017  0.3363
 1769TIP3    H226723   2.085   5.224   6.090 -0.4458 -1.3969 -0.4595
 1770TIP3   OH226724   4.244   6.169   5.461 -0.3673  0.0494 -0.1359
 1770TIP3    H126725   4.322   6.113   5.462  0.2436  0.8911  0.5909
 1770TIP3    H226726   4.173   6.111   5.490  0.2624 -0.3615  0.6342
 1771TIP3   OH226727   4.373   2.122  13.208 -0.4164  0.0421  0.3148
 1771TIP3    H126728   4.401   2.059  13.142 -0.0315  1.8751 -1.3536
 1771TIP3    H226729   4.281   2.140  13.186 -0.7597 -0.4599  1.2559
 1772TIP3   OH226730   4.730   3.585  14.073  0.1501  0.0677 -0.1814
 1772TIP3    H126731   4.781   3.666  14.065 -0.9041  0.9567  1.3709
 1772TIP3    H226732   4.779   3.532  14.136 -0.3964  0.6126  0.7434
 1773TIP3   OH226733   0.843   1.526  15.519  0.5600 -0.1702 -0.2303
 1773TIP3    H126734   0.824   1.451  15.575  0.2610  0.4345  0.5036
 1773TIP3    H226735   0.808   1.501  15.433 -1.1011 -0.2026  0.4168
 1774TIP3   OH226736   3.111   6.112   3.276  0.1360 -0.0876 -0.7270
 1774TIP3    H126737   3.171   6.101   3.202 -2.8832  1.3318 -3.6640
 1774TIP3    H226738   3.113   6.206   3.294 -0.5412 -0.1463 -0.3213
 1775TIP3   OH226739   3.520   0.332  15.530  0.0025  0.4214  0.5501
 1775TIP3    H126740   3.532   0.425  15.550 -0.3820  0.7400 -0.6245
 1775TIP3    H226741   3.506   0.329  15.435 -1.8683 -0.6198  0.7975
 1776TIP3   OH226742   6.546   1.184  11.420  0.7505  0.4069 -0.3970
 1776TIP3    H126743   6.588   1.200  11.504 -1.2700 -0.0094  0.7556
 1776TIP3    H226744   6.584   1.102  11.389  0.4226 -0.2471  0.8717
 1777TIP3   OH226745   4.255   0.585  14.014 -0.2437  0.5560  0.2947
 1777TIP3    H126746   4.320   0.550  13.954  0.1337  1.6071  0.0740
 1777TIP3    H226747   4.291   0.669  14.043 -1.2575  0.9101  0.5790
 1778TIP3   OH226748   1.547   4.952   1.846  0.2976 -0.3827 -0.0370
 1778TIP3    H126749   1.612   4.882   1.848 -0.8111 -1.4437  0.6117
 1778TIP3    H226750   1.464   4.908   1.866 -0.5544  0.9957 -0.3884
 1779TIP3   OH226751   2.371   6.126  15.245  0.8848 -0.4203  0.3485
 1779TIP3    H126752   2.288   6.145  15.289  0.7120 -0.1023 -0.1120
 1779TIP3    H226753   2.381   6.031  15.252  0.9678 -0.3594  1.2639
 1780TIP3   OH226754   2.211   3.651  15.041 -0.0683  0.1498  0.6550
 1780TIP3    H126755   2.256   3.706  15.105  2.5101 -0.7684 -0.2129
 1780TIP3    H226756   2.225   3.695  14.958 -0.3588 -0.4315  0.2941
 1781TIP3   OH226757   1.721   0.252  14.832  0.1152 -0.4820 -1.0070
 1781TIP3    H126758   1.653   0.188  14.855 -0.4257  1.1357  2.6268
 1781TIP3    H226759   1.672   0.328  14.799  0.0285  0.4922  1.1396
 1782TIP3   OH226760   5.398   0.389   1.956  0.5608 -0.3691 -0.1146
 1782TIP3    H126761   5.433   0.350   2.036  0.3481 -0.2343  0.0484
 1782TIP3    H226762   5.458   0.461   1.936 -0.0245  0.3329  0.5849
 1783TIP3   OH226763   2.632   6.078  13.736  0.0412 -0.6601  0.4289
 1783TIP3    H126764   2.543   6.103  13.714  0.5488 -0.5802 -1.7667
 1783TIP3    H226765   2.681   6.160  13.735  0.3196 -0.8231  0.5981
 1784TIP3   OH226766   0.977   2.860  16.450  0.0417 -0.1143 -0.6999
 1784TIP3    H126767   0.890   2.885  16.417 -0.0864 -1.8002 -1.7894
 1784TIP3    H226768   0.999   2.781  16.400  1.3280 -0.8807  0.9926
 1785TIP3   OH226769   5.236   2.681   0.583  0.1688 -0.3036 -0.0481
 1785TIP3    H126770   5.269   2.611   0.638 -1.7938 -0.3736  1.1146
 1785TIP3    H226771   5.148   2.699   0.616  0.2451  2.0638 -0.9041
 1786TIP3   OH226772   0.184   0.330  16.149  0.4509 -0.7721 -0.8043
 1786TIP3    H126773   0.130   0.405  16.173  0.8772 -1.0968  1.3882
 1786TIP3    H226774   0.198   0.339  16.054 -1.1693  0.7765 -0.9456
 1787TIP3   OH226775   2.548   5.582  14.492 -0.2718 -0.2659 -0.5188
 1787TIP3    H126776   2.477   5.614  14.547 -0.5485 -0.5508 -0.7064
 1787TIP3    H226777   2.508   5.515  14.437  0.3220 -1.0008 -0.0712
 1788TIP3   OH226778   6.221   3.418  11.552 -0.3098 -0.0866 -0.3213
 1788TIP3    H126779   6.185   3.444  11.637 -0.3508 -0.9743 -0.0535
 1788TIP3    H226780   6.262   3.497  11.518  0.0228  0.1936  0.6869
 1789TIP3   OH226781   3.068   2.682  15.118  0.6981  0.3670  0.3254
 1789TIP3    H126782   3.134   2.746  15.089  0.1035  0.5466 -0.6755
 1789TIP3    H226783   3.058   2.699  15.211 -0.0663  2.3243 -0.0706
 1790TIP3   OH226784   0.893   0.960   3.052  0.0397  0.1759 -0.1298
 1790TIP3    H126785   0.798   0.949   3.054  0.1789 -1.1359  0.4026
 1790TIP3    H226786   0.911   1.024   3.121 -0.2765 -1.3930  1.4879
 1791TIP3   OH226787   0.433   3.172  15.876 -0.1711 -0.2345  0.1012
 1791TIP3    H126788   0.481   3.254  15.891  2.5920 -1.4468 -1.3210
 1791TIP3    H226789   0.360   3.197  15.820  1.2460  1.1315 -1.2297
 1792TIP3   OH226790   3.386   2.932  13.495 -0.4360  0.5030  0.0853
 1792TIP3    H126791   3.439   3.005  13.527  1.8562 -0.7815 -0.4940
 1792TIP3    H226792   3.450   2.863  13.475 -2.3807 -1.2620 -0.4840
 1793TIP3   OH226793   4.791   6.052   5.368 -0.5272  0.8772  0.6428
 1793TIP3    H126794   4.861   6.116   5.354  0.6556 -0.5517 -0.2416
 1793TIP3    H226795   4.749   6.044   5.282  0.3514 -0.6399  0.3194
 1794TIP3   OH226796   6.347   5.553  14.145  0.3633 -0.5305  0.5164
 1794TIP3    H126797   6.336   5.487  14.076  0.7816 -0.9852  0.8754
 1794TIP3    H226798   6.365   5.635  14.098  0.8288 -0.8727  0.0878
 1795TIP3   OH226799   6.609   3.694   0.731 -0.0142 -0.2381 -0.2285
 1795TIP3    H126800   6.579   3.750   0.803  1.2149 -1.8718  1.6751
 1795TIP3    H226801   6.533   3.640   0.710 -0.8071  1.1883 -1.1828
 1796TIP3   OH226802   4.248   6.535  13.524 -0.1561 -0.1691  0.4529
 1796TIP3    H126803   4.248   6.534  13.619  1.5150 -1.7862  0.4881
 1796TIP3    H226804   4.305   6.609  13.500 -0.7869  0.3974  0.6912
 1797TIP3   OH226805   2.363   0.511   3.100  0.4124 -0.1963 -0.4520
 1797TIP3    H126806   2.355   0.602   3.131  1.0416  0.1598 -1.3064
 1797TIP3    H226807   2.313   0.460   3.164  1.5959  0.5230  1.1005
 1798TIP3   OH226808   2.237   2.642   6.503  0.3562 -0.3270  0.1613
 1798TIP3    H126809   2.218   2.549   6.517 -2.4852  0.3239  1.1513
 1798TIP3    H226810   2.184   2.667   6.428  1.6301  0.3933 -0.5462
 1799TIP3   OH226811   5.644   6.720   3.981 -0.2312  0.3800 -0.5196
 1799TIP3    H126812   5.731   6.758   3.985 -0.8756  2.1759 -2.1756
 1799TIP3    H226813   5.624   6.714   3.887 -2.1193  0.6398 -0.1813
 1800TIP3   OH226814   6.027   3.996   4.326 -0.0328 -0.4520 -0.1909
 1800TIP3    H126815   5.950   3.978   4.272 -0.7249  1.8427 -0.1065
 1800TIP3    H226816   6.009   4.082   4.364  2.3843 -0.0525  0.1887
 1801TIP3   OH226817   2.042   4.799   5.443  0.2296  0.0525 -0.5331
 1801TIP3    H126818   2.066   4.791   5.536  1.0858  0.3465 -0.7241
 1801TIP3    H226819   2.125   4.810   5.398 -0.1870 -0.0726 -1.3429
 1802TIP3   OH226820   2.606   2.940   0.745  0.5848  0.4137  0.2142
 1802TIP3    H126821   2.533   2.918   0.803  0.0582  2.9023  0.6201
 1802TIP3    H226822   2.566   2.963   0.662  1.0094  0.5236  0.0356
 1803TIP3   OH226823   6.492   1.052   0.043 -0.2670 -0.2003  0.3814
 1803TIP3    H126824   6.453   0.972   0.006  1.3590 -1.0694  0.4498
 1803TIP3    H226825   6.507   1.108  -0.033 -0.6143 -0.3270  0.2181
 1804TIP3   OH226826   6.616   4.457  14.975 -0.0384  0.1122  0.3065
 1804TIP3    H126827   6.635   4.492  14.888  0.5592  1.3423  0.9026
 1804TIP3    H226828   6.534   4.409  14.964 -0.3218  0.8090 -0.7995
 1805TIP3   OH226829   1.760   5.342   5.565 -0.1766  0.3211 -0.2247
 1805TIP3    H126830   1.699   5.310   5.499 -0.3045 -0.6800  0.3505
 1805TIP3    H226831   1.824   5.393   5.517 -1.3013  1.1638 -0.8804
 1806TIP3   OH226832   1.748   3.976   3.716  0.0747  0.9061 -0.0178
 1806TIP3    H126833   1.710   3.960   3.803  0.2611 -1.1558 -0.2638
 1806TIP3    H226834   1.775   3.889   3.685 -0.8510  1.4106 -2.5381
 1807TIP3   OH226835   2.958   1.121   3.082  0.2098 -0.0241 -0.0737
 1807TIP3    H126836   3.010   1.149   3.157  0.5764 -1.6220  0.2940
 1807TIP3    H226837   3.023   1.093   3.017 -0.0339 -3.9146  1.1021
 1808TIP3   OH226838   2.973   0.979   0.465 -0.4761 -0.1303  0.1036
 1808TIP3    H126839   2.965   0.898   0.416  2.0680  0.7043 -1.9048
 1808TIP3    H226840   3.060   0.975   0.504 -0.6210  1.3055  0.6356
 1809TIP3   OH226841   2.362   6.669   4.010 -0.0658  0.0174  0.5635
 1809TIP3    H126842   2.454   6.673   4.035  0.2395 -1.7557 -0.1322
 1809TIP3    H226843   2.363   6.645   3.917 -1.2086 -2.2818  1.0791
 1810TIP3   OH226844   0.212   4.825   0.052  0.4558 -0.0104 -0.8141
 1810TIP3    H126845   0.127   4.855   0.020 -0.5844 -1.3580  0.5443
 1810TIP3    H226846   0.226   4.741   0.008  0.3368 -0.5368  0.1359
 1811TIP3   OH226847   2.582   6.329   2.922  0.5071 -0.1719  0.4031
 1811TIP3    H126848   2.568   6.319   2.828  0.9154  2.8392 -0.0924
 1811TIP3    H226849   2.672   6.301   2.936  0.4637 -0.5912 -0.1221
 1812TIP3   OH226850   4.890   2.892   3.923  0.2865 -0.1960 -0.6526
 1812TIP3    H126851   4.984   2.901   3.937  0.0067  0.5434  0.8841
 1812TIP3    H226852   4.857   2.981   3.914 -0.8254 -0.0705  3.0936
 1813TIP3   OH226853   3.143   2.742  15.809  0.5312 -0.0643 -0.2323
 1813TIP3    H126854   3.062   2.749  15.859 -0.9620 -0.3230 -2.4570
 1813TIP3    H226855   3.172   2.652  15.824  0.4039  0.0196  0.5678
 1814TIP3   OH226856   0.725   5.978  12.846  0.1451 -0.4595 -0.5760
 1814TIP3    H126857   0.723   5.892  12.805  0.7862  0.5541 -2.8675
 1814TIP3    H226858   0.802   5.975  12.904 -1.3840 -2.2638  1.5216
 1815TIP3   OH226859   2.026   4.927  12.470 -0.1773 -0.0190 -0.5679
 1815TIP3    H126860   2.082   4.982  12.525 -0.8645  0.7836 -0.6508
 1815TIP3    H226861   1.963   4.988  12.431 -2.6497 -1.1585  1.3723
 1816TIP3   OH226862   2.149   3.640   3.466 -0.2109  0.0101  0.1242
 1816TIP3    H126863   2.083   3.646   3.397 -0.0193  0.2230 -0.0411
 1816TIP3    H226864   2.230   3.618   3.420  0.1811  1.3792  0.1314
 1817TIP3   OH226865   1.881   4.169  13.911  0.9158 -0.1953  0.1028
 1817TIP3    H126866   1.823   4.188  13.985  1.4720  0.3569  0.4062
 1817TIP3    H226867   1.825   4.126  13.847  0.5277 -1.0914  1.0258
 1818TIP3   OH226868   2.858   1.183  16.021  0.0545  0.6212  0.4603
 1818TIP3    H126869   2.875   1.191  15.927 -0.3017 -0.8437  0.2501
 1818TIP3    H226870   2.859   1.089  16.038 -3.9422  0.5164  1.1090
 1819TIP3   OH226871   4.328   6.536  16.292 -0.0671 -0.3260  0.6623
 1819TIP3    H126872   4.348   6.618  16.247  0.9071 -1.3109 -0.8161
 1819TIP3    H226873   4.397   6.526  16.357  0.6789 -0.6518 -0.1530
 1820TIP3   OH226874   4.381   6.314  12.720  0.5475  0.2634 -0.3793
 1820TIP3    H126875   4.460   6.341  12.768  0.5676 -1.0218  0.3624
 1820TIP3    H226876   4.310   6.359  12.765  0.7754  0.7745 -0.5246
 1821TIP3   OH226877   1.157   1.112  11.559  0.1681  0.1503 -0.4623
 1821TIP3    H126878   1.219   1.108  11.487  0.8766  1.7354  0.0145
 1821TIP3    H226879   1.134   1.205  11.566 -1.6124 -0.2945 -0.0827
 1822TIP3   OH226880   1.202   4.125  12.516 -0.0902  0.1178  0.9148
 1822TIP3    H126881   1.264   4.159  12.451  0.9563 -0.6801  1.4766
 1822TIP3    H226882   1.117   4.133  12.474  0.4854  0.3627 -0.2443
 1823TIP3   OH226883   2.219   6.430   1.199  0.5846 -0.3575 -0.3940
 1823TIP3    H126884   2.176   6.353   1.237 -0.2322  0.2805  0.0384
 1823TIP3    H226885   2.150   6.474   1.150  0.9820  0.2011 -0.4672
 1824TIP3   OH226886   0.143   1.845  16.578 -0.0876  0.4490  0.0897
 1824TIP3    H126887   0.203   1.872  16.647  0.7867  2.3496 -1.3015
 1824TIP3    H226888   0.092   1.924  16.558  2.1964  1.1962 -3.8112
 1825TIP3   OH226889   1.228   3.237  14.729  0.3780 -0.8314  0.3249
 1825TIP3    H126890   1.204   3.197  14.812 -0.5242 -0.1383  0.4120
 1825TIP3    H226891   1.269   3.166  14.679 -0.6341 -1.7073  0.7001
 1826TIP3   OH226892   2.752   5.488   4.884  0.3470  0.4788 -0.0124
 1826TIP3    H126893   2.806   5.409   4.885  0.5557  0.6219  0.1207
 1826TIP3    H226894   2.715   5.491   4.795  0.0494  0.0411  0.0886
 1827TIP3   OH226895   0.543   6.767   0.871 -0.0947 -0.0565  0.1343
 1827TIP3    H126896   0.611   6.802   0.929  0.1686  0.4373 -0.4575
 1827TIP3    H226897   0.486   6.842   0.855 -0.2012 -0.2083 -0.1918
 1828TIP3   OH226898   3.852   2.411   4.480 -0.2512  0.4593 -0.6462
 1828TIP3    H126899   3.810   2.334   4.517  0.8715  0.1421  0.0213
 1828TIP3    H226900   3.791   2.442   4.413 -1.8875  0.4936  0.7895
 1829TIP3   OH226901   3.028   1.740   2.928  0.4361  0.0562 -0.3091
 1829TIP3    H126902   3.117   1.728   2.960  0.1516  0.4330  0.6594
 1829TIP3    H226903   3.036   1.742   2.832  1.2707 -1.4044 -0.2915
 1830TIP3   OH226904   6.353   1.835   3.752  0.6232 -0.0546 -0.1722
 1830TIP3    H126905   6.269   1.789   3.753  1.2359 -1.4039 -2.7730
 1830TIP3    H226906   6.411   1.780   3.804  0.4202 -0.2915 -0.1920
 1831TIP3   OH226907   4.137   3.344  15.936  0.1427  0.1265  0.1788
 1831TIP3    H126908   4.060   3.396  15.914  0.4670 -0.1193 -1.7182
 1831TIP3    H226909   4.103   3.257  15.957 -0.1144  0.0328 -0.6068
 1832TIP3   OH226910   2.085   6.467   6.148 -0.1504  0.2213 -1.1530
 1832TIP3    H126911   2.091   6.559   6.175  1.8341  0.2095 -1.3906
 1832TIP3    H226912   2.175   6.435   6.154 -0.9647 -2.0690  0.0928
 1833TIP3   OH226913   1.073   0.050  11.140 -0.1820  0.4737  0.3141
 1833TIP3    H126914   1.117  -0.007  11.076 -0.8291 -0.1049  0.3767
 1833TIP3    H226915   0.998  -0.001  11.170  0.0883  0.7495  1.5174
 1834TIP3   OH226916   5.209   6.112  15.326  0.0200 -0.0723  0.3576
 1834TIP3    H126917   5.190   6.199  15.292 -0.7172 -0.5013 -0.3725
 1834TIP3    H226918   5.166   6.052  15.265  0.8207 -0.9677  0.6372
 1835TIP3   OH226919   3.396   6.256   2.308  0.9528 -0.2977 -0.1517
 1835TIP3    H126920   3.356   6.343   2.307  0.5020 -0.4422  1.7079
 1835TIP3    H226921   3.486   6.272   2.339  0.2170 -0.6640  2.3855
 1836TIP3   OH226922   3.013   3.339   5.184  0.4532  0.4308 -0.0299
 1836TIP3    H126923   3.059   3.326   5.101 -2.3133  1.5428 -1.8575
 1836TIP3    H226924   3.001   3.251   5.219  2.7426  0.0321 -0.1070
 1837TIP3   OH226925   3.192   1.531   4.185  0.6956  0.1869  0.4557
 1837TIP3    H126926   3.271   1.489   4.150 -0.0578 -1.3075  0.4413
 1837TIP3    H226927   3.166   1.475   4.259 -1.2282 -0.3122 -0.5194
 1838TIP3   OH226928   0.120   3.518   5.800  0.1501 -0.7073 -0.5252
 1838TIP3    H126929   0.215   3.520   5.802  0.1688 -1.2767 -0.5719
 1838TIP3    H226930   0.093   3.564   5.879  0.4892 -1.6216  0.1390
 1839TIP3   OH226931   4.064   5.725  14.619  0.3624  0.3382 -0.5806
 1839TIP3    H126932   4.000   5.673  14.667  1.3482  0.2644  0.7063
 1839TIP3    H226933   4.046   5.707  14.527 -1.1651 -0.0175 -0.2344
 1840TIP3   OH226934   0.983   3.249  13.186  0.8898 -0.5162 -0.0039
 1840TIP3    H126935   0.971   3.334  13.143  0.1897  0.1921  1.5285
 1840TIP3    H226936   0.960   3.185  13.119  1.4397  0.4874 -1.1895
 1841TIP3   OH226937   2.556   4.859   0.796  0.0651  0.2207  0.0766
 1841TIP3    H126938   2.648   4.854   0.823 -0.0063 -0.7339  0.1550
 1841TIP3    H226939   2.527   4.768   0.792 -0.8837  0.5184  0.0591
 1842TIP3   OH226940   1.057   2.315  13.788 -0.9065 -0.0594 -0.1290
 1842TIP3    H126941   1.029   2.251  13.722  0.0751 -0.8243  0.1850
 1842TIP3    H226942   1.064   2.397  13.739 -1.1866 -0.3989 -0.7542
 1843TIP3   OH226943   1.375   4.141  11.312 -0.2672 -0.3857  0.0630
 1843TIP3    H126944   1.457   4.095  11.329  0.1315  1.3455  3.8033
 1843TIP3    H226945   1.400   4.233  11.302 -1.5386 -0.1830 -1.8627
 1844TIP3   OH226946   5.281   6.302   1.672 -0.2198  0.3780 -0.7309
 1844TIP3    H126947   5.229   6.285   1.593 -1.4391 -0.7371  0.2766
 1844TIP3    H226948   5.229   6.364   1.722 -0.0140  0.1679 -0.2511
 1845TIP3   OH226949   1.416   1.321   3.001  0.5651 -0.2237  0.2809
 1845TIP3    H126950   1.447   1.396   2.949  0.6077 -1.2028 -1.1797
 1845TIP3    H226951   1.367   1.361   3.073  0.1502  1.2104 -0.7356
 1846TIP3   OH226952   4.995   2.707  16.999 -0.2641 -0.0882  0.2138
 1846TIP3    H126953   5.037   2.786  16.965  0.3621 -1.1377 -1.5936
 1846TIP3    H226954   5.068   2.647  17.015 -0.8428 -0.8713 -0.0481
 1847TIP3   OH226955   4.209   5.047  15.876  0.2865 -0.0462 -0.3750
 1847TIP3    H126956   4.301   5.028  15.893  0.3241 -0.4084 -0.9582
 1847TIP3    H226957   4.173   5.071  15.962  0.4528 -1.9246  0.2856
 1848TIP3   OH226958   3.254   5.953   6.144  0.1592  0.0348  0.7385
 1848TIP3    H126959   3.204   6.025   6.181  0.1708 -0.5694  1.9831
 1848TIP3    H226960   3.282   5.902   6.220 -0.2141 -1.5178 -0.1338
 1849TIP3   OH226961   0.103   6.372  16.699  0.4216 -0.2850 -0.0098
 1849TIP3    H126962   0.073   6.399  16.612 -1.8349 -3.5415 -0.4413
 1849TIP3    H226963   0.177   6.313  16.682 -0.8501 -2.0003  0.0255
 1850TIP3   OH226964   5.928   0.944   4.370  0.1773  0.2353 -0.3278
 1850TIP3    H126965   5.943   0.993   4.450 -2.5736  3.0809 -1.3685
 1850TIP3    H226966   5.995   0.976   4.309  0.2924  0.4259 -0.0993
 1851TIP3   OH226967   1.289   3.087  11.735 -0.2785  0.0082 -0.0303
 1851TIP3    H126968   1.340   3.095  11.654 -0.9871 -0.8940 -0.5759
 1851TIP3    H226969   1.247   3.173  11.744  1.1168  0.6947  0.3083
 1852TIP3   OH226970   6.785   4.267  15.797  0.5371 -0.4515  0.2606
 1852TIP3    H126971   6.857   4.270  15.734 -0.2181  0.5951 -0.5960
 1852TIP3    H226972   6.795   4.348  15.848 -0.7964  0.4141 -0.7838
 1853TIP3   OH226973   5.488   3.393   1.090 -0.7847  0.4334 -0.3376
 1853TIP3    H126974   5.454   3.415   1.176 -2.1832 -1.1841 -0.4299
 1853TIP3    H226975   5.550   3.321   1.106 -2.7016 -1.4195 -0.8312
 1854TIP3   OH226976   4.118   0.242   0.179 -0.8740 -0.3953  0.4980
 1854TIP3    H126977   4.108   0.209   0.268 -1.0804  1.8041  1.3378
 1854TIP3    H226978   4.173   0.177   0.135 -0.6533 -1.4483  2.2525
 1855TIP3   OH226979   0.137   6.462  12.829  0.0074 -0.1913  0.4443
 1855TIP3    H126980   0.209   6.525  12.827 -0.5192  0.5290 -3.0925
 1855TIP3    H226981   0.069   6.503  12.881  0.6873  0.9560  0.4480
 1856TIP3   OH226982   5.900   0.409   2.235 -0.5600 -0.3142  0.3577
 1856TIP3    H126983   5.869   0.331   2.279  1.7198 -1.7688 -0.4501
 1856TIP3    H226984   5.904   0.385   2.143  0.2409  0.7323  0.0965
 1857TIP3   OH226985   2.493   0.280   0.270  0.0369 -0.4437  0.1141
 1857TIP3    H126986   2.556   0.326   0.326  0.6293  1.1357 -1.7300
 1857TIP3    H226987   2.412   0.330   0.279  0.5113  0.6847 -1.4151
 1858TIP3   OH226988   5.542   0.893  13.326 -0.0836  0.0752  0.2286
 1858TIP3    H126989   5.491   0.973  13.313  2.3999  1.9143  1.1039
 1858TIP3    H226990   5.566   0.865  13.238 -2.6715 -0.9680 -0.2209
 1859TIP3   OH226991   4.774   0.123   5.460 -0.5962  0.2449  0.1099
 1859TIP3    H126992   4.719   0.116   5.382  0.9586  1.0082 -1.1139
 1859TIP3    H226993   4.780   0.033   5.493  1.5201 -0.8221 -2.7405
 1860TIP3   OH226994   5.131   2.862  11.065  0.4029  0.5126  0.1730
 1860TIP3    H126995   5.115   2.933  11.128  1.9188  1.8103 -0.8326
 1860TIP3    H226996   5.048   2.854  11.018 -0.0239  1.1005  0.7925
 1861TIP3   OH226997   4.541   4.765   2.132 -0.6081 -0.0101 -0.0073
 1861TIP3    H126998   4.600   4.691   2.114 -0.8045 -0.5611  1.4135
 1861TIP3    H226999   4.456   4.724   2.146 -0.7521  0.4944  0.6305
 1862TIP3   OH227000   0.194   6.094  14.110 -0.0427  0.1355 -0.6920
 1862TIP3    H127001   0.229   6.029  14.050  0.5319  1.0509 -1.3744
 1862TIP3    H227002   0.272   6.135  14.149 -0.3958  0.2461 -0.0801
 1863TIP3   OH227003   2.908   1.529  10.809  0.0095 -0.0616  0.0292
 1863TIP3    H127004   2.985   1.509  10.756 -0.0564  0.7680 -0.3996
 1863TIP3    H227005   2.879   1.444  10.844  0.7157 -0.4614 -0.3533
 1864TIP3   OH227006   2.682   5.106  12.306  0.1230  0.4151 -0.5057
 1864TIP3    H127007   2.627   5.058  12.245  0.2265  0.2682 -0.4826
 1864TIP3    H227008   2.623   5.168  12.348 -0.5545 -1.3986  1.3248
 1865TIP3   OH227009   4.122   2.757   5.851  0.5459  0.3809 -0.5074
 1865TIP3    H127010   4.039   2.754   5.898  0.9489 -3.9793  0.3719
 1865TIP3    H227011   4.189   2.762   5.920  1.0829  1.3346 -1.0715
 1866TIP3   OH227012   1.281   3.406   4.920  0.0074  0.2264 -0.2640
 1866TIP3    H127013   1.298   3.444   4.834  1.8684  0.3935  0.1194
 1866TIP3    H227014   1.235   3.475   4.968  2.0677  1.5398 -0.0399
 1867TIP3   OH227015   4.449   0.428   2.636  0.1052  0.0965 -0.7014
 1867TIP3    H127016   4.509   0.482   2.687 -0.8787  1.2848 -0.7436
 1867TIP3    H227017   4.430   0.481   2.559 -0.9633 -0.2736 -0.7005
 1868TIP3   OH227018   1.130   1.774   0.634  0.0075  0.4862  0.2883
 1868TIP3    H127019   1.060   1.746   0.576  0.1803 -0.7792  0.6519
 1868TIP3    H227020   1.207   1.724   0.605  1.1785  2.8948 -1.0479
 1869TIP3   OH227021   3.531   3.659  13.031  0.3419 -0.1471 -0.7134
 1869TIP3    H127022   3.517   3.574  13.071 -0.4899  1.4302  2.6598
 1869TIP3    H227023   3.624   3.677  13.045 -0.0423  0.6040  1.1198
 1870TIP3   OH227024   6.729   5.769  12.126  0.0326  0.1103 -0.0725
 1870TIP3    H127025   6.766   5.800  12.208 -0.9399  2.6853 -0.5260
 1870TIP3    H227026   6.728   5.673  12.135  0.3720  0.2904  2.6883
 1871TIP3   OH227027   6.474   3.665   0.376 -0.1549  0.1221  0.7679
 1871TIP3    H127028   6.423   3.742   0.349  0.0452  0.6093  1.7388
 1871TIP3    H227029   6.439   3.643   0.462 -0.4431 -1.0942  0.3524
 1872TIP3   OH227030   6.034   6.095   0.009 -0.1082  0.0576 -0.2970
 1872TIP3    H127031   5.960   6.059   0.058  0.0593  0.9512  0.6439
 1872TIP3    H227032   6.083   6.147   0.073  0.3611  0.9155 -1.3159
 1873TIP3   OH227033   0.799   6.661   3.194 -0.0907  0.1883  0.3663
 1873TIP3    H127034   0.761   6.643   3.108 -0.4083  2.0578  0.0645
 1873TIP3    H227035   0.831   6.576   3.225  0.0748 -0.5246 -1.6182
 1874TIP3   OH227036   5.773   5.276   5.283 -0.4200  0.8263  0.2408
 1874TIP3    H127037   5.791   5.183   5.266 -0.6450  0.7792  0.2528
 1874TIP3    H227038   5.678   5.282   5.283 -0.4527  0.7696  1.7982
 1875TIP3   OH227039   0.403   3.768   5.629  0.1778 -0.2883  0.1876
 1875TIP3    H127040   0.401   3.696   5.692  0.3605 -1.5193 -1.1455
 1875TIP3    H227041   0.409   3.724   5.544  0.7158  1.3277 -0.6430
 1876TIP3   OH227042   0.277   5.906  16.437 -0.1019  0.0170  0.3958
 1876TIP3    H127043   0.337   5.943  16.373 -0.1910  0.8606  0.7819
 1876TIP3    H227044   0.195   5.954  16.424 -0.2084 -0.0072  0.9309
 1877TIP3   OH227045   4.111   0.957   4.157  0.7900 -0.6736 -0.5088
 1877TIP3    H127046   4.032   0.914   4.190  0.1762  0.8934  0.1582
 1877TIP3    H227047   4.112   0.936   4.063 -1.8965  1.3843 -1.1182
 1878TIP3   OH227048   5.562   6.083   2.695 -0.9288  0.8160 -0.3647
 1878TIP3    H127049   5.649   6.078   2.735 -0.9928  0.1092 -0.3009
 1878TIP3    H227050   5.508   6.128   2.759 -1.0274 -0.2929  0.3579
 1879TIP3   OH227051   1.989   5.553  10.287  0.0268 -0.2739  0.0784
 1879TIP3    H127052   2.006   5.617  10.218  0.3424  0.7441  1.0839
 1879TIP3    H227053   1.893   5.544  10.287 -0.2946  2.3103  1.7402
 1880TIP3   OH227054   3.462   0.632  12.541  0.0526 -0.5684  0.6669
 1880TIP3    H127055   3.371   0.616  12.516 -0.3500  1.6822  0.4260
 1880TIP3    H227056   3.464   0.620  12.636 -0.7354  0.2264  0.7994
 1881TIP3   OH227057   5.980   3.554  13.431  0.1521  0.0350  0.7155
 1881TIP3    H127058   5.970   3.646  13.408 -1.4476 -0.3930 -0.4891
 1881TIP3    H227059   6.069   3.548  13.467  0.6112  1.8748  0.0187
 1882TIP3   OH227060   6.312   0.860  14.258 -0.3747  0.3445 -0.2954
 1882TIP3    H127061   6.395   0.869  14.211 -0.4812  0.9155 -0.3743
 1882TIP3    H227062   6.289   0.768  14.249  0.9006 -0.1220  0.8153
 1883TIP3   OH227063   4.130   1.358  15.520  0.1463  0.7057  0.7770
 1883TIP3    H127064   4.076   1.322  15.591 -0.0667  2.3152  1.4766
 1883TIP3    H227065   4.211   1.384  15.564  0.0988  1.5104  0.3998
 1884TIP3   OH227066   6.648   2.493  11.251  0.8032  0.2167  0.0493
 1884TIP3    H127067   6.569   2.517  11.203  1.5078  1.3446 -0.5827
 1884TIP3    H227068   6.676   2.410  11.212 -0.3459 -0.4783  0.6483
 1885TIP3   OH227069   0.398   6.000  13.967  0.0860  0.5750 -0.3031
 1885TIP3    H127070   0.417   6.009  13.873  0.0757  0.1827 -0.3441
 1885TIP3    H227071   0.480   6.026  14.010  0.3121  0.1101 -0.4435
 1886TIP3   OH227072   2.614   2.068   5.858 -0.6040 -0.0372  0.0876
 1886TIP3    H127073   2.617   1.979   5.893  5.3755 -0.5320 -0.7827
 1886TIP3    H227074   2.635   2.124   5.933 -1.2995  0.3948 -0.0223
 1887TIP3   OH227075   3.155   4.701  11.082  0.3174 -0.4246  0.5150
 1887TIP3    H127076   3.148   4.654  10.998  2.1161  0.7966 -0.3878
 1887TIP3    H227077   3.127   4.790  11.062 -1.9599 -0.7600  1.9411
 1888TIP3   OH227078   2.398   4.002  12.540 -0.2601  0.0113 -0.3550
 1888TIP3    H127079   2.352   3.996  12.624  0.7269 -2.3249  0.1148
 1888TIP3    H227080   2.406   3.911  12.511  1.8477  0.5276 -1.6122
 1889TIP3   OH227081   4.903   6.411   4.056 -0.0498  0.2505 -0.0640
 1889TIP3    H127082   4.814   6.443   4.070  0.1214  0.8858 -0.3690
 1889TIP3    H227083   4.953   6.490   4.033  0.7522  0.0386  0.8617
 1890TIP3   OH227084   4.977   1.149   2.900  0.1955 -0.2584 -0.3155
 1890TIP3    H127085   4.894   1.196   2.905  0.0537 -0.6104  0.9724
 1890TIP3    H227086   4.972   1.084   2.970  1.9092  0.3017  0.3814
 1891TIP3   OH227087   5.711   5.060   1.916  0.5703  0.1521 -0.6111
 1891TIP3    H127088   5.682   5.069   1.825  0.6521  2.9178 -0.4433
 1891TIP3    H227089   5.643   5.104   1.967  0.0261 -2.1723  0.8487
 1892TIP3   OH227090   4.701   4.829  16.532 -0.2962 -0.0499  0.0746
 1892TIP3    H127091   4.733   4.886  16.603  0.6853  0.7745 -1.0001
 1892TIP3    H227092   4.608   4.851  16.524 -0.3810 -0.0224  0.9760
 1893TIP3   OH227093   3.434   5.903  11.453  0.3275  0.1682  0.0411
 1893TIP3    H127094   3.416   5.842  11.524  0.5667  1.1735  0.9961
 1893TIP3    H227095   3.503   5.861  11.402 -1.2156 -1.4876 -0.8202
 1894TIP3   OH227096   2.270   3.997   3.894 -0.5057 -0.2084 -0.2384
 1894TIP3    H127097   2.201   3.937   3.865 -0.0434 -0.6848 -0.3615
 1894TIP3    H227098   2.257   4.075   3.841 -1.4999  0.0498  0.3524
 1895TIP3   OH227099   1.003   3.094   5.717 -0.1275  0.3219  0.4265
 1895TIP3    H127100   0.963   3.007   5.708 -0.3108  0.5175 -0.7732
 1895TIP3    H227101   1.097   3.076   5.726 -0.1412  0.0002 -0.0188
 1896TIP3   OH227102   3.817   3.334   5.893 -0.4854 -0.3052  0.3818
 1896TIP3    H127103   3.831   3.363   5.983  1.0971  0.2170  0.0040
 1896TIP3    H227104   3.834   3.240   5.895  0.5291 -0.1307  0.4629
 1897TIP3   OH227105   5.833   4.833   2.945 -0.2565  0.3309 -0.1291
 1897TIP3    H127106   5.858   4.923   2.965 -1.9601  0.9863 -0.7523
 1897TIP3    H227107   5.759   4.816   3.003  1.3307 -1.4397  1.4878
 1898TIP3   OH227108   0.544   0.401  11.830 -0.1622  0.2863  0.0824
 1898TIP3    H127109   0.462   0.407  11.781 -0.0880  0.4277 -0.0238
 1898TIP3    H227110   0.610   0.438  11.771 -0.3140  1.9088  0.8781
 1899TIP3   OH227111   0.727   1.151  16.312  0.4535  0.3818  0.5270
 1899TIP3    H127112   0.793   1.174  16.247  0.7922 -0.2018  0.6496
 1899TIP3    H227113   0.776   1.146  16.395 -0.3279  3.1681  1.2407
 1900TIP3   OH227114   2.731   6.562  12.369  0.2091 -0.1918 -0.0033
 1900TIP3    H127115   2.684   6.612  12.302 -2.1246 -0.8472  1.0491
 1900TIP3    H227116   2.662   6.526  12.425  1.9931 -1.3546  1.5620
 1901TIP3   OH227117   0.269   5.869   1.025 -0.0786 -0.4158  0.4496
 1901TIP3    H127118   0.221   5.948   1.049  0.0138  0.6267 -2.3987
 1901TIP3    H227119   0.357   5.881   1.061  0.3959  1.5743 -1.1889
 1902TIP3   OH227120   1.661   2.141  16.274 -0.5441 -0.7769 -0.3414
 1902TIP3    H127121   1.591   2.195  16.237 -0.6174 -0.7565 -0.1763
 1902TIP3    H227122   1.740   2.171  16.230 -0.0877  1.5149  1.7837
 1903TIP3   OH227123   5.553   4.295  12.981 -0.1226 -0.7351  0.0169
 1903TIP3    H127124   5.647   4.279  12.987  0.1049  0.6571  0.4041
 1903TIP3    H227125   5.513   4.213  13.010  0.9707 -1.1719  0.3334
 1904TIP3   OH227126   4.208   4.807  14.760 -0.7019  0.4462 -0.4497
 1904TIP3    H127127   4.275   4.792  14.694 -0.1652 -0.5000  0.2768
 1904TIP3    H227128   4.249   4.865  14.824  0.3188 -1.8579  1.1641
 1905TIP3   OH227129   3.006   4.720   4.850  0.1883  0.4592 -0.6796
 1905TIP3    H127130   2.963   4.661   4.788  0.8828 -1.7831  0.8646
 1905TIP3    H227131   3.097   4.723   4.822  0.2295  0.5166 -0.5408
 1906TIP3   OH227132   1.279   2.536   5.254 -0.4473  0.5207  0.3766
 1906TIP3    H127133   1.311   2.623   5.278 -0.2078  0.3058  0.8529
 1906TIP3    H227134   1.292   2.483   5.333  3.2693 -1.0526 -1.0266
 1907TIP3   OH227135   5.830   2.364  16.507  0.3932 -0.2140 -0.1878
 1907TIP3    H127136   5.752   2.310  16.499 -0.8228  1.1510  1.6318
 1907TIP3    H227137   5.824   2.426  16.434 -0.3790  0.0554  0.0994
 1908TIP3   OH227138   1.106   0.164   3.825 -0.9851  0.0882 -0.4081
 1908TIP3    H127139   1.019   0.125   3.816 -1.0979  0.4256 -0.8166
 1908TIP3    H227140   1.135   0.181   3.735  0.1416 -1.3822 -0.3709
 1909TIP3   OH227141   5.126   1.028  15.102 -0.2142 -0.7561  0.4926
 1909TIP3    H127142   5.043   1.021  15.055 -0.2637 -1.3754  0.6612
 1909TIP3    H227143   5.192   1.038  15.033 -0.6006  2.0335  0.3986
 1910TIP3   OH227144   2.112   3.984  11.012 -0.1553 -0.3553  1.1433
 1910TIP3    H127145   2.085   3.894  11.031 -0.5243 -0.2992  0.8905
 1910TIP3    H227146   2.069   4.037  11.079 -0.5969 -0.2778  0.8025
 1911TIP3   OH227147   0.435   0.154  13.077 -0.1821  0.6300 -0.6779
 1911TIP3    H127148   0.358   0.192  13.120 -0.4295  1.9320 -2.1933
 1911TIP3    H227149   0.455   0.214  13.005  1.9830  0.0888 -0.6169
 1912TIP3   OH227150   5.812   5.440  15.054 -0.0148  0.2576 -0.1766
 1912TIP3    H127151   5.903   5.435  15.026  0.0630  1.0110 -0.0559
 1912TIP3    H227152   5.810   5.511  15.118 -1.1465  1.9557 -2.0053
 1913TIP3   OH227153   0.063   3.769   3.431 -0.6130  0.2127  0.1661
 1913TIP3    H127154   0.129   3.817   3.381 -1.3603  0.9771 -0.1158
 1913TIP3    H227155   0.112   3.725   3.500  0.1136  1.3603  0.4164
 1914TIP3   OH227156   3.401   1.275  10.722 -0.5665  0.6596  0.1555
 1914TIP3    H127157   3.333   1.268  10.655  0.3874 -0.3328 -0.7211
 1914TIP3    H227158   3.462   1.341  10.689  0.3438 -0.4239 -0.3579
 1915TIP3   OH227159   4.599   5.019  10.725  0.4338 -0.4376  0.5965
 1915TIP3    H127160   4.532   4.953  10.741  0.1777 -0.1365  0.7859
 1915TIP3    H227161   4.680   4.980  10.760  0.4046 -0.8858  0.1740
 1916TIP3   OH227162   2.250   4.530   5.883 -0.2391  0.1319 -0.4844
 1916TIP3    H127163   2.178   4.475   5.854  0.4941 -1.0727 -0.0954
 1916TIP3    H227164   2.308   4.471   5.932  0.9809  1.0713 -0.7257
 1917TIP3   OH227165   0.752   1.987  12.414 -0.1773  0.4363 -0.5335
 1917TIP3    H127166   0.776   1.996  12.506  0.3276  1.3170 -0.7445
 1917TIP3    H227167   0.658   1.968  12.415 -0.6121  2.4624  0.0951
 1918TIP3   OH227168   5.779   5.522   5.457  0.1793  0.3035 -0.2181
 1918TIP3    H127169   5.765   5.540   5.364 -1.6114  0.3479  0.0307
 1918TIP3    H227170   5.747   5.433   5.469  2.3265 -0.4854 -0.0223
 1919TIP3   OH227171   1.111   2.424  13.531  0.3379 -0.3626 -0.4130
 1919TIP3    H127172   1.086   2.375  13.453  0.6596 -1.2648  0.0370
 1919TIP3    H227173   1.206   2.434  13.523  0.1787  0.8941 -0.8923
 1920TIP3   OH227174   0.630   4.961   3.430  0.5401 -0.1347 -0.7188
 1920TIP3    H127175   0.654   4.883   3.380 -1.5590 -3.1637  2.5311
 1920TIP3    H227176   0.544   4.941   3.467  1.5100  2.0630  3.3905
 1921TIP3   OH227177   3.743   1.004  10.456  0.1756 -0.4308 -0.2467
 1921TIP3    H127178   3.687   0.939  10.415  1.7927 -0.5592 -2.4308
 1921TIP3    H227179   3.726   1.084  10.407 -0.5819  0.4193  1.3429
 1922TIP3   OH227180   6.268   4.550  12.639 -0.1302 -0.0003  0.0062
 1922TIP3    H127181   6.329   4.618  12.611  0.7923 -0.8412 -0.0773
 1922TIP3    H227182   6.267   4.556  12.735  0.7948 -0.5514  0.0697
 1923TIP3   OH227183   5.354   0.033  13.051 -0.4270  0.5927  0.0473
 1923TIP3    H127184   5.276   0.047  12.998 -0.5638 -2.6153 -0.7517
 1923TIP3    H227185   5.414  -0.016  12.995  0.8218  0.0876  1.7210
 1924TIP3   OH227186   1.849   4.836  14.061  0.1906 -0.1659 -0.0355
 1924TIP3    H127187   1.887   4.752  14.034  2.0885  1.0148 -1.2497
 1924TIP3    H227188   1.911   4.902  14.029 -1.5973  1.7558  0.2782
 1925TIP3   OH227189   4.767   1.924  15.608  0.5268 -0.1523  0.2072
 1925TIP3    H127190   4.745   1.833  15.624  1.5989 -0.6582 -0.9888
 1925TIP3    H227191   4.819   1.950  15.684  0.6543 -0.7013  0.3105
 1926TIP3   OH227192   6.785   2.501   5.312 -0.2294 -0.3537 -0.1192
 1926TIP3    H127193   6.733   2.421   5.322 -0.0570 -0.3264  1.0808
 1926TIP3    H227194   6.720   2.570   5.298 -0.4489 -0.5095  0.1248
 1927TIP3   OH227195   1.690   1.746   0.159  0.4160 -0.1050 -0.1498
 1927TIP3    H127196   1.772   1.701   0.180  0.8108  0.1375 -1.1126
 1927TIP3    H227197   1.690   1.753   0.064 -1.5122 -1.5415 -0.3056
 1928TIP3   OH227198   3.744   3.414   3.074 -1.1846  0.5860 -0.0186
 1928TIP3    H127199   3.825   3.418   3.124 -0.5052  0.9305 -1.1190
 1928TIP3    H227200   3.678   3.387   3.138  0.0288 -1.0871  0.6103
 1929TIP3   OH227201   0.070   3.734   4.894  0.2175  0.1072  0.0333
 1929TIP3    H127202   0.096   3.825   4.908  1.1917  0.5097 -3.4105
 1929TIP3    H227203   0.149   3.683   4.914 -0.3206 -0.0347  1.9353
 1930TIP3   OH227204   5.097   6.770  13.817  0.5605 -0.7459 -0.5817
 1930TIP3    H127205   5.066   6.830  13.885  2.3290 -0.2431 -0.1557
 1930TIP3    H227206   5.022   6.715  13.796 -0.7462  0.7998 -0.0742
 1931TIP3   OH227207   0.116   1.589   0.577  0.0294 -0.3925 -0.7921
 1931TIP3    H127208   0.086   1.673   0.613  0.1398 -0.4372 -0.5899
 1931TIP3    H227209   0.206   1.606   0.550  0.4795 -0.7740  0.4066
 1932TIP3   OH227210   1.279   4.057   3.568 -0.5158 -0.1034 -0.5153
 1932TIP3    H127211   1.242   4.132   3.615  0.3553 -0.0855  0.1723
 1932TIP3    H227212   1.335   4.014   3.632  1.6167  0.5657 -1.7971
 1933TIP3   OH227213   2.555   2.238  16.078  0.0837  0.2844 -0.3933
 1933TIP3    H127214   2.549   2.186  15.998  2.3525 -0.4787 -0.1344
 1933TIP3    H227215   2.551   2.173  16.149 -1.7900  0.9410  0.1610
 1934TIP3   OH227216   3.113   4.330  14.087  0.2398  0.6168  0.2540
 1934TIP3    H127217   3.104   4.423  14.108  1.1476  0.3901  1.7826
 1934TIP3    H227218   3.026   4.293  14.106  0.1970  0.9605  0.7581
 1935TIP3   OH227219   5.706   5.485  16.716 -0.1095  0.6762 -0.2278
 1935TIP3    H127220   5.726   5.525  16.631 -0.3143  2.0115  0.3281
 1935TIP3    H227221   5.764   5.530  16.778 -1.4257  1.2075  0.6595
 1936TIP3   OH227222   3.073   3.499  13.618  0.5381 -0.5186 -0.5004
 1936TIP3    H127223   3.111   3.585  13.636  2.4127 -1.7338  1.6722
 1936TIP3    H227224   2.979   3.512  13.633  0.9275  0.8710  1.0886
 1937TIP3   OH227225   2.232   2.061  13.053  0.1464  0.2316 -0.3511
 1937TIP3    H127226   2.156   2.075  12.997 -1.2025 -0.0102  1.3351
 1937TIP3    H227227   2.264   1.975  13.029  0.8315  0.9210 -2.0917
 1938TIP3   OH227228   5.072   6.128  11.332 -0.1699 -0.0135 -0.0856
 1938TIP3    H127229   5.049   6.119  11.240 -1.2795  1.1391  0.0641
 1938TIP3    H227230   5.152   6.180  11.332 -1.3039  1.7874 -0.3312
 1939TIP3   OH227231   0.671   4.008   2.607  0.5912 -0.3025 -0.0188
 1939TIP3    H127232   0.655   4.087   2.556  1.4382  0.4932  0.9036
 1939TIP3    H227233   0.658   4.035   2.698  1.7189 -1.0032  0.3725
 1940TIP3   OH227234   0.609   4.145  15.414  0.2851 -0.0040  0.5784
 1940TIP3    H127235   0.588   4.225  15.463 -1.3746  0.1853 -0.3982
 1940TIP3    H227236   0.654   4.090  15.478 -0.3089  0.9148  1.8401
 1941TIP3   OH227237   6.347   0.714  15.712 -0.2080  0.2690  0.6177
 1941TIP3    H127238   6.388   0.799  15.731  0.2482  0.0051  0.8227
 1941TIP3    H227239   6.410   0.649  15.743 -1.7038 -0.1495  3.0404
 1942TIP3   OH227240   2.214   5.384  15.299 -0.1143  0.1253  0.2394
 1942TIP3    H127241   2.177   5.346  15.379  1.2527 -1.2334  0.2705
 1942TIP3    H227242   2.139   5.425  15.255 -0.5716  3.0406  3.3043
 1943TIP3   OH227243   4.761   5.841  11.156 -0.1010  0.0029  0.0033
 1943TIP3    H127244   4.812   5.858  11.077  1.2181 -1.9494  0.3465
 1943TIP3    H227245   4.738   5.928  11.189  0.7978  0.8976 -1.5827
 1944TIP3   OH227246   2.154   5.812   1.219  0.1251 -0.1955 -0.4383
 1944TIP3    H127247   2.078   5.812   1.161 -0.7530 -1.0748  0.6659
 1944TIP3    H227248   2.225   5.776   1.167 -0.4239 -0.1391 -1.2341
 1945TIP3   OH227249   5.662   6.149   5.766 -0.0567 -0.4707  0.2651
 1945TIP3    H127250   5.700   6.235   5.783  1.2591 -0.8802 -0.4282
 1945TIP3    H227251   5.726   6.087   5.801 -0.0796 -1.1926 -0.9044
 1946TIP3   OH227252   4.556   0.370  13.646 -0.3652 -0.1997 -0.2824
 1946TIP3    H127253   4.569   0.381  13.741  0.4961 -1.5927 -0.2060
 1946TIP3    H227254   4.638   0.399  13.607  0.4585 -2.3706 -0.3367
 1947TIP3   OH227255   1.365   3.331   5.509  0.0991  1.0529 -0.0503
 1947TIP3    H127256   1.442   3.382   5.483 -0.2106  0.4313 -2.4152
 1947TIP3    H227257   1.345   3.277   5.433 -2.2318  0.6266  0.7795
 1948TIP3   OH227258   2.170   1.694  15.139  0.3033 -0.1377  0.4596
 1948TIP3    H127259   2.119   1.754  15.084 -1.2498 -1.2991  0.5602
 1948TIP3    H227260   2.251   1.742  15.159 -0.4008  1.4656 -0.3708
 1949TIP3   OH227261   4.421   1.341  11.708  0.0923  0.1025  0.3008
 1949TIP3    H127262   4.330   1.325  11.682 -0.0704 -0.1843  1.0374
 1949TIP3    H227263   4.468   1.346  11.625 -0.2245 -1.9087 -0.0568
 1950TIP3   OH227264   0.907   6.131  15.283  0.0631  0.1111 -0.1521
 1950TIP3    H127265   0.930   6.074  15.209  0.7320 -0.5163  0.5156
 1950TIP3    H227266   0.988   6.178  15.302 -0.0485  0.1269  0.2931
 1951TIP3   OH227267   2.719   3.259  15.721 -0.3476 -0.0137 -0.1846
 1951TIP3    H127268   2.647   3.208  15.758  0.4692 -0.6851  0.5358
 1951TIP3    H227269   2.698   3.350  15.742 -0.1200 -0.3361  1.6314
 1952TIP3   OH227270   5.559   5.681   3.304 -0.2499  0.3247  0.3238
 1952TIP3    H127271   5.641   5.681   3.255 -1.2036 -0.6848 -1.3599
 1952TIP3    H227272   5.491   5.671   3.238 -1.6018 -1.2909  1.8381
 1953TIP3   OH227273   0.940   2.483  12.582  0.3070  0.2737 -0.5307
 1953TIP3    H127274   0.852   2.511  12.606  0.4328  0.0301  0.2649
 1953TIP3    H227275   0.998   2.537  12.636  0.7037  1.3770 -2.0233
 1954TIP3   OH227276   1.023   3.698   1.347  0.1661 -0.3774  0.5406
 1954TIP3    H127277   0.938   3.736   1.368 -1.8695 -4.3182  0.3239
 1954TIP3    H227278   1.081   3.730   1.416 -1.5783  1.8469  1.1193
 1955TIP3   OH227279   5.205   1.361  11.241 -0.4653  0.0934  0.6744
 1955TIP3    H127280   5.170   1.277  11.272 -2.1833  0.5646  0.0873
 1955TIP3    H227281   5.128   1.413  11.221  0.4500  2.7018  3.1908
 1956TIP3   OH227282   2.912   2.739   5.944  0.6136 -0.5787 -0.3706
 1956TIP3    H127283   2.898   2.645   5.936  0.8923 -0.5633 -1.2158
 1956TIP3    H227284   2.943   2.752   6.033 -1.7928 -0.9779  0.5927
 1957TIP3   OH227285   5.606   5.033  14.642  0.1159  0.0374 -0.2256
 1957TIP3    H127286   5.533   5.033  14.703 -0.6058 -3.3399 -0.8921
 1957TIP3    H227287   5.674   4.983  14.686  0.9322  0.5995 -0.8087
 1958TIP3   OH227288   0.715   3.189   5.406 -0.3043  0.0636  0.1104
 1958TIP3    H127289   0.798   3.141   5.408  0.0912  0.7505  0.9496
 1958TIP3    H227290   0.656   3.133   5.356  0.8622 -0.1092 -1.1302
 1959TIP3   OH227291   5.461   2.171   0.761  0.2368 -0.3600  0.2464
 1959TIP3    H127292   5.555   2.176   0.740  0.4003  1.6669  1.2214
 1959TIP3    H227293   5.455   2.203   0.851 -1.4564  0.1569 -0.0257
 1960TIP3   OH227294   0.270   6.599  16.237 -0.1535 -0.9376  0.5053
 1960TIP3    H127295   0.340   6.615  16.300  0.0279 -0.3403  0.1600
 1960TIP3    H227296   0.197   6.567  16.289 -0.3841  0.6119  1.1888
 1961TIP3   OH227297   6.177   0.997  15.797  0.4468 -0.3229 -0.6228
 1961TIP3    H127298   6.186   1.092  15.797 -3.1713  0.2547  1.8400
 1961TIP3    H227299   6.169   0.974  15.890 -2.1566 -2.4951 -1.2437
 1962TIP3   OH227300   4.607   6.240  13.454  0.1241  0.0405  0.4758
 1962TIP3    H127301   4.655   6.280  13.381 -0.3248 -0.1287  0.0857
 1962TIP3    H227302   4.644   6.151  13.461 -0.2743 -0.1600  0.0420
 1963TIP3   OH227303   1.381   1.585   3.552 -0.0756 -0.6662 -0.2277
 1963TIP3    H127304   1.384   1.620   3.463 -1.2961 -0.1210 -0.0755
 1963TIP3    H227305   1.425   1.651   3.605  0.7751 -1.0549 -0.4208
 1964TIP3   OH227306   4.889   2.963   1.175  0.2258  0.2621  0.1136
 1964TIP3    H127307   4.805   2.927   1.144  0.6788 -1.2617  0.5966
 1964TIP3    H227308   4.954   2.923   1.117  0.6403  1.4477 -0.2632
 1965TIP3   OH227309   4.933   4.734  16.782 -0.0830 -0.5301 -0.1415
 1965TIP3    H127310   4.954   4.810  16.728 -0.7673 -0.7046 -0.6648
 1965TIP3    H227311   4.910   4.666  16.719  0.7121 -1.2350  0.3106
 1966TIP3   OH227312   2.097   0.887  13.018  0.0896  0.0172 -0.3021
 1966TIP3    H127313   2.103   0.893  13.113 -0.2827  1.0153 -0.3255
 1966TIP3    H227314   2.003   0.896  12.999  0.1159 -0.5600 -0.7434
 1967TIP3   OH227315   2.891   1.097  13.830 -0.0015 -0.4977 -0.3331
 1967TIP3    H127316   2.977   1.072  13.798 -0.1427 -1.1962 -0.1948
 1967TIP3    H227317   2.907   1.167  13.893  0.4697 -0.6866 -0.2415
 1968TIP3   OH227318   4.416   6.022   0.656  0.0304  0.0830  0.0072
 1968TIP3    H127319   4.365   5.958   0.608 -1.7468  0.7342  0.9408
 1968TIP3    H227320   4.389   6.011   0.747  0.9402  1.0182  0.4143
 1969TIP3   OH227321   1.721   1.697  11.546 -0.0419  0.1569 -0.2414
 1969TIP3    H127322   1.770   1.779  11.559  2.6507 -0.9841 -2.0760
 1969TIP3    H227323   1.762   1.636  11.606 -1.4546 -0.0807  0.4977
 1970TIP3   OH227324   5.714   1.899   3.856  0.7404 -0.3154  0.0584
 1970TIP3    H127325   5.804   1.929   3.847 -0.1169  1.9387 -2.1885
 1970TIP3    H227326   5.702   1.836   3.785  0.5142 -0.5756  0.3216
 1971TIP3   OH227327   2.628   5.178   2.672  0.5600  0.1515  0.6862
 1971TIP3    H127328   2.600   5.119   2.742 -0.2411 -0.6017 -0.2438
 1971TIP3    H227329   2.701   5.227   2.710  1.4893 -1.6730  1.4075
 1972TIP3   OH227330   4.381   1.127   2.954 -0.5063 -0.2630 -0.0941
 1972TIP3    H127331   4.472   1.153   2.966 -0.1808 -1.2493 -0.2978
 1972TIP3    H227332   4.374   1.108   2.860 -0.6174 -1.2632  0.1071
 1973TIP3   OH227333   0.213   5.449  13.269 -0.3157 -0.5552 -0.1609
 1973TIP3    H127334   0.268   5.484  13.339  1.4318  1.1973 -2.2760
 1973TIP3    H227335   0.181   5.526  13.222 -2.8839 -1.6217 -0.3178
 1974TIP3   OH227336   6.734   2.663  16.334  0.6212 -0.4424  0.0967
 1974TIP3    H127337   6.805   2.599  16.336  0.3133 -0.7869  0.1118
 1974TIP3    H227338   6.759   2.725  16.265  0.1755 -1.4407 -0.9793
 1975TIP3   OH227339   6.714   3.335  11.845 -0.2449  0.2336 -0.4522
 1975TIP3    H127340   6.733   3.257  11.794 -1.0649  0.5495 -1.2482
 1975TIP3    H227341   6.772   3.328  11.921 -0.6569 -1.3852 -0.2550
 1976TIP3   OH227342   2.608   5.363   3.001 -0.5469 -0.2253  0.0029
 1976TIP3    H127343   2.700   5.344   2.983 -0.3264  0.9620 -0.1963
 1976TIP3    H227344   2.560   5.295   2.955  0.1705  0.2588 -1.5229
 1977TIP3   OH227345   1.978   6.195  14.111  0.0856  0.3603  0.1330
 1977TIP3    H127346   1.929   6.117  14.086  0.8774 -0.4263  0.9848
 1977TIP3    H227347   1.989   6.188  14.205  0.4681  1.3381  0.1767
 1978TIP3   OH227348   0.301   6.024  14.827 -0.3745 -0.0584  0.1865
 1978TIP3    H127349   0.238   5.954  14.811 -0.4482  0.0650 -0.0729
 1978TIP3    H227350   0.285   6.051  14.917 -1.0199  0.3058 -0.0345
 1979TIP3   OH227351   1.004   3.729  16.333 -0.2797 -0.3088  0.8418
 1979TIP3    H127352   1.005   3.822  16.352  0.7879 -0.4926  1.8433
 1979TIP3    H227353   0.929   3.695  16.380 -1.5656  0.2360 -0.7267
 1980TIP3   OH227354   3.014   2.183   1.407 -0.0222 -0.1190  0.3229
 1980TIP3    H127355   3.001   2.171   1.501 -0.8858 -0.5054  0.1634
 1980TIP3    H227356   2.947   2.246   1.381  1.7448  1.8607  0.3754
 1981TIP3   OH227357   0.895   0.644   0.596  0.1314  0.3059 -0.1175
 1981TIP3    H127358   0.835   0.694   0.541 -0.4544  1.5624  1.5686
 1981TIP3    H227359   0.849   0.563   0.614 -0.9577  1.1047  0.8530
 1982TIP3   OH227360   6.189   4.836  15.272  0.3207 -0.4049  0.2583
 1982TIP3    H127361   6.167   4.751  15.310  1.4886 -0.4301  0.8893
 1982TIP3    H227362   6.128   4.897  15.314 -0.9940 -1.0013 -0.7007
 1983TIP3   OH227363   0.792   1.437  14.490 -0.2332 -0.0185 -0.3426
 1983TIP3    H127364   0.812   1.432  14.397 -1.4096  0.7179 -0.6616
 1983TIP3    H227365   0.701   1.406  14.497 -0.9156  1.9701  0.2406
 1984TIP3   OH227366   2.363   6.333  16.661  0.2758  0.7157 -0.1159
 1984TIP3    H127367   2.325   6.370  16.741  1.0181  2.8583 -0.6983
 1984TIP3    H227368   2.291   6.333  16.598 -0.7622 -2.4193  0.8512
 1985TIP3   OH227369   5.306   1.630   4.921 -0.5172  0.1870 -0.4240
 1985TIP3    H127370   5.339   1.719   4.920 -0.8316  0.3308  0.7389
 1985TIP3    H227371   5.333   1.595   5.006 -0.4678 -0.8025 -0.8281
 1986TIP3   OH227372   1.369   6.167   2.068  0.1938  0.7619  0.0482
 1986TIP3    H127373   1.397   6.123   2.148  0.9839  0.9384 -0.1163
 1986TIP3    H227374   1.451   6.183   2.020 -0.1640  1.5574 -0.3261
 1987TIP3   OH227375   2.552   0.934  11.034  0.4901  0.1274 -0.2725
 1987TIP3    H127376   2.540   0.869  10.965  1.0608 -1.4660  1.0531
 1987TIP3    H227377   2.494   1.007  11.010  0.5449 -0.4425 -2.2987
 1988TIP3   OH227378   1.927   0.844   3.854 -0.2695  0.3337 -0.4085
 1988TIP3    H127379   1.960   0.878   3.938 -0.2462 -1.2978  0.2875
 1988TIP3    H227380   1.832   0.842   3.865 -0.2194 -0.8287  0.0054
 1989TIP3   OH227381   3.929   3.268  14.291  0.0591 -0.2910  0.4062
 1989TIP3    H127382   3.861   3.205  14.267  0.8355 -1.3441  0.8552
 1989TIP3    H227383   4.011   3.218  14.284  0.8269  0.9984 -0.3525
 1990TIP3   OH227384   1.898   4.730   0.215 -0.1067  0.1903  0.5356
 1990TIP3    H127385   1.885   4.660   0.278 -0.1960  0.4858  0.8450
 1990TIP3    H227386   1.938   4.801   0.265  1.3930 -0.1750 -0.0932
 1991TIP3   OH227387   4.121   0.653   4.379 -0.1037  0.6827  0.0373
 1991TIP3    H127388   4.081   0.739   4.387  1.3438  1.6019 -1.7840
 1991TIP3    H227389   4.071   0.609   4.311 -0.0221  0.5759  0.0458
 1992TIP3   OH227390   3.435   0.633   4.700  0.0047  0.0013 -0.3476
 1992TIP3    H127391   3.529   0.647   4.711  0.2031 -1.0224 -0.6651
 1992TIP3    H227392   3.395   0.714   4.733  0.9189 -0.0835  1.0333
 1993TIP3   OH227393   6.354   2.412  14.581 -0.5626 -0.7344 -0.2569
 1993TIP3    H127394   6.351   2.491  14.527 -0.1502 -0.1309  0.5909
 1993TIP3    H227395   6.406   2.437  14.657 -1.9218 -1.3045  0.8806
 1994TIP3   OH227396   1.272   6.338   5.268 -0.1769  0.6008 -0.0408
 1994TIP3    H127397   1.307   6.280   5.200 -0.6042  3.0070 -2.4768
 1994TIP3    H227398   1.189   6.297   5.293  1.1662 -1.6689  1.0114
 1995TIP3   OH227399   0.347   1.190   2.544 -0.2757 -0.5463  0.5016
 1995TIP3    H127400   0.294   1.151   2.475  1.0508 -1.0360 -0.2793
 1995TIP3    H227401   0.287   1.246   2.593 -0.7578  1.7878 -2.5164
 1996TIP3   OH227402   0.433   1.048  15.290  0.1823 -0.3404 -0.2286
 1996TIP3    H127403   0.470   0.974  15.242  1.8662  0.1831  0.1858
 1996TIP3    H227404   0.380   1.008  15.359  1.8488 -1.2129  0.5984
 1997TIP3   OH227405   6.242   2.018   4.109  0.5318  0.7279  0.0281
 1997TIP3    H127406   6.196   2.064   4.180  1.2303  0.8799  0.3850
 1997TIP3    H227407   6.318   1.978   4.151  0.9213  0.7629 -0.6281
 1998TIP3   OH227408   2.793   1.676  10.409  0.2884  0.5180  0.0934
 1998TIP3    H127409   2.750   1.732  10.474  0.4641 -0.4229  1.0505
 1998TIP3    H227410   2.882   1.663  10.442  0.6652  0.7355 -0.7942
 1999TIP3   OH227411   6.650   2.931   3.499 -0.1556 -0.1154  0.1947
 1999TIP3    H127412   6.610   2.957   3.582 -1.6391 -0.3594 -0.4154
 1999TIP3    H227413   6.687   3.012   3.464 -0.4197  0.1889  0.6075
 2000TIP3   OH227414   0.900   5.400   4.817  0.6864  0.1873  0.1613
 2000TIP3    H127415   0.933   5.463   4.754 -0.0259 -0.7419 -1.1963
 2000TIP3    H227416   0.893   5.449   4.899  2.4578  1.1852 -0.2431
 2001TIP3   OH227417   3.540   6.202   1.573 -0.1368 -0.8347  0.0812
 2001TIP3    H127418   3.595   6.158   1.508 -0.1805  0.4077 -0.8323
 2001TIP3    H227419   3.589   6.194   1.655  0.6265 -1.1575 -0.3973
 2002TIP3   OH227420   1.767   6.418  14.876 -0.2834 -0.0168 -0.1331
 2002TIP3    H127421   1.774   6.339  14.929 -1.3909 -0.0081  0.0474
 2002TIP3    H227422   1.830   6.405  14.805 -1.8949 -2.0124 -1.2825
 2003TIP3   OH227423   2.151   2.298  11.191  0.3047 -0.3688 -0.3958
 2003TIP3    H127424   2.099   2.229  11.149 -1.0394 -0.0271  0.6351
 2003TIP3    H227425   2.194   2.343  11.119 -0.7531 -0.7398 -1.2889
 2004TIP3   OH227426   2.297   2.295   0.350  0.1345  0.4645 -0.0159
 2004TIP3    H127427   2.322   2.382   0.320 -2.4851  1.1894 -0.3894
 2004TIP3    H227428   2.374   2.262   0.397  2.4335  1.5168 -2.7541
 2005TIP3   OH227429   0.316   2.919   4.449 -0.5522 -0.6207  0.1050
 2005TIP3    H127430   0.285   3.002   4.413 -0.7414 -0.6302  0.2416
 2005TIP3    H227431   0.407   2.936   4.472  0.2423 -1.2204 -2.2952
 2006TIP3   OH227432   1.647   4.513   3.112 -0.5556  0.1230  0.2547
 2006TIP3    H127433   1.569   4.542   3.161 -1.1101 -0.3804 -0.3156
 2006TIP3    H227434   1.612   4.471   3.034  0.2394 -1.6686  0.8157
 2007TIP3   OH227435   2.105   1.702   4.996  0.0402  0.4405  0.2405
 2007TIP3    H127436   2.013   1.719   5.016 -0.1108 -0.2451  0.1521
 2007TIP3    H227437   2.110   1.710   4.901  0.2391  1.2460  0.3138
 2008TIP3   OH227438   5.640   1.320   2.241  0.1442 -0.0627  0.3526
 2008TIP3    H127439   5.685   1.357   2.316  0.7534 -0.6840  0.3010
 2008TIP3    H227440   5.579   1.256   2.278  0.4725 -0.3973  0.3220
 2009TIP3   OH227441   3.545   5.764   4.411 -0.3395 -0.4569 -0.0179
 2009TIP3    H127442   3.520   5.675   4.385 -1.1158 -0.4127  0.5744
 2009TIP3    H227443   3.628   5.779   4.365 -1.3694 -0.6006 -2.0416
 2010TIP3   OH227444   1.851   6.369   1.484 -0.0557 -0.0010  0.4132
 2010TIP3    H127445   1.851   6.388   1.577 -0.8062 -1.4589  0.7386
 2010TIP3    H227446   1.776   6.311   1.471 -0.8094  1.2464 -1.3389
 2011TIP3   OH227447   5.390   0.850  16.530 -0.0262  0.6493 -0.1429
 2011TIP3    H127448   5.426   0.939  16.533 -1.8227  1.4309 -0.0585
 2011TIP3    H227449   5.455   0.796  16.574  1.3769  1.8222 -0.7055
 2012TIP3   OH227450   1.058   5.011  14.313  0.3904  0.0544 -0.4989
 2012TIP3    H127451   0.977   5.004  14.363 -0.0021  1.4143 -0.8924
 2012TIP3    H227452   1.125   5.032  14.378  0.3745 -0.7126 -0.2222
 2013TIP3   OH227453   5.683   4.815  10.256  0.0011 -0.4990  0.1049
 2013TIP3    H127454   5.741   4.891  10.254 -1.2808  0.6171  2.0083
 2013TIP3    H227455   5.710   4.766  10.333 -1.5124  0.0358  1.0218
 2014TIP3   OH227456   4.912   1.556  14.082  0.1143  0.0628  0.0857
 2014TIP3    H127457   4.877   1.531  14.168  2.0631  1.1691  1.2873
 2014TIP3    H227458   4.917   1.473  14.034 -0.1911 -0.7370  1.3591
 2015TIP3   OH227459   4.909   4.868  11.558 -0.2789  0.2539 -0.3675
 2015TIP3    H127460   4.816   4.859  11.538 -0.3897  0.6850 -0.0559
 2015TIP3    H227461   4.931   4.956  11.529 -0.1869  0.4931  0.4222
 2016TIP3   OH227462   3.077   3.667   5.844  0.0028  0.3008 -0.1047
 2016TIP3    H127463   3.101   3.584   5.803  0.8935  1.5003 -2.1385
 2016TIP3    H227464   3.013   3.706   5.785  1.3597  2.0963 -0.4752
 2017TIP3   OH227465   1.641   6.421  14.534  0.2871 -0.1638 -0.0318
 2017TIP3    H127466   1.633   6.334  14.571 -0.1257 -0.2861 -0.3952
 2017TIP3    H227467   1.711   6.463  14.584  2.0638 -1.4579 -1.2951
 2018TIP3   OH227468   1.276   5.445  14.762 -0.1002 -0.5082 -0.0943
 2018TIP3    H127469   1.305   5.357  14.785 -1.5478 -0.7077  1.1433
 2018TIP3    H227470   1.247   5.438  14.671  1.3860 -0.8732 -0.5612
 2019TIP3   OH227471   2.750   2.549   2.037  0.7872 -0.1913 -0.1204
 2019TIP3    H127472   2.686   2.620   2.030  0.5470 -0.2997  0.7600
 2019TIP3    H227473   2.834   2.594   2.047  0.6480 -0.0155  0.3338
 2020TIP3   OH227474   1.238   3.134   4.925 -0.2372  0.1586 -0.2214
 2020TIP3    H127475   1.262   3.227   4.931  2.9891 -0.6180  0.7124
 2020TIP3    H227476   1.285   3.092   4.997 -2.1087 -2.1739 -0.2261
 2021TIP3   OH227477   2.089   0.778   5.857  0.0835  0.7016 -0.2352
 2021TIP3    H127478   2.006   0.781   5.810 -0.3187  2.9592  0.5288
 2021TIP3    H227479   2.067   0.807   5.946  1.2802 -1.0399  0.6859
 2022TIP3   OH227480   3.158   6.436  12.550  0.2663 -0.2795 -0.3318
 2022TIP3    H127481   3.183   6.469  12.635 -1.1175  2.0358 -0.7436
 2022TIP3    H227482   3.082   6.379  12.567 -0.0348  0.2152 -0.0119
 2023TIP3   OH227483   3.953   1.413  12.562  0.9035 -0.2235  0.4046
 2023TIP3    H127484   3.887   1.442  12.626 -1.2965 -1.4217 -1.1586
 2023TIP3    H227485   3.968   1.489  12.507 -0.4978 -0.3583 -0.2201
 2024TIP3   OH227486   2.136   4.127   5.972 -0.2011  0.3558  0.4522
 2024TIP3    H127487   2.044   4.117   5.948 -0.3680  1.7821  0.3793
 2024TIP3    H227488   2.177   4.165   5.894 -0.1601  2.3573  1.3904
 2025TIP3   OH227489   5.981   0.150  15.123  0.1740  0.0342 -0.1536
 2025TIP3    H127490   5.904   0.202  15.100  0.4099  0.1816 -0.6141
 2025TIP3    H227491   5.956   0.107  15.205 -0.0317  0.8545  0.2300
 2026TIP3   OH227492   5.727   0.317  13.322  0.0423  0.1753  0.0895
 2026TIP3    H127493   5.692   0.330  13.410  0.3859 -1.3881  0.4953
 2026TIP3    H227494   5.675   0.245  13.286  1.5625 -0.9400  0.0172
 2027TIP3   OH227495   6.044   0.458  16.193 -0.2177  0.2671 -0.1629
 2027TIP3    H127496   6.117   0.403  16.165  0.3482 -0.5251  2.5533
 2027TIP3    H227497   6.081   0.546  16.198  0.6376 -0.1495  1.3087
 2028TIP3   OH227498   1.732   2.469  16.977 -0.0096 -0.3852  0.3681
 2028TIP3    H127499   1.768   2.399  17.032 -1.6288 -0.8303  0.9508
 2028TIP3    H227500   1.725   2.430  16.890 -0.6248 -0.8808  0.6262
 2029TIP3   OH227501   1.967   1.156  16.492 -0.2560  0.0430 -0.0429
 2029TIP3    H127502   1.940   1.197  16.410 -1.3480  0.5197  0.5343
 2029TIP3    H227503   1.886   1.144  16.541  0.2877 -0.9456  0.6578
 2030TIP3   OH227504   3.836   6.256  16.476 -0.1831  0.5282 -0.7065
 2030TIP3    H127505   3.913   6.265  16.532 -1.5319  0.5162  1.2393
 2030TIP3    H227506   3.827   6.161  16.463 -0.8252  0.4067  0.5057
 2031TIP3   OH227507   6.627   1.209  14.291 -0.2580 -0.5347 -0.3089
 2031TIP3    H127508   6.629   1.126  14.340  0.8780 -0.2130  0.2290
 2031TIP3    H227509   6.594   1.273  14.354 -0.1902 -0.3982 -0.4108
 2032TIP3   OH227510   6.600   5.523   4.168 -0.1819  0.0606 -0.1000
 2032TIP3    H127511   6.607   5.569   4.252 -0.3680 -0.2822  0.1087
 2032TIP3    H227512   6.541   5.449   4.186  0.2763 -0.3811 -0.3675
 2033TIP3   OH227513   3.313   5.104   1.929 -0.5623  0.0559  0.2172
 2033TIP3    H127514   3.373   5.030   1.925 -1.0573 -0.3535  0.2294
 2033TIP3    H227515   3.227   5.065   1.944 -0.9706  0.5662 -0.6573
 2034TIP3   OH227516   0.017   0.929  11.915  0.5055  0.1551 -0.3363
 2034TIP3    H127517  -0.040   0.900  11.844 -0.8801 -0.6652  1.0439
 2034TIP3    H227518   0.059   0.849  11.946 -0.0003  0.2538  0.6606
 2035TIP3   OH227519   4.497   6.050  10.922  0.5240  0.0569 -0.5874
 2035TIP3    H127520   4.552   5.996  10.866  1.1824 -0.8482  0.8910
 2035TIP3    H227521   4.558   6.105  10.971  0.0815 -0.2346  0.3223
 2036TIP3   OH227522   2.443   4.710  11.598  0.1043  0.9144 -0.0531
 2036TIP3    H127523   2.415   4.792  11.557  0.2933  0.2801 -1.5079
 2036TIP3    H227524   2.362   4.665  11.621 -0.0033  1.6622  1.1316
 2037TIP3   OH227525   4.559   4.021   4.212 -0.0271 -0.1296  0.8830
 2037TIP3    H127526   4.604   4.078   4.274 -1.0544  0.5991  0.9899
 2037TIP3    H227527   4.475   4.001   4.255 -1.2827  1.3828 -0.7681
 2038TIP3   OH227528   3.368   4.504  14.235  0.8676  0.4039  0.0596
 2038TIP3    H127529   3.331   4.420  14.262  0.7049  0.4375 -0.0574
 2038TIP3    H227530   3.425   4.482  14.161  0.3898  0.4683 -0.3324
 2039TIP3   OH227531   2.608   5.058   4.776 -0.1046  0.1958  0.3095
 2039TIP3    H127532   2.541   5.070   4.843 -0.0500  1.3139  0.1917
 2039TIP3    H227533   2.691   5.070   4.823 -0.0595  0.7258  0.1081
 2040TIP3   OH227534   0.959   5.166   5.594  0.0908  0.4383  0.4074
 2040TIP3    H127535   1.043   5.208   5.578 -0.2751  0.9973 -0.0957
 2040TIP3    H227536   0.977   5.100   5.661  0.8529  0.7903  0.5560
 2041TIP3   OH227537   4.519   2.669   4.169  0.1438 -0.1619 -0.2250
 2041TIP3    H127538   4.593   2.640   4.221  0.7963  2.4767  0.4516
 2041TIP3    H227539   4.515   2.607   4.096  3.7585  0.2591 -0.9369
 2042TIP3   OH227540   3.526   1.084   5.325 -0.4794 -0.5445 -0.0241
 2042TIP3    H127541   3.605   1.132   5.300 -0.9987  0.0011 -0.6498
 2042TIP3    H227542   3.524   1.008   5.266 -0.6646 -0.3051 -0.3310
 2043TIP3   OH227543   5.233   2.681  15.709  0.0456  0.3593 -0.3359
 2043TIP3    H127544   5.208   2.752  15.650 -0.7497 -0.1978 -0.6747
 2043TIP3    H227545   5.328   2.671  15.695 -0.3108 -0.6016 -2.4702
 2044TIP3   OH227546   3.596   3.526   5.477 -0.4470  0.9415 -0.4385
 2044TIP3    H127547   3.508   3.489   5.472 -0.0372 -0.2289  0.3917
 2044TIP3    H227548   3.626   3.530   5.387 -0.7354 -0.2452 -0.6077
 2045TIP3   OH227549   3.230   1.459  15.451 -0.3093 -0.2045  0.2827
 2045TIP3    H127550   3.139   1.489  15.445  0.1599  1.4376  0.6475
 2045TIP3    H227551   3.276   1.512  15.386  0.7734  0.7370  1.7641
 2046TIP3   OH227552   2.454   3.723  11.007  0.3092  0.1674  0.1978
 2046TIP3    H127553   2.517   3.698  11.074  0.2689 -0.7264 -0.0798
 2046TIP3    H227554   2.379   3.756  11.056  0.6263  0.3645  0.5597
 2047TIP3   OH227555   5.996   5.526   2.767 -0.2000 -0.8037  0.0422
 2047TIP3    H127556   5.981   5.531   2.673 -1.6235 -1.2423  0.2253
 2047TIP3    H227557   5.966   5.610   2.801  0.2165 -0.6865  0.1309
 2048TIP3   OH227558   5.760   1.923  15.098 -0.4404 -0.4490 -0.2275
 2048TIP3    H127559   5.755   1.902  15.191  1.6073 -1.5697 -0.3186
 2048TIP3    H227560   5.811   1.852  15.060  0.8978  1.2389 -1.7724
 2049TIP3   OH227561   4.062   5.117  14.800  0.1166 -0.5192 -0.4648
 2049TIP3    H127562   4.068   5.210  14.823 -1.1664 -0.9288  1.7655
 2049TIP3    H227563   4.105   5.072  14.872 -3.6292 -1.8546  1.1791
 2050TIP3   OH227564   3.412   4.967  14.721 -0.2618 -0.1613  0.4969
 2050TIP3    H127565   3.365   5.011  14.650 -0.5845 -2.6992 -0.9718
 2050TIP3    H227566   3.350   4.966  14.794 -1.7008 -1.4146 -0.6708
 2051TIP3   OH227567   5.991   5.869   2.395  0.5522 -0.1108 -0.3757
 2051TIP3    H127568   5.963   5.884   2.485 -0.6008 -1.1876 -0.5327
 2051TIP3    H227569   6.075   5.823   2.404 -0.0529 -1.1491  0.1805
 2052TIP3   OH227570   6.040   0.052   4.221  0.1187 -0.7436  0.2988
 2052TIP3    H127571   5.977   0.108   4.265 -0.1712  0.2153 -1.2714
 2052TIP3    H227572   6.116   0.108   4.206  0.9282 -1.5580  1.1014
 2053TIP3   OH227573   3.694   3.552   5.215 -0.0251 -0.5872 -0.0366
 2053TIP3    H127574   3.697   3.525   5.123  1.0519 -2.2048  0.4330
 2053TIP3    H227575   3.724   3.643   5.214  2.6702 -1.4098 -1.0238
 2054TIP3   OH227576   4.559   5.127  15.905  0.1254 -0.2621  0.1397
 2054TIP3    H127577   4.549   5.107  15.998 -1.8976 -0.5785 -0.1018
 2054TIP3    H227578   4.582   5.044  15.864  1.3400 -0.0583  0.3700
 2055TIP3   OH227579   5.393   4.561   2.507 -0.0953 -0.2601  0.1510
 2055TIP3    H127580   5.327   4.523   2.449 -0.6598  0.9924 -0.0621
 2055TIP3    H227581   5.360   4.543   2.595 -1.1320  1.0041  0.0452
 2056TIP3   OH227582   5.153   5.283  11.637  0.3841  0.0247 -0.6504
 2056TIP3    H127583   5.146   5.233  11.718 -1.2508  0.0488 -0.7367
 2056TIP3    H227584   5.241   5.319  11.638  0.7755 -0.9048  0.5579
 2057TIP3   OH227585   4.387   1.702   0.675 -0.0979 -0.3095 -0.9144
 2057TIP3    H127586   4.466   1.653   0.695 -0.8315 -1.9704 -1.9112
 2057TIP3    H227587   4.404   1.790   0.710  1.1631 -1.2957  1.1316
 2058TIP3   OH227588   1.532   3.442   2.721  0.1866  0.0199 -0.1513
 2058TIP3    H127589   1.501   3.518   2.672 -0.7428 -0.6600 -0.6459
 2058TIP3    H227590   1.600   3.404   2.666  0.9840  0.7323  0.3083
 2059TIP3   OH227591   5.346   2.059   1.230  0.6986 -0.0426 -0.6554
 2059TIP3    H127592   5.394   2.047   1.148  1.4855  1.0443 -0.3734
 2059TIP3    H227593   5.340   2.153   1.241 -0.0850 -0.1720  0.1568
 2060TIP3   OH227594   5.879   0.272   0.632 -0.4784 -0.1308  0.0185
 2060TIP3    H127595   5.923   0.272   0.547  2.7943  0.3038  1.5981
 2060TIP3    H227596   5.834   0.356   0.635 -1.2724 -0.4555 -1.5193
 2061TIP3   OH227597   2.577   5.738  13.228 -0.0700  0.3662 -0.1330
 2061TIP3    H127598   2.549   5.753  13.137 -1.7009  0.1299  0.3053
 2061TIP3    H227599   2.530   5.659  13.255  0.7963  0.1427  0.7622
 2062TIP3   OH227600   1.182   0.125  16.065 -0.5635  0.1082  0.2813
 2062TIP3    H127601   1.087   0.115  16.068 -0.5605 -0.7313 -1.3318
 2062TIP3    H227602   1.215   0.036  16.056  0.3682  0.4152  0.5777
 2063TIP3   OH227603   3.362   4.143   3.491  0.0562 -0.1627 -0.4336
 2063TIP3    H127604   3.418   4.101   3.556 -0.1405  2.2004  1.4110
 2063TIP3    H227605   3.284   4.088   3.487 -0.1938 -0.0509  1.8344
 2064TIP3   OH227606   6.662   4.823   5.442  0.2906  0.4842  0.0593
 2064TIP3    H127607   6.754   4.811   5.467 -0.3371 -1.6826  1.7162
 2064TIP3    H227608   6.644   4.751   5.381 -0.9732 -1.0379  2.0645
 2065TIP3   OH227609   4.782   6.686   5.572  0.0157 -0.3498  0.2371
 2065TIP3    H127610   4.716   6.642   5.626 -0.2368 -1.4551 -0.9290
 2065TIP3    H227611   4.863   6.680   5.622 -0.0394 -2.0640  0.1656
 2066TIP3   OH227612   2.066   1.801   3.755 -0.3113 -0.1598  0.1382
 2066TIP3    H127613   2.113   1.863   3.810 -0.3643  0.6583 -0.7160
 2066TIP3    H227614   1.987   1.847   3.727 -0.8970 -0.9967  0.3513
 2067TIP3   OH227615   0.479   4.319   2.001 -0.1244  0.3400  0.0624
 2067TIP3    H127616   0.505   4.398   2.049  1.6093 -0.7383  1.0013
 2067TIP3    H227617   0.459   4.255   2.070 -0.7142 -0.2948 -0.6839
 2068TIP3   OH227618   5.005   5.585   0.884 -0.0238  0.0304 -0.2943
 2068TIP3    H127619   5.065   5.524   0.927  1.6365  1.9467  0.2726
 2068TIP3    H227620   5.035   5.671   0.911 -1.1246  1.1972 -2.5191
 2069TIP3   OH227621   0.135   6.630   3.976  0.0151 -0.1788 -0.2550
 2069TIP3    H127622   0.082   6.612   3.898 -1.0975 -0.9434  0.6403
 2069TIP3    H227623   0.086   6.696   4.024  1.1998  1.0320 -0.6663
 2070TIP3   OH227624   2.656   4.962  11.524 -0.1318  0.0088 -0.5273
 2070TIP3    H127625   2.653   5.050  11.562 -1.0832  0.8713 -2.4227
 2070TIP3    H227626   2.572   4.923  11.546  0.4068 -0.5516  0.5610
 2071TIP3   OH227627   1.177   6.801  12.830  0.5236  0.1048 -0.3414
 2071TIP3    H127628   1.180   6.887  12.787  0.7954 -0.5858 -1.7588
 2071TIP3    H227629   1.183   6.821  12.923  3.3465  1.5273 -0.6963
 2072TIP3   OH227630   4.638   0.776  12.397 -0.1478  0.3389 -0.4069
 2072TIP3    H127631   4.695   0.838  12.442  1.5354 -0.4965 -1.2872
 2072TIP3    H227632   4.623   0.706  12.460  0.6569  0.0713 -0.5084
 2073TIP3   OH227633   4.398   0.236  13.323 -0.3774  0.4133  0.4427
 2073TIP3    H127634   4.328   0.253  13.260  0.4851 -0.7051 -0.8903
 2073TIP3    H227635   4.376   0.151  13.361 -0.9345  1.1133  1.7717
 2074TIP3   OH227636   0.071   6.812   5.214 -0.2728 -0.2936 -0.1002
 2074TIP3    H127637   0.114   6.898   5.220 -0.1215 -0.4213  0.7165
 2074TIP3    H227638   0.137   6.755   5.176  0.0033 -0.3018  0.3914
 2075TIP3   OH227639   3.590   5.782  13.870  0.0432  0.2476  0.1593
 2075TIP3    H127640   3.569   5.728  13.794  0.4550  0.7331 -0.3114
 2075TIP3    H227641   3.680   5.758  13.893  0.9518  2.0062 -1.2210
 2076TIP3   OH227642   4.203   1.734   4.583  0.5033  0.3846  0.3118
 2076TIP3    H127643   4.274   1.686   4.627  1.9974  0.3101 -2.0213
 2076TIP3    H227644   4.241   1.819   4.561 -1.5345  2.0815  2.7286
 2077TIP3   OH227645   1.086   2.463   4.071 -0.1584 -0.0773  0.0437
 2077TIP3    H127646   1.164   2.517   4.054  1.2844 -1.5856  1.4214
 2077TIP3    H227647   1.086   2.399   4.000  0.2780 -0.4970  0.4157
 2078TIP3   OH227648   0.119   3.254  16.817  0.4237  0.3130  0.2781
 2078TIP3    H127649   0.104   3.322  16.752 -1.2348 -2.0742 -2.0086
 2078TIP3    H227650   0.203   3.214  16.792  0.1418 -0.1339  0.0356
 2079TIP3   OH227651   4.991   3.069  11.571 -0.1399 -0.6214  0.2132
 2079TIP3    H127652   5.035   3.154  11.570  2.0329 -1.6508  0.8303
 2079TIP3    H227653   5.060   3.007  11.547 -1.7928 -2.1805 -0.7563
 2080TIP3   OH227654   1.936   1.432   1.875  0.2452 -0.6926 -0.1027
 2080TIP3    H127655   1.865   1.406   1.816 -0.7923 -0.8596  1.1743
 2080TIP3    H227656   1.929   1.527   1.880 -1.7962 -0.8652  2.2213
 2081TIP3   OH227657   1.926   5.466   1.407 -0.2004  0.4832 -0.2408
 2081TIP3    H127658   1.951   5.442   1.318 -0.5720  2.3148 -0.8930
 2081TIP3    H227659   1.839   5.505   1.398 -0.2871  0.5902  0.9312
 2082TIP3   OH227660   6.394   5.133   3.865  0.4440  0.1313  0.4279
 2082TIP3    H127661   6.476   5.178   3.884  0.1572  1.6685 -1.6512
 2082TIP3    H227662   6.377   5.080   3.943  2.9095  0.4817  1.2877
 2083TIP3   OH227663   1.288   2.052  13.694 -0.1778 -0.3229  0.0946
 2083TIP3    H127664   1.316   2.034  13.605 -2.0718  0.1538 -0.6507
 2083TIP3    H227665   1.320   1.977  13.745 -1.3383 -2.0213 -1.5008
 2084TIP3   OH227666   2.111   2.648   1.999 -0.3686 -0.0340 -0.4698
 2084TIP3    H127667   2.092   2.688   1.913 -1.5832 -0.3029 -0.3492
 2084TIP3    H227668   2.106   2.554   1.983  0.7838 -0.1286 -0.3813
 2085TIP3   OH227669   1.321   5.525  11.530 -0.4086 -0.1645 -1.2122
 2085TIP3    H127670   1.252   5.580  11.569  1.1881  1.1267 -0.0235
 2085TIP3    H227671   1.314   5.442  11.577  1.1985  1.2107  1.8201
 2086TIP3   OH227672   6.534   6.073  16.828  0.5116 -0.3077 -0.2316
 2086TIP3    H127673   6.494   6.150  16.870  2.1392  0.0278  0.7805
 2086TIP3    H227674   6.570   6.107  16.746  2.0370  0.2708  0.6334
 2087TIP3   OH227675   6.519   2.602   3.152  1.3003 -0.4886  0.5601
 2087TIP3    H127676   6.539   2.608   3.246  0.8165 -0.1362  0.6484
 2087TIP3    H227677   6.426   2.576   3.150  1.5345 -1.3216  0.1743
 2088TIP3   OH227678   4.909   5.854   0.052 -0.1429  0.0901  0.4018
 2088TIP3    H127679   5.003   5.837   0.052 -0.0902  0.3172 -0.7027
 2088TIP3    H227680   4.894   5.909  -0.025 -0.8238  2.0636  1.8347
 2089TIP3   OH227681   4.626   4.766  16.957  0.4535  0.1707 -0.0417
 2089TIP3    H127682   4.646   4.677  16.984  2.1049  0.1454 -1.1783
 2089TIP3    H227683   4.551   4.757  16.898  0.2934 -0.4054  0.2472
 2090TIP3   OH227684   5.287   5.044  16.487  0.0179 -0.3614  0.0569
 2090TIP3    H127685   5.368   5.020  16.443  0.1181  0.0253  0.0247
 2090TIP3    H227686   5.230   5.078  16.418  0.0896  0.0278  0.1840
 2091TIP3   OH227687   3.461   6.616   0.777  1.2696 -0.1483 -0.2813
 2091TIP3    H127688   3.540   6.576   0.740  0.4718  0.2696 -2.5736
 2091TIP3    H227689   3.415   6.543   0.818  2.1989 -0.6366 -0.0634
 2092TIP3   OH227690   2.513   6.390  15.234  0.4193  0.1449 -0.1802
 2092TIP3    H127691   2.606   6.368  15.239  0.4902  0.4294 -0.2444
 2092TIP3    H227692   2.468   6.309  15.259  0.7095  0.3572  1.0876
 2093TIP3   OH227693   3.320   4.854  13.915  0.3231 -0.5257  0.4989
 2093TIP3    H127694   3.291   4.763  13.920  0.9781 -0.8596 -0.9968
 2093TIP3    H227695   3.278   4.888  13.836  0.2310  0.4182  0.9432
 2094TIP3   OH227696   5.035   4.496   0.891  0.1664  0.3134  0.0536
 2094TIP3    H127697   5.122   4.463   0.868  0.3492  0.1112  0.9667
 2094TIP3    H227698   5.000   4.431   0.952 -0.8248  0.1580 -0.6563
 2095TIP3   OH227699   1.573   5.029   3.766 -0.0511 -0.4390 -0.0232
 2095TIP3    H127700   1.590   4.938   3.787  0.6676  0.1016  1.8943
 2095TIP3    H227701   1.499   5.053   3.821  0.6232  0.4845  0.5116
 2096TIP3   OH227702   3.666   4.030  12.473 -0.4073  0.3268  0.2426
 2096TIP3    H127703   3.681   3.965  12.542  0.7120  0.3586  0.0388
 2096TIP3    H227704   3.606   4.093  12.512 -0.0409  0.1711  1.0798
 2097TIP3   OH227705   2.318   5.449   3.847  0.2654  0.8580  0.5682
 2097TIP3    H127706   2.262   5.472   3.773  0.9087  2.6676  0.5794
 2097TIP3    H227707   2.322   5.530   3.899  0.6361 -0.0757  2.0475
 2098TIP3   OH227708   5.723   0.282   6.216 -0.1172 -0.0917  1.2607
 2098TIP3    H127709   5.698   0.203   6.263  0.7127  0.1724  2.1726
 2098TIP3    H227710   5.799   0.315   6.263  1.3689 -0.3329 -0.8005
 2099TIP3   OH227711   1.200   4.523   2.344 -0.1482  0.1135 -0.2194
 2099TIP3    H127712   1.160   4.580   2.278 -0.8712 -0.4264 -0.2585
 2099TIP3    H227713   1.126   4.483   2.390  0.3442 -0.5174  0.0496
 2100TIP3   OH227714   0.701   6.223  13.266  0.1129 -0.0307  0.2852
 2100TIP3    H127715   0.649   6.143  13.278  1.3695 -0.9766 -0.3276
 2100TIP3    H227716   0.636   6.292  13.257 -1.0270 -1.0472  0.3174
 2101TIP3   OH227717   5.324   0.184   3.971 -0.2268 -0.1729  0.1548
 2101TIP3    H127718   5.237   0.173   3.934 -0.3552 -0.3499  0.5035
 2101TIP3    H227719   5.384   0.158   3.901 -0.4796 -1.0575  0.2554
 2102TIP3   OH227720   1.646   3.131   0.136 -0.3587 -0.0212  0.2832
 2102TIP3    H127721   1.641   3.219   0.174 -1.0743  0.0249  0.0994
 2102TIP3    H227722   1.725   3.133   0.083  1.3740 -0.4843  2.7071
 2103TIP3   OH227723   4.954   1.254   5.283 -1.1473 -0.1286  0.0873
 2103TIP3    H127724   4.884   1.190   5.293 -0.8419 -0.4523  0.1637
 2103TIP3    H227725   5.027   1.218   5.333 -0.9900  0.3047  0.1748
 2104TIP3   OH227726   1.290   0.879   0.619  0.6847  0.4535  0.6595
 2104TIP3    H127727   1.363   0.823   0.593 -0.0821 -0.6952  0.9464
 2104TIP3    H227728   1.313   0.907   0.708  0.1353 -1.0367  1.2919
 2105TIP3   OH227729   2.909   5.381  10.341 -0.0580 -0.7712  0.0143
 2105TIP3    H127730   2.988   5.380  10.395  0.0097 -0.1986 -0.0632
 2105TIP3    H227731   2.874   5.469  10.352 -1.3590 -1.3871  0.9935
 2106TIP3   OH227732   5.126   6.298   1.458  0.5407 -0.6440  0.0569
 2106TIP3    H127733   5.179   6.358   1.404  2.4136 -2.6690 -0.4879
 2106TIP3    H227734   5.061   6.263   1.397  1.5238 -1.5916 -0.4673
 2107TIP3   OH227735   3.921   2.906  16.779  0.3504 -0.1957 -0.4295
 2107TIP3    H127736   4.010   2.940  16.785 -0.2070  1.2686 -0.0480
 2107TIP3    H227737   3.904   2.868  16.865  0.5241 -0.2879 -0.4351
 2108TIP3   OH227738   3.138   3.500   1.674 -0.7415 -0.1746 -0.7142
 2108TIP3    H127739   3.160   3.423   1.622  0.8780 -1.3504  1.5530
 2108TIP3    H227740   3.223   3.539   1.695 -1.3696  0.4778  0.6971
 2109TIP3   OH227741   3.049   4.218   0.550 -0.3903  0.2095 -0.1893
 2109TIP3    H127742   3.003   4.284   0.602 -0.5634  2.0951 -2.5067
 2109TIP3    H227743   2.979   4.165   0.511 -0.6208  1.7474 -2.0441
 2110TIP3   OH227744   0.980   3.321   2.301  0.4355  0.4548  0.1847
 2110TIP3    H127745   1.000   3.376   2.376  0.1093  2.4958 -1.1485
 2110TIP3    H227746   0.932   3.246   2.337  0.8051  1.0843  2.0433
 2111TIP3   OH227747   0.211   6.058  15.092 -0.0194 -0.3967 -0.0560
 2111TIP3    H127748   0.140   6.120  15.109  0.6790  0.9266 -1.6901
 2111TIP3    H227749   0.166   5.976  15.069 -1.2061  0.9645 -3.2304
 2112TIP3   OH227750   2.941   1.199  12.863 -0.4395  0.1356 -0.7714
 2112TIP3    H127751   2.864   1.229  12.815 -0.9007 -1.6175 -1.1958
 2112TIP3    H227752   2.918   1.210  12.955 -1.1391 -0.2095 -0.8971
 2113TIP3   OH227753   2.742   0.387  14.888 -0.2212 -0.0087 -0.6163
 2113TIP3    H127754   2.704   0.356  14.971 -1.1956 -0.1059 -1.0779
 2113TIP3    H227755   2.757   0.480  14.902 -1.8140  0.3149 -0.8100
 2114TIP3   OH227756   5.286   3.096  12.263  0.3822 -0.5200  0.0142
 2114TIP3    H127757   5.246   3.168  12.312 -0.4493  0.5964 -2.1938
 2114TIP3    H227758   5.235   3.019  12.288 -1.0578  0.3071 -0.2563
 2115TIP3   OH227759   0.423   6.072  15.926 -0.5603 -0.2938 -0.1136
 2115TIP3    H127760   0.494   6.124  15.889  1.4232 -1.5840  1.6736
 2115TIP3    H227761   0.364   6.136  15.966  1.0420  0.7127  0.7382
 2116TIP3   OH227762   3.773   1.538  16.550  0.1689  0.2112  0.2201
 2116TIP3    H127763   3.754   1.529  16.644 -0.1311 -2.4960 -0.0230
 2116TIP3    H227764   3.705   1.598  16.519 -1.3267 -0.8098  1.3261
 2117TIP3   OH227765   6.580   0.517   5.059 -0.6306  0.4215 -0.0918
 2117TIP3    H127766   6.651   0.579   5.042 -0.5413  0.0029 -1.3289
 2117TIP3    H227767   6.611   0.464   5.132 -0.1393  0.9469  0.0906
 2118TIP3   OH227768   5.144   4.877   4.897 -0.1802 -0.1161  0.1113
 2118TIP3    H127769   5.065   4.922   4.928 -0.5067 -0.3811 -0.3265
 2118TIP3    H227770   5.189   4.849   4.977  0.2710  1.3690  0.4249
 2119TIP3   OH227771   3.693   0.757  15.859 -0.2527 -0.6554  0.0112
 2119TIP3    H127772   3.776   0.709  15.862 -0.3023 -0.8954 -1.4639
 2119TIP3    H227773   3.714   0.844  15.893  0.8239 -0.4514 -1.1048
 2120TIP3   OH227774   5.047   6.817   5.871  0.0053  0.2170 -0.3910
 2120TIP3    H127775   4.972   6.759   5.858  1.0838 -1.5170  0.7991
 2120TIP3    H227776   5.008   6.900   5.900 -1.4106 -1.0362  1.5106
 2121TIP3   OH227777   3.817   5.735   0.586 -1.2631 -0.4273 -0.1867
 2121TIP3    H127778   3.742   5.740   0.646 -0.6328 -0.4908  0.6292
 2121TIP3    H227779   3.778   5.735   0.499 -2.2023 -0.2468  0.2185
 2122TIP3   OH227780   2.489   6.332   1.675 -0.1081  0.1582 -0.6549
 2122TIP3    H127781   2.506   6.416   1.634 -1.1856  0.1038 -1.2568
 2122TIP3    H227782   2.494   6.350   1.769 -1.1584  1.1093 -0.7506
 2123TIP3   OH227783   3.806   4.462   3.237  0.2044 -0.1969 -0.5055
 2123TIP3    H127784   3.793   4.550   3.274  2.4662 -0.3582  0.9308
 2123TIP3    H227785   3.758   4.404   3.296  2.9287 -0.3357  1.8462
 2124TIP3   OH227786   3.264   0.993   3.635 -0.2375  0.2774  0.0221
 2124TIP3    H127787   3.254   0.898   3.633 -0.5462  0.2499  1.6939
 2124TIP3    H227788   3.181   1.026   3.599 -1.2198 -0.0875  1.8462
 2125TIP3   OH227789   2.021   3.955   4.873 -0.4763  0.0575 -0.5407
 2125TIP3    H127790   2.029   4.050   4.862  1.5686  0.3282  2.3529
 2125TIP3    H227791   1.998   3.943   4.965 -1.3732 -2.2738 -1.0101
 2126TIP3   OH227792   1.024   4.160   5.760  0.3021  0.0325  0.4605
 2126TIP3    H127793   0.981   4.224   5.816  1.4495 -1.1177  2.7841
 2126TIP3    H227794   1.045   4.087   5.818  1.3171 -1.3717 -1.5479
 2127TIP3   OH227795   3.551   2.935  16.346 -0.5778 -0.1759  0.3454
 2127TIP3    H127796   3.590   2.956  16.431  0.1867  0.8103 -0.2150
 2127TIP3    H227797   3.462   2.907  16.367 -0.9390  1.5387  1.3862
 2128TIP3   OH227798   6.035   4.283  13.829  0.1398 -0.9008  1.0253
 2128TIP3    H127799   6.071   4.369  13.850  0.7002 -0.5640 -1.1423
 2128TIP3    H227800   6.109   4.233  13.797 -0.6818 -1.2722 -0.3743
 2129TIP3   OH227801   6.782   6.049   1.667  0.6328 -0.4540  0.0146
 2129TIP3    H127802   6.785   6.058   1.763 -2.2541  0.2146  0.1296
 2129TIP3    H227803   6.753   6.135   1.636  1.3448 -0.7281 -1.4712
 2130TIP3   OH227804   6.748   3.306   4.259 -0.1238  0.3039 -0.2197
 2130TIP3    H127805   6.828   3.331   4.305  0.7560 -0.2179 -1.4025
 2130TIP3    H227806   6.729   3.380   4.201  0.3345 -0.1415 -0.9661
 2131TIP3   OH227807   6.408   2.558  16.932  0.1462  0.2955  0.0171
 2131TIP3    H127808   6.489   2.602  16.959  0.7241  1.3310 -2.9976
 2131TIP3    H227809   6.434   2.507  16.855 -2.0871  0.8220 -1.1591
 2132TIP3   OH227810   5.213   0.671   5.875 -0.0002  0.8517 -0.0984
 2132TIP3    H127811   5.190   0.581   5.854  0.7933  0.6431 -0.0855
 2132TIP3    H227812   5.137   0.722   5.848 -0.6205  0.1405  0.2499
 2133TIP3   OH227813   1.948   6.526  11.698  0.4534  0.3611 -0.8401
 2133TIP3    H127814   1.896   6.462  11.748 -1.1304  1.1102 -1.4547
 2133TIP3    H227815   1.924   6.510  11.607  0.7902  1.1843 -1.0830
 2134TIP3   OH227816   3.513   4.720   4.489  0.1994  0.6077 -0.3237
 2134TIP3    H127817   3.503   4.643   4.434 -1.2861  0.8627 -0.4617
 2134TIP3    H227818   3.428   4.764   4.485  0.1237  0.7955  1.9299
 2135TIP3   OH227819   2.360   4.650  13.414 -0.4107 -0.0262  0.0020
 2135TIP3    H127820   2.414   4.674  13.339  0.0944 -0.6346  0.1636
 2135TIP3    H227821   2.293   4.591  13.377 -0.4145  0.0064 -0.0423
 2136TIP3   OH227822   4.867   4.066   0.478  1.1851 -0.1250 -0.3139
 2136TIP3    H127823   4.784   4.113   0.470  1.4657  0.1070 -2.2881
 2136TIP3    H227824   4.934   4.130   0.454  1.7642 -0.8735 -0.7467
 2137TIP3   OH227825   5.053   1.840   0.656 -0.2515 -0.2960  0.0830
 2137TIP3    H127826   5.138   1.798   0.643 -0.1984  0.3554 -2.0770
 2137TIP3    H227827   5.068   1.932   0.636 -1.1063  0.1532  1.3916
 2138TIP3   OH227828   3.737   5.688   2.010 -0.1714 -0.0576 -0.2396
 2138TIP3    H127829   3.769   5.687   1.920 -0.4774 -1.7030 -0.3673
 2138TIP3    H227830   3.680   5.612   2.016 -0.1908  0.0384  1.3414
 2139TIP3   OH227831   2.603   2.689  15.355 -0.4384 -0.0877  0.1825
 2139TIP3    H127832   2.684   2.639  15.368  0.5029  1.9152  2.7187
 2139TIP3    H227833   2.631   2.780  15.351 -2.4654  0.5702 -0.4397
 2140TIP3   OH227834   6.219   4.277  10.705 -0.0785 -0.2293  0.1168
 2140TIP3    H127835   6.216   4.230  10.621 -2.4482  1.3392 -0.8143
 2140TIP3    H227836   6.134   4.258  10.746 -0.3585  1.6750  0.5355
 2141TIP3   OH227837   2.593   4.334   5.940  0.0929  0.0372  0.2674
 2141TIP3    H127838   2.560   4.411   5.895 -1.5402 -1.7314 -1.7596
 2141TIP3    H227839   2.526   4.313   6.005 -0.5575 -0.8846 -0.6754
 2142TIP3   OH227840   0.199   0.320  13.955 -0.1339  0.5944  0.3152
 2142TIP3    H127841   0.293   0.327  13.934  0.2933  0.2238  1.9871
 2142TIP3    H227842   0.162   0.403  13.926  0.6327  0.6135 -0.6862
 2143TIP3   OH227843   1.440   3.804   4.018 -0.4213 -0.5336 -0.2180
 2143TIP3    H127844   1.403   3.847   4.094 -1.8045  1.9240 -2.1143
 2143TIP3    H227845   1.385   3.727   4.004  0.1643 -1.2934  1.4840
 2144TIP3   OH227846   5.421   5.749   5.157 -0.0125  0.9571  0.3731
 2144TIP3    H127847   5.326   5.741   5.143 -0.0785  2.2907 -0.1569
 2144TIP3    H227848   5.439   5.841   5.137  1.4933  0.5713 -0.1345
 2145TIP3   OH227849   4.622   1.364   5.453  0.2659  0.6334 -0.4369
 2145TIP3    H127850   4.548   1.348   5.511  2.1725 -0.2060  1.9410
 2145TIP3    H227851   4.648   1.278   5.422  1.1528  0.7253  0.0035
 2146TIP3   OH227852   6.615   4.311  14.060 -0.1876  0.4002  0.3423
 2146TIP3    H127853   6.653   4.278  13.979 -1.4444 -0.1077 -0.0673
 2146TIP3    H227854   6.566   4.389  14.034 -2.7458 -1.1811  0.0815
 2147TIP3   OH227855   1.131   2.902  15.488  0.8139  1.0654 -0.2660
 2147TIP3    H127856   1.038   2.880  15.495  0.9187  0.1770 -1.3727
 2147TIP3    H227857   1.162   2.904  15.578 -0.1140  0.5877  0.0758
 2148TIP3   OH227858   1.421   4.662   1.248  0.0503  0.4717  0.6169
 2148TIP3    H127859   1.511   4.679   1.220  0.0518  1.8227  1.3526
 2148TIP3    H227860   1.402   4.574   1.215  1.6948  0.0790  0.6299
 2149TIP3   OH227861   2.733   5.185  12.723 -0.1911 -0.8545 -0.8404
 2149TIP3    H127862   2.762   5.160  12.811 -1.4811  2.0319  0.5248
 2149TIP3    H227863   2.812   5.216  12.679 -0.3083  3.5913  1.6093
 2150TIP3   OH227864   1.943   2.633  12.746  0.3363  0.0105  0.1699
 2150TIP3    H127865   1.958   2.719  12.707 -0.6933  0.8246  1.4852
 2150TIP3    H227866   1.907   2.581  12.675  0.2962  0.8766 -0.4643
 2151TIP3   OH227867   6.025   6.243   1.852 -0.5126  0.0452 -0.2520
 2151TIP3    H127868   6.103   6.291   1.824 -0.5444 -0.0553 -0.5148
 2151TIP3    H227869   6.028   6.246   1.948  0.0487 -0.3258 -0.2494
 2152TIP3   OH227870   4.241   4.699   1.217  0.1698 -0.1779 -0.2065
 2152TIP3    H127871   4.302   4.760   1.175  0.8337 -1.0840 -0.5774
 2152TIP3    H227872   4.283   4.614   1.210  0.4035 -0.3600  2.5038
 2153TIP3   OH227873   5.267   0.527   3.390  0.6020  0.1623 -0.4388
 2153TIP3    H127874   5.283   0.440   3.354  0.0390 -0.2436  0.2597
 2153TIP3    H227875   5.311   0.525   3.475 -3.7800 -1.4244  2.1447
 2154TIP3   OH227876   5.597   4.651  12.938  0.3015 -0.2222 -0.1069
 2154TIP3    H127877   5.690   4.649  12.916  0.2720  0.0847 -0.2674
 2154TIP3    H227878   5.578   4.744  12.950 -0.0656 -0.2567 -0.4184
 2155TIP3   OH227879   2.284   5.427   2.758 -0.3186  0.2097  0.6331
 2155TIP3    H127880   2.283   5.446   2.852  2.4433  0.3583  0.7050
 2155TIP3    H227881   2.209   5.476   2.723 -0.3421  1.6274  2.5008
 2156TIP3   OH227882   1.928   4.734  12.733  0.5780  0.4733 -0.0117
 2156TIP3    H127883   1.975   4.811  12.765  0.0792  1.7729 -2.2430
 2156TIP3    H227884   1.852   4.770  12.686 -1.0285 -1.4753  0.9459
 2157TIP3   OH227885   5.589   6.806  16.135  0.5533 -0.3474  0.5020
 2157TIP3    H127886   5.519   6.869  16.118 -0.6024 -1.5252  0.6593
 2157TIP3    H227887   5.659   6.857  16.175 -0.7937  0.6421  1.6876
 2158TIP3   OH227888   4.458   6.543  11.927 -0.1885 -0.2557  0.9740
 2158TIP3    H127889   4.516   6.587  11.865 -0.3261  0.3399  1.2622
 2158TIP3    H227890   4.388   6.606  11.944 -1.4444 -1.2837 -0.0654
 2159TIP3   OH227891   2.091   1.984  12.036  0.2977 -0.3227 -0.2629
 2159TIP3    H127892   2.057   2.061  12.083  1.0187 -0.3836  0.3823
 2159TIP3    H227893   2.160   2.018  11.980  1.0064 -0.5649  0.4452
 2160TIP3   OH227894   1.738   2.793  10.984  0.3536  0.4473 -0.4492
 2160TIP3    H127895   1.809   2.766  11.043  1.2461  1.2697 -1.1182
 2160TIP3    H227896   1.762   2.755  10.899  0.0935  0.8758 -0.7201
 2161TIP3   OH227897   3.585   5.254  11.562 -0.0032  0.0227 -0.3606
 2161TIP3    H127898   3.509   5.270  11.618 -0.4880  0.0143 -1.0162
 2161TIP3    H227899   3.660   5.266  11.621 -0.5316 -1.8992  0.7749
 2162TIP3   OH227900   6.494   2.967   3.192 -0.2082  0.2530  0.0126
 2162TIP3    H127901   6.576   2.924   3.168 -0.4716  0.7327 -1.8853
 2162TIP3    H227902   6.443   2.969   3.110 -1.4553  1.4135  0.7789
 2163TIP3   OH227903   2.149   4.093  13.096  0.4740 -0.3523 -0.1315
 2163TIP3    H127904   2.207   4.167  13.079  1.6879 -1.1747  0.3956
 2163TIP3    H227905   2.206   4.024  13.128 -0.5746 -1.6739 -1.0031
 2164TIP3   OH227906   4.677   3.361  15.704 -0.4576  0.3209  0.7916
 2164TIP3    H127907   4.713   3.331  15.621  0.7653  0.1147  1.3683
 2164TIP3    H227908   4.592   3.318  15.710  0.0698 -0.8489  0.3182
 2165TIP3   OH227909   0.168   2.258   4.713 -0.0099 -0.3935  0.3682
 2165TIP3    H127910   0.113   2.190   4.674 -0.4915  0.7406 -1.0241
 2165TIP3    H227911   0.169   2.238   4.806 -1.1907 -1.5604  0.1551
 2166TIP3   OH227912   6.369   6.753   5.801  0.1489  0.3736 -0.0232
 2166TIP3    H127913   6.357   6.658   5.810 -0.9220  0.5391  0.4345
 2166TIP3    H227914   6.361   6.786   5.891  0.9588  0.8597 -0.1236
 2167TIP3   OH227915   5.286   6.577  16.285  0.4267  0.6003 -0.7153
 2167TIP3    H127916   5.297   6.593  16.379 -0.1730  0.3826 -0.6061
 2167TIP3    H227917   5.365   6.530  16.260 -1.1029 -2.9845  0.5343
 2168TIP3   OH227918   1.545   4.943   4.913  0.3779 -0.5164 -0.0300
 2168TIP3    H127919   1.507   4.883   4.849 -0.0770 -2.2978  1.8277
 2168TIP3    H227920   1.504   4.920   4.996  0.7110  1.9302  0.9186
 2169TIP3   OH227921   1.284   0.230  10.469  0.3953  0.3226 -0.9391
 2169TIP3    H127922   1.228   0.252  10.543  1.3080 -2.2198  0.6408
 2169TIP3    H227923   1.231   0.250  10.392 -1.9364 -0.1552  0.4627
 2170TIP3   OH227924   4.798   1.608   2.437 -0.1211 -0.5718 -0.7412
 2170TIP3    H127925   4.860   1.538   2.421 -0.2381 -0.4359 -1.8681
 2170TIP3    H227926   4.722   1.586   2.384  0.2363  0.9122 -1.9359
 2171TIP3   OH227927   2.024   0.387   1.081 -0.0267  0.1376  0.6249
 2171TIP3    H127928   2.065   0.342   1.007 -0.3001 -0.9127  1.0924
 2171TIP3    H227929   2.067   0.473   1.084 -0.0419  0.2182 -0.7672
 2172TIP3   OH227930   0.474   5.534   3.350 -0.0174  0.2527 -0.5605
 2172TIP3    H127931   0.439   5.561   3.265 -1.1256  0.0851 -0.1665
 2172TIP3    H227932   0.406   5.559   3.413  1.5459  2.0691  0.5255
 2173TIP3   OH227933   5.522   2.209  15.573 -0.1701  0.0674 -0.0113
 2173TIP3    H127934   5.551   2.144  15.637 -1.7710 -0.1080  0.5941
 2173TIP3    H227935   5.506   2.160  15.493  1.1761  0.1741 -0.3659
 2174TIP3   OH227936   4.600   3.081  13.929 -0.3649  0.2188  0.0253
 2174TIP3    H127937   4.603   3.174  13.951 -0.6813  0.0372  0.9192
 2174TIP3    H227938   4.604   3.078  13.834  0.3264  1.1114  0.0118
 2175TIP3   OH227939   5.317   2.346  15.874 -0.4053 -0.3361 -0.0878
 2175TIP3    H127940   5.283   2.279  15.932 -0.5932 -0.6886 -0.5986
 2175TIP3    H227941   5.279   2.428  15.907 -1.3536 -0.6606 -0.3450
 2176TIP3   OH227942   0.303   6.538  13.642 -0.0717  0.2819  0.1459
 2176TIP3    H127943   0.367   6.601  13.673 -0.7312 -0.1515  2.7072
 2176TIP3    H227944   0.354   6.462  13.615  0.5851  0.7572  0.0498
 2177TIP3   OH227945   3.809   6.541  14.047 -0.3736 -0.2128  0.2499
 2177TIP3    H127946   3.754   6.530  14.125  0.0933  1.4531  0.8785
 2177TIP3    H227947   3.781   6.472  13.987 -1.5772 -0.7956  1.4282
 2178TIP3   OH227948   2.254   4.387  16.891 -0.3893 -1.0615 -0.1100
 2178TIP3    H127949   2.209   4.471  16.901  0.8302 -0.4477  0.4113
 2178TIP3    H227950   2.274   4.381  16.798 -1.9831 -1.6050 -0.4581
 2179TIP3   OH227951   0.123   6.022  16.154  0.1454 -0.0189  0.0071
 2179TIP3    H127952   0.109   6.108  16.194  0.4465  0.0595 -0.0554
 2179TIP3    H227953   0.050   6.012  16.093 -0.9587 -0.6247  1.3676
 2180TIP3   OH227954   3.673   5.998   0.191 -0.2482  0.1264 -0.3787
 2180TIP3    H127955   3.701   6.036   0.274 -0.0162 -0.1548 -0.3263
 2180TIP3    H227956   3.587   5.959   0.210  0.2713 -0.8593  0.0034
 2181TIP3   OH227957   1.965   0.043  13.112  0.3310 -0.4426 -0.4770
 2181TIP3    H127958   1.986   0.128  13.151  0.8176  0.4945 -2.6147
 2181TIP3    H227959   1.991  -0.021  13.178  0.3345  1.0373  1.0333
 2182TIP3   OH227960   2.553   2.987  15.519 -0.5758  0.1700  0.2541
 2182TIP3    H127961   2.583   2.955  15.604  1.5290  2.4903  0.4759
 2182TIP3    H227962   2.631   3.025  15.478 -1.3062 -1.5570 -3.1281
 2183TIP3   OH227963   0.520   1.208  12.004  0.7890  0.5781 -0.1575
 2183TIP3    H127964   0.608   1.182  11.977  1.0129 -0.6548  1.6347
 2183TIP3    H227965   0.462   1.145  11.960  0.9472  0.2621  0.0833
 2184TIP3   OH227966   1.122   4.986   6.676  0.2359  0.4048  0.9502
 2184TIP3    H127967   1.118   5.046   6.602  2.6560  1.6760  1.7130
 2184TIP3    H227968   1.153   5.040   6.749 -1.5203 -0.9064  2.7987
 2185TIP3   OH227969   5.384   2.870   4.469  0.0272  0.5960  0.2462
 2185TIP3    H127970   5.368   2.780   4.496 -0.4323  1.0483  1.5890
 2185TIP3    H227971   5.466   2.867   4.420  0.4433 -0.4262  0.9799
 2186TIP3   OH227972   2.004   5.253  14.424  0.0033  0.2325 -0.2148
 2186TIP3    H127973   1.938   5.210  14.478  0.5064 -0.4500 -0.1321
 2186TIP3    H227974   1.956   5.289  14.350 -0.9892  2.6310  1.4429
 2187TIP3   OH227975   2.409   4.379   4.697 -0.0266 -0.1830 -0.0781
 2187TIP3    H127976   2.362   4.299   4.720 -0.6206  0.2935  0.4255
 2187TIP3    H227977   2.415   4.377   4.601 -1.0761 -0.2802 -0.1598
 2188TIP3   OH227978   4.501   1.800   2.633 -0.0876  0.1065  0.4622
 2188TIP3    H127979   4.590   1.808   2.668  0.4823 -1.5314 -0.5040
 2188TIP3    H227980   4.467   1.889   2.633  1.7620  0.8509  0.3305
 2189TIP3   OH227981   3.198   1.649   6.318  0.2890 -0.0989 -0.2365
 2189TIP3    H127982   3.281   1.614   6.349 -0.3784 -2.0343 -0.4379
 2189TIP3    H227983   3.163   1.579   6.262 -1.4218  0.6981 -0.2226
 2190TIP3   OH227984   4.887   6.451  16.259 -0.0428  0.1669 -0.1431
 2190TIP3    H127985   4.918   6.536  16.229  1.0646  0.1570  0.8703
 2190TIP3    H227986   4.819   6.471  16.324 -1.6278  0.2027 -1.7427
 2191TIP3   OH227987   4.632   2.795  12.398  0.4147 -0.2522  0.7206
 2191TIP3    H127988   4.552   2.828  12.438  0.1786 -1.1820  1.0470
 2191TIP3    H227989   4.608   2.773  12.308  1.0831  2.3740 -0.1943
 2192TIP3   OH227990   1.783   1.207   4.078  0.2835 -0.3857 -0.2605
 2192TIP3    H127991   1.705   1.225   4.130  0.7170 -1.2043  0.7117
 2192TIP3    H227992   1.814   1.122   4.110  1.9109  0.2051 -0.1770
 2193TIP3   OH227993   3.177   1.762  15.270  0.5438 -0.1495  0.4004
 2193TIP3    H127994   3.213   1.792  15.354  4.5762 -1.1875 -0.7544
 2193TIP3    H227995   3.198   1.832  15.208 -0.7311 -0.2209 -0.1508
 2194TIP3   OH227996   1.659   3.623   4.016 -0.2772  0.1372  0.5615
 2194TIP3    H127997   1.588   3.671   3.974 -0.4077 -1.3586 -1.0358
 2194TIP3    H227998   1.636   3.623   4.109 -2.0446  0.2154  0.1659
 2195TIP3   OH227999   0.628   5.147   4.500 -0.0827  0.1945  0.5161
 2195TIP3    H128000   0.642   5.158   4.594  1.1957 -0.4285  0.4137
 2195TIP3    H228001   0.634   5.052   4.487  0.0345  0.3037 -0.2396
 2196TIP3   OH228002   4.933   0.443   4.753  0.1179 -0.3690  0.2247
 2196TIP3    H128003   4.990   0.426   4.678 -0.0757 -1.3317  0.2815
 2196TIP3    H228004   4.850   0.471   4.714  0.0173 -0.8684  0.0806
 2197TIP3   OH228005   6.282   4.997   0.904  0.3444 -0.4331  0.1334
 2197TIP3    H128006   6.205   5.050   0.926  0.5448  0.0612 -0.3354
 2197TIP3    H228007   6.245   4.911   0.882 -0.3412  0.4053 -2.3218
 2198TIP3   OH228008   2.186   5.081  12.251  0.1126  0.1199 -0.5830
 2198TIP3    H128009   2.144   5.048  12.172 -0.2700 -0.0073 -0.3238
 2198TIP3    H228010   2.171   5.176  12.248 -3.3471 -0.2188  1.3065
 2199TIP3   OH228011   3.446   5.159  11.129  0.6730 -0.9656  0.2810
 2199TIP3    H128012   3.457   5.121  11.216  0.4109  0.6773  1.0538
 2199TIP3    H228013   3.372   5.219  11.138 -0.1199 -1.6323 -1.3873
 2200TIP3   OH228014   6.279   5.936  13.785  0.0789  0.5792  0.1808
 2200TIP3    H128015   6.340   5.964  13.853 -0.6075  1.9969  0.2448
 2200TIP3    H228016   6.210   5.890  13.832 -0.4177  1.5943  0.4745
 2201TIP3   OH228017   0.853   5.744   3.701 -0.5006 -0.1871  0.0251
 2201TIP3    H128018   0.841   5.659   3.745  0.7866  0.5435  1.9577
 2201TIP3    H228019   0.942   5.741   3.666 -1.0620 -0.2567 -1.4685
 2202TIP3   OH228020   0.796   3.793  11.637  0.3818 -0.5901 -0.2134
 2202TIP3    H128021   0.855   3.868  11.648 -0.7832  0.5835 -1.6487
 2202TIP3    H228022   0.843   3.735  11.577  0.4142 -0.0384 -0.7244
 2203TIP3   OH228023   6.478   5.729  13.965 -0.5347 -0.5245 -0.4858
 2203TIP3    H128024   6.523   5.649  13.938  0.8241 -0.1606  0.5771
 2203TIP3    H228025   6.548   5.786  13.997 -1.2331  1.8029 -2.7593
 2204TIP3   OH228026   5.013   1.270   6.315 -0.2692 -0.8404  0.3972
 2204TIP3    H128027   4.988   1.177   6.317 -1.4670 -0.5405  0.3009
 2204TIP3    H228028   4.934   1.315   6.286  0.2029  0.2492  0.7547
 2205TIP3   OH228029   5.215   3.631   6.047  0.1547 -0.1228  0.6292
 2205TIP3    H128030   5.177   3.552   6.086 -1.0296  0.8170  1.4266
 2205TIP3    H228031   5.306   3.631   6.078  0.7973 -2.1675 -0.9691
 2206TIP3   OH228032   6.323   2.675   6.038  0.5683  0.3973  0.1455
 2206TIP3    H128033   6.345   2.737   6.108 -0.3524  1.8326 -0.7868
 2206TIP3    H228034   6.397   2.680   5.977  1.3325 -0.7943  0.9182
 2207TIP3   OH228035   3.269   4.135  13.357  0.2471  0.3463 -0.1194
 2207TIP3    H128036   3.203   4.194  13.392  1.5512  0.9623  1.4146
 2207TIP3    H228037   3.346   4.190  13.343  1.1216 -0.7362  0.2251
 2208TIP3   OH228038   4.455   5.041  15.248  0.3491  0.4452 -0.0090
 2208TIP3    H128039   4.416   5.120  15.209  1.8518  0.7257 -1.0449
 2208TIP3    H228040   4.524   5.075  15.305  0.0749 -0.0917  0.6505
 2209TIP3   OH228041   0.767   0.262   3.019 -0.0314  0.0059  0.6888
 2209TIP3    H128042   0.818   0.325   3.069  0.7829  0.7370 -1.0144
 2209TIP3    H228043   0.699   0.315   2.977 -0.1063 -0.4445  0.2416
 2210TIP3   OH228044   6.356   3.411  15.908  0.3351  0.3708 -0.0086
 2210TIP3    H128045   6.419   3.464  15.859  0.3479  1.2515  0.9442
 2210TIP3    H228046   6.408   3.367  15.975  0.1971 -0.2517 -0.3029
 2211TIP3   OH228047   1.980   5.097   1.356  0.1510 -0.3797 -0.0093
 2211TIP3    H128048   1.923   5.143   1.295 -0.2052 -0.7459  0.0418
 2211TIP3    H228049   1.976   5.005   1.328 -1.8994 -1.0088  1.9424
 2212TIP3   OH228050   4.525   0.239  11.280 -0.2146 -0.5037  0.2476
 2212TIP3    H128051   4.595   0.242  11.345 -0.1902  0.5766  0.1876
 2212TIP3    H228052   4.554   0.174  11.216 -0.3343 -1.7302  1.4068
 2213TIP3   OH228053   3.401   6.369  11.832  0.0895  0.2663 -0.0003
 2213TIP3    H128054   3.477   6.396  11.781  0.2272 -0.7973 -0.3801
 2213TIP3    H228055   3.436   6.349  11.919  0.2910 -0.4178 -0.2315
 2214TIP3   OH228056   2.735   0.963   3.143  0.9483  0.3829  0.4528
 2214TIP3    H128057   2.812   1.006   3.105 -0.0578  2.8730  0.9815
 2214TIP3    H228058   2.708   1.021   3.214 -3.0965  1.3352 -1.5389
 2215TIP3   OH228059   6.025   5.798   2.756  0.2553 -0.7572  0.0401
 2215TIP3    H128060   6.046   5.875   2.704 -0.1763  1.8515  3.4062
 2215TIP3    H228061   5.933   5.808   2.778  0.4284 -1.6923  1.3287
 2216TIP3   OH228062   6.101   4.725  11.969  0.3754 -0.5220 -0.4664
 2216TIP3    H128063   6.195   4.744  11.963  0.2224 -0.0007 -1.6071
 2216TIP3    H228064   6.072   4.773  12.046  0.7124  0.8649 -1.1627
 2217TIP3   OH228065   0.467   6.232   0.736 -0.0610 -0.1246 -0.7868
 2217TIP3    H128066   0.519   6.306   0.769  0.3877 -0.0443 -1.6417
 2217TIP3    H228067   0.377   6.265   0.735 -0.1750 -0.3203  0.8625
 2218TIP3   OH228068   2.615   0.377  13.772 -0.3719 -0.2826 -0.8562
 2218TIP3    H128069   2.603   0.470  13.757 -0.2094 -0.2389 -0.7028
 2218TIP3    H228070   2.557   0.356  13.845  0.6684 -0.0196  0.0617
 2219TIP3   OH228071   6.333   2.261  13.587  0.2345 -0.4775  0.4572
 2219TIP3    H128072   6.347   2.173  13.623 -0.4949 -0.0970  1.7221
 2219TIP3    H228073   6.313   2.315  13.663 -0.9170  0.4659 -0.4862
 2220TIP3   OH228074   3.561   0.618   2.450 -0.7423  0.1974  0.3267
 2220TIP3    H128075   3.536   0.549   2.389  1.1424 -1.5949  1.4691
 2220TIP3    H228076   3.649   0.643   2.424  0.0490 -0.4975  2.1253
 2221TIP3   OH228077   2.531   1.048   4.025 -0.7212  0.6331 -0.3928
 2221TIP3    H128078   2.582   1.118   3.984 -0.4253  0.2158 -0.7435
 2221TIP3    H228079   2.530   1.070   4.118 -0.2474  0.8621 -0.4381
 2222TIP3   OH228080   0.439   2.506  15.647  0.4636  0.4182 -0.5535
 2222TIP3    H128081   0.518   2.543  15.686  0.4807  0.0015 -0.1865
 2222TIP3    H228082   0.410   2.440  15.710 -1.2150  1.8045  0.2241
 2223TIP3   OH228083   0.584   4.078  13.021 -0.7846  0.3129  0.0543
 2223TIP3    H128084   0.608   4.129  12.944  4.0208 -2.3827 -0.6510
 2223TIP3    H228085   0.574   3.989  12.988  0.6229 -0.7776  2.3031
 2224TIP3   OH228086   4.531   4.967   4.106  0.2889 -0.2086  0.4308
 2224TIP3    H128087   4.462   4.918   4.150 -1.6659  1.8481 -0.1650
 2224TIP3    H228088   4.531   5.052   4.149  3.2020 -0.4320  1.0667
 2225TIP3   OH228089   5.712   1.422  11.092 -0.0885  0.2536 -0.0577
 2225TIP3    H128090   5.636   1.365  11.084 -1.9376  2.6614 -1.2720
 2225TIP3    H228091   5.774   1.389  11.028 -0.7972 -0.8053 -0.2207
 2226TIP3   OH228092   6.170   3.927   2.723 -0.2583 -0.0158  0.1576
 2226TIP3    H128093   6.168   3.898   2.814 -0.0822  0.1815  0.2238
 2226TIP3    H228094   6.252   3.975   2.715 -1.4860  2.2931  0.6112
 2227TIP3   OH228095   5.652   4.721   0.122  0.0094  0.2213 -0.7792
 2227TIP3    H128096   5.558   4.717   0.137  0.0352  0.3396 -0.5917
 2227TIP3    H228097   5.680   4.629   0.121  0.1372  0.2315  0.6708
 2228TIP3   OH228098   2.490   5.788  14.305 -0.1220 -0.3387 -1.0873
 2228TIP3    H128099   2.526   5.720  14.363 -1.4163 -0.4254 -0.3559
 2228TIP3    H228100   2.521   5.763  14.218  0.5386 -1.1000 -0.6578
 2229TIP3   OH228101   4.165   3.443   0.614 -0.4651  0.5646 -0.0058
 2229TIP3    H128102   4.119   3.519   0.579 -1.0331 -0.4135 -1.4812
 2229TIP3    H228103   4.200   3.473   0.698 -1.8932  2.0050  0.1315
 2230TIP3   OH228104   3.255   3.801  13.265 -0.0495  0.4867 -0.1856
 2230TIP3    H128105   3.220   3.869  13.323 -1.4965 -0.6743  0.3710
 2230TIP3    H228106   3.228   3.829  13.177  2.4794  2.4504 -0.4514
 2231TIP3   OH228107   2.761   5.767  13.562  0.2139  0.0241 -0.2203
 2231TIP3    H128108   2.771   5.759  13.468 -0.2827  2.6360 -0.5690
 2231TIP3    H228109   2.691   5.831  13.574  0.1094 -0.4021  1.9312
 2232TIP3   OH228110   1.884   0.740  13.661  0.2805  0.1999 -0.1943
 2232TIP3    H128111   1.886   0.669  13.597  0.4083 -0.8932  0.9737
 2232TIP3    H228112   1.816   0.799  13.630 -1.6255 -1.7320  0.0998
 2233TIP3   OH228113   4.873   5.912  12.298 -0.2613  0.1915 -0.3506
 2233TIP3    H128114   4.778   5.897  12.302 -0.4294  1.5059  1.2738
 2233TIP3    H228115   4.911   5.827  12.320 -1.0390 -0.3649 -1.0799
 2234TIP3   OH228116   2.187   2.166   2.043  0.1747 -0.2817  0.0409
 2234TIP3    H128117   2.256   2.227   2.018 -0.4487  0.7142  0.6621
 2234TIP3    H228118   2.114   2.186   1.985 -0.2226 -0.0485  0.6025
 2235TIP3   OH228119   1.726   0.774   2.974  0.2681 -0.0980  0.0242
 2235TIP3    H128120   1.691   0.755   2.887  0.5828  0.5788 -0.2576
 2235TIP3    H228121   1.804   0.827   2.957 -0.6759  1.6264  0.7612
 2236TIP3   OH228122   1.803   4.548   0.751 -0.1423  1.0783 -0.1568
 2236TIP3    H128123   1.852   4.630   0.739 -0.4330  1.4075  0.8305
 2236TIP3    H228124   1.711   4.575   0.748 -0.3202  0.4234 -2.3080
 2237TIP3   OH228125   0.321   1.027   0.498 -0.3048 -0.8912 -0.0018
 2237TIP3    H128126   0.357   0.981   0.574 -0.6845 -2.4146 -0.7242
 2237TIP3    H228127   0.226   1.015   0.505 -0.6843  1.9005  1.1157
 2238TIP3   OH228128   1.078   2.875  14.823 -0.2973 -0.3831 -0.0161
 2238TIP3    H128129   1.053   2.835  14.906 -2.4598 -2.0308 -1.3466
 2238TIP3    H228130   1.152   2.931  14.845  0.4518 -2.2092  2.6731
 2239TIP3   OH228131   3.702   1.670  15.602  0.0652  0.2147  0.0899
 2239TIP3    H128132   3.624   1.638  15.648  0.1678 -1.3679 -0.7836
 2239TIP3    H228133   3.728   1.598  15.546  1.1071  1.3939 -0.9980
 2240TIP3   OH228134   3.216   4.823  16.636 -0.5099  0.0203  0.5061
 2240TIP3    H128135   3.289   4.762  16.633  0.4878  1.1367  0.9809
 2240TIP3    H228136   3.234   4.879  16.712 -2.6454 -0.6017  1.5493
 2241TIP3   OH228137   6.684   2.334  15.789  0.3154  0.0236  0.0808
 2241TIP3    H128138   6.603   2.341  15.840  0.0227 -2.7682  0.1721
 2241TIP3    H228139   6.695   2.421  15.750 -3.0052  0.4199 -0.3261
 2242TIP3   OH228140   2.562   0.841  11.739 -0.4388 -0.7793  0.5237
 2242TIP3    H128141   2.607   0.766  11.700 -1.3108 -0.9650 -0.1532
 2242TIP3    H228142   2.470   0.827  11.719 -0.7252 -0.0158  1.2356
 2243TIP3   OH228143   0.094   4.115   0.193  0.4571  0.5072  0.5835
 2243TIP3    H128144   0.098   4.192   0.136 -0.7985  0.7154  0.7478
 2243TIP3    H228145   0.137   4.046   0.142  0.4356  0.9913 -0.1147
 2244TIP3   OH228146   4.667   6.103   1.589 -0.0514 -0.0795 -0.5393
 2244TIP3    H128147   4.762   6.115   1.601  0.0569 -0.8541 -0.5699
 2244TIP3    H228148   4.634   6.087   1.677  0.1472 -1.7417 -0.7316
 2245TIP3   OH228149   2.596   3.670  11.237 -0.7032  0.2771 -0.1915
 2245TIP3    H128150   2.603   3.746  11.294 -0.9012  0.9074 -0.9752
 2245TIP3    H228151   2.686   3.642  11.221 -0.6622 -0.0686  0.6341
 2246TIP3   OH228152   2.879   3.757   5.663 -0.0312  0.1593  0.3194
 2246TIP3    H128153   2.955   3.774   5.607  0.2556 -0.2839  0.5748
 2246TIP3    H228154   2.816   3.826   5.639 -0.4402 -0.7804 -1.4809
 2247TIP3   OH228155   2.089   3.166  12.348 -0.2097 -0.3327 -0.7007
 2247TIP3    H128156   2.162   3.188  12.290  1.0362 -1.5017  0.3478
 2247TIP3    H228157   2.035   3.245  12.349  0.8720  0.4612 -1.7694
 2248TIP3   OH228158   5.059   0.173   4.345 -0.0554 -0.1127  0.1293
 2248TIP3    H128159   5.148   0.196   4.319 -0.5257  0.8762 -0.6569
 2248TIP3    H228160   5.040   0.093   4.297 -0.7917  1.5031 -2.4876
 2249TIP3   OH228161   4.583   1.541   2.267  0.1064  0.3596 -0.3260
 2249TIP3    H128162   4.588   1.606   2.197 -1.0248 -0.6198 -1.3539
 2249TIP3    H228163   4.596   1.457   2.223 -1.4993 -0.3457  0.4604
 2250TIP3   OH228164   5.613   4.723  16.398  0.1062  0.6662  0.5069
 2250TIP3    H128165   5.563   4.642  16.400 -0.7650  1.2106  1.7339
 2250TIP3    H228166   5.617   4.752  16.489 -0.4194  2.4802 -0.0088
 2251TIP3   OH228167   3.925   2.654  16.645 -0.2763 -0.1265  0.1748
 2251TIP3    H128168   3.905   2.744  16.670 -0.2640  0.6359 -2.2662
 2251TIP3    H228169   4.019   2.654  16.631 -0.3196 -0.4284 -0.1236
 2252TIP3   OH228170   1.354   0.541   6.095  0.9765  0.0795  0.1046
 2252TIP3    H128171   1.342   0.588   6.178  1.5329  0.6933 -0.1596
 2252TIP3    H228172   1.409   0.466   6.118  0.6034 -0.1114  0.4054
 2253TIP3   OH228173   0.802   6.419  14.476  0.0495  0.3020  0.1367
 2253TIP3    H128174   0.730   6.469  14.515 -0.1885 -0.7070  1.0329
 2253TIP3    H228175   0.784   6.420  14.382 -0.1991  1.4927  0.1830
 2254TIP3   OH228176   6.740   1.594  12.067  0.1524 -0.0352 -0.0307
 2254TIP3    H128177   6.650   1.569  12.045  0.3047 -0.7414  0.1243
 2254TIP3    H228178   6.780   1.617  11.984 -0.5186  1.4956  0.0252
 2255TIP3   OH228179   2.203   4.902   1.912 -0.2323 -0.4453  0.0737
 2255TIP3    H128180   2.240   4.912   1.999  0.4804  1.1381 -0.3831
 2255TIP3    H228181   2.108   4.904   1.926 -0.1209 -0.0449  0.7976
 2256TIP3   OH228182   2.394   0.808  12.493 -0.1019  0.6195  0.1620
 2256TIP3    H128183   2.374   0.778  12.404  2.1931  0.5098 -0.3796
 2256TIP3    H228184   2.387   0.728  12.546  2.3501 -0.2040 -0.6412
 2257TIP3   OH228185   1.003   1.007   1.861 -0.2775 -0.2478  0.3969
 2257TIP3    H128186   0.948   0.942   1.906 -1.7348 -1.5353 -2.9525
 2257TIP3    H228187   1.066   0.955   1.811  2.9954  1.1807  2.6802
 2258TIP3   OH228188   2.266   6.487  11.271 -0.0180 -0.3089  0.2548
 2258TIP3    H128189   2.293   6.422  11.336  1.5896 -2.1136 -2.0448
 2258TIP3    H228190   2.320   6.563  11.289 -0.4844 -0.3020  1.7542
 2259TIP3   OH228191   6.606   0.783  14.010  0.0369  0.0616  0.3472
 2259TIP3    H128192   6.667   0.788  14.084  0.5757  0.6800 -0.1298
 2259TIP3    H228193   6.542   0.853  14.028  0.8169  0.9737 -0.3307
 2260TIP3   OH228194   3.925   3.343   5.480 -0.1792 -0.4625 -0.5566
 2260TIP3    H128195   3.909   3.274   5.543  0.5667  0.9152  1.2228
 2260TIP3    H228196   3.870   3.320   5.405 -1.2741 -2.0437  0.6593
 2261TIP3   OH228197   6.650   3.425   1.492  0.0844 -0.1350  0.2143
 2261TIP3    H128198   6.620   3.340   1.526  0.3879 -0.0589  0.6950
 2261TIP3    H228199   6.577   3.459   1.441 -0.5250 -0.0880  1.1080
 2262TIP3   OH228200   1.299   4.711  12.842  0.2157  0.2621 -0.4371
 2262TIP3    H128201   1.387   4.729  12.809  1.1746 -2.6837  0.1749
 2262TIP3    H228202   1.304   4.727  12.936 -0.7146  2.5224 -0.6983
 2263TIP3   OH228203   2.411   1.874  11.329  0.2121  0.0103 -0.3744
 2263TIP3    H128204   2.452   1.791  11.351 -0.0203  0.0685  0.3281
 2263TIP3    H228205   2.353   1.892  11.403 -0.4236  0.3543 -0.9391
 2264TIP3   OH228206   3.953   2.767  15.783 -0.2111 -0.0348 -0.0024
 2264TIP3    H128207   3.955   2.673  15.800 -0.2240 -0.1091 -0.3920
 2264TIP3    H228208   3.870   2.780  15.736  0.2280  0.0233 -0.7723
 2265TIP3   OH228209   1.703   5.207   1.671 -0.1719  0.0501 -0.7879
 2265TIP3    H128210   1.794   5.193   1.646  0.0211 -0.8503  0.3072
 2265TIP3    H228211   1.704   5.203   1.767 -1.4541 -0.6180 -0.7783
 2266TIP3   OH228212   0.965   5.494   4.545 -0.4275 -0.2371  0.1438
 2266TIP3    H128213   0.937   5.585   4.555 -1.8306 -0.7495  1.1760
 2266TIP3    H228214   1.053   5.500   4.509 -0.9270  1.5004 -0.8752
 2267TIP3   OH228215   4.262   0.424  14.451  0.5117  0.4723 -0.2798
 2267TIP3    H128216   4.288   0.406  14.361  1.1170  1.9339 -0.4152
 2267TIP3    H228217   4.214   0.507  14.447 -0.0819  0.1983  0.6467
 2268TIP3   OH228218   2.756   4.396  15.147  0.1014 -0.8784  0.4019
 2268TIP3    H128219   2.718   4.402  15.235  0.1561  1.0212  0.3319
 2268TIP3    H228220   2.836   4.448  15.152  0.8641 -1.9247 -0.4196
 2269TIP3   OH228221   3.554   5.910   0.548 -0.4629 -0.1144 -0.1064
 2269TIP3    H128222   3.622   5.973   0.526 -0.5298 -0.5813 -1.8493
 2269TIP3    H228223   3.517   5.940   0.631 -0.7403  2.3345 -1.0509
 2270TIP3   OH228224   5.709   3.213   4.594  0.0446 -0.1941 -0.2220
 2270TIP3    H128225   5.659   3.232   4.515 -3.3048 -0.8781  1.5616
 2270TIP3    H228226   5.762   3.136   4.571 -0.6500 -0.2365 -1.8338
 2271TIP3   OH228227   1.786   2.601  15.433 -0.6837 -0.3010 -0.2798
 2271TIP3    H128228   1.805   2.679  15.485 -2.2313  1.4922 -2.2224
 2271TIP3    H228229   1.782   2.530  15.497 -1.3166  1.5486  1.8835
 2272TIP3   OH228230   4.686   3.956   1.219 -0.1454 -0.0707  0.2176
 2272TIP3    H128231   4.627   3.939   1.146  0.3112  1.9877 -0.7080
 2272TIP3    H228232   4.635   4.011   1.279  0.3748  0.5952  0.0636
 2273TIP3   OH228233   2.802   3.357   1.151  0.0887  0.5429  0.0018
 2273TIP3    H128234   2.867   3.327   1.215  1.9763  2.3681 -0.9164
 2273TIP3    H228235   2.753   3.425   1.197 -0.1750  0.1864  0.2481
 2274TIP3   OH228236   3.347   5.572  16.670 -0.1642 -0.0880 -0.3642
 2274TIP3    H128237   3.281   5.521  16.717 -1.3731  0.4304 -1.4450
 2274TIP3    H228238   3.298   5.643  16.629  1.4171  1.7449  0.7679
 2275TIP3   OH228239   4.502   2.077  15.797  0.1368 -0.5463 -0.3448
 2275TIP3    H128240   4.445   2.113  15.865 -0.2887 -1.0286 -0.4488
 2275TIP3    H228241   4.581   2.049  15.844  0.8752  1.3289 -0.3623
 2276TIP3   OH228242   6.779   1.813   3.959  0.6626 -0.1493 -0.4388
 2276TIP3    H128243   6.712   1.847   4.019  1.4244  1.7096 -0.5681
 2276TIP3    H228244   6.774   1.870   3.883  2.6679  0.3275 -0.2768
 2277TIP3   OH228245   0.213   1.163   3.612  0.2183 -0.0806  0.1768
 2277TIP3    H128246   0.185   1.091   3.668 -0.6520  0.1312  0.0239
 2277TIP3    H228247   0.279   1.124   3.554 -0.8193 -0.9698 -0.4447
 2278TIP3   OH228248   3.784   1.944   5.650 -0.9167 -0.8843 -0.3192
 2278TIP3    H128249   3.725   2.019   5.659 -0.1138 -0.2816  0.0961
 2278TIP3    H228250   3.849   1.956   5.720 -0.4838 -1.6893 -0.5695
 2279TIP3   OH228251   0.231   2.698  12.498  0.1932 -0.1206  0.4272
 2279TIP3    H128252   0.245   2.748  12.417 -1.9417  0.1032  0.1282
 2279TIP3    H228253   0.282   2.618  12.486  1.8286  0.9486 -0.0846
 2280TIP3   OH228254   4.888   0.820   2.851 -0.0697 -0.4344  0.1998
 2280TIP3    H128255   4.937   0.757   2.906  0.1913  0.2735  0.7929
 2280TIP3    H228256   4.804   0.830   2.895  0.5700  1.0255  1.1504
 2281TIP3   OH228257   4.893   2.166   4.412  0.7526  0.3509  0.2538
 2281TIP3    H128258   4.804   2.159   4.376  0.0677 -0.3081  1.9284
 2281TIP3    H228259   4.946   2.197   4.339 -0.5223 -0.9270 -1.3071
 2282TIP3   OH228260   2.088   5.599  14.085 -0.2471 -0.1457  0.0647
 2282TIP3    H128261   2.182   5.585  14.090 -0.2378 -0.1540 -0.1112
 2282TIP3    H228262   2.070   5.668  14.148 -0.0688  0.1064 -0.1572
 2283TIP3   OH228263   4.223   5.830   0.224  0.3143 -0.6312  0.3227
 2283TIP3    H128264   4.291   5.838   0.291  0.9954  0.1435 -0.4446
 2283TIP3    H228265   4.174   5.751   0.249  0.1795 -0.0553  2.0500
 2284TIP3   OH228266   5.930   3.372  12.996  0.3009 -0.0195 -0.1599
 2284TIP3    H128267   5.977   3.321  13.062 -3.3263 -0.9666  2.0117
 2284TIP3    H228268   5.907   3.308  12.928  0.4251 -0.0117 -0.2097
 2285TIP3   OH228269   4.970   1.771  13.473 -0.2440  0.1737 -0.0137
 2285TIP3    H128270   4.884   1.762  13.513 -0.5788  0.7819 -0.5840
 2285TIP3    H228271   4.956   1.828  13.397  0.4145 -0.8108 -0.8969
 2286TIP3   OH228272   5.318   3.398   3.157  0.6181 -0.2175 -0.2785
 2286TIP3    H128273   5.345   3.306   3.156  1.3127 -0.0177 -1.1991
 2286TIP3    H228274   5.284   3.412   3.246 -1.1765 -1.8221 -0.6493
 2287TIP3   OH228275   0.097   2.880  15.264  0.2755 -0.4527  0.1227
 2287TIP3    H128276   0.138   2.890  15.179  2.1036 -0.9558  0.8884
 2287TIP3    H228277   0.027   2.816  15.250 -0.9056  1.0884 -1.4017
 2288TIP3   OH228278   3.139   3.720  15.583  0.1329  0.0624 -0.9868
 2288TIP3    H128279   3.087   3.644  15.557 -0.4312  0.1729 -0.2100
 2288TIP3    H228280   3.191   3.741  15.505 -1.4884  0.3857 -2.0402
 2289TIP3   OH228281   5.987   0.237  15.865 -0.5530  0.1440  0.6513
 2289TIP3    H128282   6.066   0.286  15.888 -1.2494  0.4875  2.4652
 2289TIP3    H228283   6.014   0.145  15.870 -0.3174  0.2491  1.5236
 2290TIP3   OH228284   5.311   5.179  15.678  0.6300 -0.7788 -0.4765
 2290TIP3    H128285   5.276   5.117  15.613  0.8267 -1.8258  0.3928
 2290TIP3    H228286   5.344   5.252  15.626 -0.4991 -0.9467 -1.4722
 2291TIP3   OH228287   1.089   2.089  11.892 -0.3833  0.1014  0.5210
 2291TIP3    H128288   1.158   2.115  11.831 -0.3322 -0.3571  0.3852
 2291TIP3    H228289   1.129   2.024  11.949 -0.6434 -0.0150  0.5746
 2292TIP3   OH228290   0.161   6.043  14.386  0.3284 -0.3119 -0.3189
 2292TIP3    H128291   0.160   6.020  14.293 -0.9806 -1.7208 -0.0016
 2292TIP3    H228292   0.069   6.039  14.412  0.5903  0.7933  0.8878
 2293TIP3   OH228293   3.698   5.740  12.288  0.4239  0.3241 -0.0819
 2293TIP3    H128294   3.772   5.703  12.241  0.2378  1.2428 -1.1136
 2293TIP3    H228295   3.734   5.765  12.373  0.7732 -1.2981  0.2949
 2294TIP3   OH228296   2.024   0.935   6.068 -0.2822 -0.0562 -0.0618
 2294TIP3    H128297   1.939   0.979   6.075 -0.6914 -0.6927 -0.9200
 2294TIP3    H228298   2.036   0.893   6.154 -0.3354  0.8923  0.4272
 2295TIP3   OH228299   3.104   3.046   5.470  0.5293 -0.2158 -0.3677
 2295TIP3    H128300   3.133   2.954   5.467 -0.1993 -0.5813  1.9708
 2295TIP3    H228301   3.185   3.095   5.487  0.4268 -0.9276  2.8524
 2296TIP3   OH228302   2.884   5.993  13.356  0.0321  1.3653 -0.5952
 2296TIP3    H128303   2.791   6.012  13.344  0.3152  1.5710 -3.2323
 2296TIP3    H228304   2.890   5.897  13.350  0.0562  1.4071 -1.4107
 2297TIP3   OH228305   2.826   2.105   2.669  0.7046 -0.2012 -0.4035
 2297TIP3    H128306   2.738   2.116   2.634  0.6742  0.7304 -0.0546
 2297TIP3    H228307   2.876   2.068   2.596  0.6580  1.7616 -1.5076
 2298TIP3   OH228308   4.613   6.188   1.299  0.0536 -0.0870 -0.0028
 2298TIP3    H128309   4.705   6.210   1.288  0.3191 -1.0599  0.1480
 2298TIP3    H228310   4.605   6.162   1.391 -0.5566  0.7989  0.2063
 2299TIP3   OH228311   6.253   3.002   3.616  0.5080  0.9650 -0.0764
 2299TIP3    H128312   6.260   2.958   3.531  1.7563  1.3340 -0.1757
 2299TIP3    H228313   6.340   3.038   3.632  0.4070  0.5849  1.5350
 2300TIP3   OH228314   5.925   0.058   1.133  0.0069  0.1556  0.2861
 2300TIP3    H128315   5.848   0.024   1.089  0.2881  0.2151 -0.2596
 2300TIP3    H228316   5.982   0.089   1.063  0.7028 -0.2536  0.6541
 2301TIP3   OH228317   2.854   4.217  15.918  0.1775 -0.1497 -0.7994
 2301TIP3    H128318   2.935   4.253  15.954 -0.6809  0.4175  0.6909
 2301TIP3    H228319   2.804   4.190  15.995 -0.4901 -1.7764 -1.7547
 2302TIP3   OH228320   6.071   3.431   2.391  0.6454 -0.0881  0.6205
 2302TIP3    H128321   6.080   3.519   2.355 -0.5961 -0.0571  0.3271
 2302TIP3    H228322   6.160   3.396   2.392  0.9236  0.5206 -0.9117
 2303TIP3   OH228323   0.017   4.412   2.649 -0.0279  0.0774  0.0936
 2303TIP3    H128324   0.113   4.412   2.656 -0.0531 -3.1369  2.4077
 2303TIP3    H228325  -0.012   4.461   2.727 -0.3563  1.5807 -0.9212
 2304TIP3   OH228326   4.295   4.809   5.605 -0.2747 -0.3185 -0.4467
 2304TIP3    H128327   4.325   4.793   5.516  0.0582  1.0042 -0.5950
 2304TIP3    H228328   4.366   4.778   5.661 -1.2183 -2.8206 -0.5243
 2305TIP3   OH228329   2.007   6.421   0.282 -0.0355 -0.0042 -0.1451
 2305TIP3    H128330   2.092   6.406   0.322  0.5780  1.0108 -1.0063
 2305TIP3    H228331   1.960   6.339   0.294  0.9604 -0.4903  0.5802
 2306TIP3   OH228332   2.292   3.106  15.677 -0.0588 -0.2174 -0.1802
 2306TIP3    H128333   2.251   3.072  15.756 -0.0238  0.2627  0.0519
 2306TIP3    H228334   2.225   3.162  15.638  0.0065 -0.2683 -0.3654
 2307TIP3   OH228335   4.411   2.497   6.045 -0.4244 -0.2592  0.2660
 2307TIP3    H128336   4.472   2.546   5.990 -0.2612 -0.2754  0.4298
 2307TIP3    H228337   4.439   2.405   6.036 -0.0651 -0.2089  0.7803
 2308TIP3   OH228338   3.477   6.642   1.918  0.3285 -0.1890  1.0318
 2308TIP3    H128339   3.502   6.703   1.988  0.2347  0.6402  0.3653
 2308TIP3    H228340   3.382   6.649   1.912  0.3612 -0.0251  0.6321
 2309TIP3   OH228341   0.440   2.897   0.330  0.5068  0.3835 -0.3582
 2309TIP3    H128342   0.505   2.911   0.261 -0.6215  3.5272 -0.9456
 2309TIP3    H228343   0.370   2.960   0.310 -1.2585 -0.6703  2.0124
 2310TIP3   OH228344   1.248   2.189  14.612  0.0911 -0.2788 -0.0369
 2310TIP3    H128345   1.270   2.206  14.520  2.8276  0.3732  0.6442
 2310TIP3    H228346   1.299   2.112  14.636 -1.2261 -0.9489  0.7647
 2311TIP3   OH228347   5.859   5.957   2.164 -0.3341  0.5164 -0.2451
 2311TIP3    H128348   5.782   6.011   2.177  0.2002  0.8596  1.9356
 2311TIP3    H228349   5.889   5.935   2.252  1.8906  0.1382 -1.0060
 2312TIP3   OH228350   3.062   6.416   3.729 -0.2468 -0.1219  0.1114
 2312TIP3    H128351   3.103   6.452   3.807  0.9852 -0.7243 -0.2382
 2312TIP3    H228352   2.968   6.429   3.743 -0.0647 -0.4402  1.7949
 2313TIP3   OH228353   4.514   0.321  12.509 -0.3463 -0.4483  0.0381
 2313TIP3    H128354   4.522   0.243  12.455 -0.2183 -1.7658  1.8496
 2313TIP3    H228355   4.602   0.359  12.510 -0.3718 -0.3532 -0.7168
 2314TIP3   OH228356   5.176   0.456   1.811  0.1460  0.2531  0.7840
 2314TIP3    H128357   5.104   0.506   1.851  0.6565  1.6313  0.0709
 2314TIP3    H228358   5.239   0.443   1.882 -1.0925 -1.6176  1.6044
 2315TIP3   OH228359   4.716   5.744  11.983 -0.2931 -0.1986 -0.4656
 2315TIP3    H128360   4.716   5.838  11.965  1.4542 -0.1769 -0.5594
 2315TIP3    H228361   4.788   5.710  11.931 -0.4334 -1.4725  0.1366
 2316TIP3   OH228362   0.710   0.767  11.181  0.1896  0.6523  0.0648
 2316TIP3    H128363   0.719   0.807  11.268  3.1579  0.2693  0.0294
 2316TIP3    H228364   0.670   0.682  11.198  0.3632  0.7530  1.0308
 2317TIP3   OH228365   6.428   0.545   1.467 -0.1584 -0.0294 -0.5010
 2317TIP3    H128366   6.377   0.594   1.531  2.1925  1.5190  0.3045
 2317TIP3    H228367   6.436   0.604   1.392  2.8128  1.0523  0.5276
 2318TIP3   OH228368   6.499   6.275   1.567  0.0646 -0.2658 -0.3990
 2318TIP3    H128369   6.506   6.252   1.474  0.8701 -0.9793 -0.1737
 2318TIP3    H228370   6.589   6.293   1.594 -0.3143  1.3944 -0.0933
 2319TIP3   OH228371   2.725   1.041  11.696 -0.2081 -0.2939 -0.5402
 2319TIP3    H128372   2.803   0.996  11.664  0.2008 -0.7704  1.0037
 2319TIP3    H228373   2.668   0.970  11.725 -0.7378  0.0956 -0.6232
 2320TIP3   OH228374   1.386   3.576  12.263  0.6045 -0.0892  0.7358
 2320TIP3    H128375   1.337   3.647  12.303 -0.6999 -1.1095  1.0058
 2320TIP3    H228376   1.389   3.598  12.170 -1.1024 -0.3957  0.5802
 2321TIP3   OH228377   5.111   6.795  12.886 -0.2660 -0.3387 -0.2998
 2321TIP3    H128378   5.092   6.707  12.853  0.4832 -0.3202 -0.8129
 2321TIP3    H228379   5.027   6.827  12.919 -0.6754 -1.0143 -0.6580
 2322TIP3   OH228380   4.275   0.027  12.023  0.1065  0.0911 -0.3572
 2322TIP3    H128381   4.207  -0.006  12.082  0.7917 -1.1808 -0.2499
 2322TIP3    H228382   4.332   0.079  12.079 -0.4126  0.6486 -0.3296
 2323TIP3   OH228383   4.203   4.343   6.490 -0.1488 -0.2817  0.0373
 2323TIP3    H128384   4.266   4.320   6.422  0.0734 -1.2632  0.5590
 2323TIP3    H228385   4.255   4.347   6.571 -0.4076  0.8714  0.1739
 2324TIP3   OH228386   4.337   5.395  11.804 -0.1128  0.0863 -0.3552
 2324TIP3    H128387   4.306   5.415  11.716 -1.0524  1.6362  0.2835
 2324TIP3    H228388   4.365   5.480  11.839 -1.4761 -0.1562  1.4669
 2325TIP3   OH228389   0.269   3.873  11.367 -0.3940 -0.5076 -0.2979
 2325TIP3    H128390   0.364   3.866  11.361 -0.5942 -2.2743 -2.1529
 2325TIP3    H228391   0.245   3.818  11.442 -0.1066 -1.9950 -1.2662
 2326TIP3   OH228392   3.767   5.752  13.174 -0.3860  0.2642  0.1498
 2326TIP3    H128393   3.676   5.769  13.196  0.1062  2.2236  0.9176
 2326TIP3    H228394   3.796   5.832  13.130  0.7662 -0.6353 -0.8028
 2327TIP3   OH228395   5.066   3.526   2.571  0.1634 -0.6384  0.6492
 2327TIP3    H128396   5.032   3.533   2.482  1.8622  1.8894  0.0862
 2327TIP3    H228397   4.989   3.538   2.627 -0.9711 -2.5078 -0.3960
 2328TIP3   OH228398   3.705   5.657   3.124 -0.0280  0.1624 -0.5366
 2328TIP3    H128399   3.749   5.738   3.151  0.7980 -0.3237 -0.3657
 2328TIP3    H228400   3.767   5.614   3.065 -0.4292 -0.3722 -0.5818
 2329TIP3   OH228401   0.208   6.807   3.375  0.1341 -0.0342 -0.1096
 2329TIP3    H128402   0.133   6.865   3.362 -1.4040 -2.0832 -0.9223
 2329TIP3    H228403   0.172   6.719   3.367  2.6200 -1.1098 -0.3684
 2330TIP3   OH228404   4.946   1.047  14.004  0.3223 -0.1058 -0.3216
 2330TIP3    H128405   4.914   1.043  14.094 -0.8076 -1.1293 -0.7368
 2330TIP3    H228406   4.895   0.980  13.958  1.7313 -0.4237 -1.4679
 2331TIP3   OH228407   4.628   4.315   1.627  0.3540 -0.1601  0.0646
 2331TIP3    H128408   4.576   4.370   1.686 -0.2983 -1.1659  0.4578
 2331TIP3    H228409   4.707   4.366   1.611  0.4181  0.2797  1.5869
 2332TIP3   OH228410   1.293   6.698  12.102 -0.6968 -0.1525 -0.1144
 2332TIP3    H128411   1.284   6.613  12.145 -2.8623  0.1338  0.1009
 2332TIP3    H228412   1.251   6.685  12.017 -1.0538  0.7066 -0.0719
 2333TIP3   OH228413   6.220   5.451   4.328  0.3022 -0.5318  0.1960
 2333TIP3    H128414   6.277   5.454   4.405  1.1100  2.4241 -0.4086
 2333TIP3    H228415   6.193   5.542   4.314  0.9367 -0.7576 -3.5240
 2334TIP3   OH228416   2.406   2.491  12.105 -0.4612 -0.0423 -0.2562
 2334TIP3    H128417   2.425   2.565  12.163 -0.0698 -0.2814 -0.0673
 2334TIP3    H228418   2.311   2.488  12.099 -0.5204 -0.2289  0.6668
 2335TIP3   OH228419   0.181   3.321  10.582  0.0074 -0.3395  0.1274
 2335TIP3    H128420   0.201   3.411  10.557 -1.4486  0.0590  0.2785
 2335TIP3    H228421   0.193   3.320  10.677 -2.0124  0.3167  0.4373
 2336TIP3   OH228422   2.946   1.620   5.305 -0.8411  0.0778  0.0334
 2336TIP3    H128423   3.002   1.632   5.381 -2.0267 -2.7769  1.5048
 2336TIP3    H228424   2.865   1.667   5.326 -0.0653  1.9305 -0.9176
 2337TIP3   OH228425   0.219   2.087   4.438 -0.2464  0.5576  0.6824
 2337TIP3    H128426   0.277   2.039   4.497 -0.8051 -0.2487  0.5959
 2337TIP3    H228427   0.132   2.077   4.476 -0.3773  1.5388  0.6713
 2338TIP3   OH228428   2.956   6.405  15.804  0.1462 -0.3680 -0.0536
 2338TIP3    H128429   3.049   6.394  15.785  0.2885  2.4577 -1.5943
 2338TIP3    H228430   2.917   6.319  15.787  2.0511 -0.8524 -2.5267
 2339TIP3   OH228431   0.020   3.316  14.152  0.2608 -0.2462 -0.4278
 2339TIP3    H128432   0.082   3.383  14.179  0.8074 -0.8827 -0.0440
 2339TIP3    H228433  -0.057   3.329  14.208 -0.3304  1.0966 -1.5033
 2340TIP3   OH228434   4.396   1.818  10.539  0.1052  0.2566 -0.2437
 2340TIP3    H128435   4.354   1.738  10.570 -0.1890  0.5564  0.1386
 2340TIP3    H228436   4.451   1.846  10.612  1.3753 -0.3930 -0.9055
 2341TIP3   OH228437   4.976   2.546   1.574  0.5387 -0.0862  0.0059
 2341TIP3    H128438   4.988   2.536   1.668 -1.0174  0.1833  0.2738
 2341TIP3    H228439   4.964   2.457   1.541  2.8406 -0.3458 -0.2527
 2342TIP3   OH228440   6.478   6.449   1.279  0.0083  0.4825  0.1935
 2342TIP3    H128441   6.566   6.457   1.314 -0.9768  0.9777  2.8229
 2342TIP3    H228442   6.451   6.360   1.302 -0.4044  0.5631  0.0401
 2343TIP3   OH228443   6.495   3.030   3.721  0.3913 -0.2765 -0.0946
 2343TIP3    H128444   6.540   3.108   3.754 -0.1794 -0.2982  0.7846
 2343TIP3    H228445   6.500   2.967   3.794  0.6543 -0.9781 -0.7131
 2344TIP3   OH228446   2.312   4.639  12.059  1.2198  0.0267  0.9235
 2344TIP3    H128447   2.300   4.575  11.989  3.7383 -1.0522  1.3559
 2344TIP3    H228448   2.330   4.586  12.137 -0.2731  1.2308  2.1487
 2345TIP3   OH228449   4.982   1.347   2.220  0.6585  0.4756  0.2600
 2345TIP3    H128450   4.927   1.387   2.153  0.6219 -1.0779 -0.6995
 2345TIP3    H228451   5.071   1.354   2.184  0.4701 -1.8916 -0.8544
 2346TIP3   OH228452   0.861   4.687  11.214 -0.0617 -0.0591 -0.2166
 2346TIP3    H128453   0.827   4.730  11.135  0.2626  0.5449 -0.0350
 2346TIP3    H228454   0.955   4.707  11.214 -0.3225  1.4132  1.1997
 2347TIP3   OH228455   4.294   0.574   4.752  0.2701 -0.1691 -0.4212
 2347TIP3    H128456   4.333   0.631   4.686 -0.9199  2.0639  0.6730
 2347TIP3    H228457   4.227   0.628   4.794 -2.3491 -3.0017 -0.5774
 2348TIP3   OH228458   1.545   1.716  13.082  0.6196  0.3243 -0.2993
 2348TIP3    H128459   1.462   1.667  13.087  1.2154 -0.6446  0.3419
 2348TIP3    H228460   1.570   1.711  12.990  0.4908 -0.2716 -0.3026
 2349TIP3   OH228461   5.700   2.645  11.485 -0.4663 -0.1392  0.3335
 2349TIP3    H128462   5.717   2.622  11.393  0.7009  0.1600  0.4601
 2349TIP3    H228463   5.763   2.713  11.505 -0.7567 -0.1526  1.3506
 2350TIP3   OH228464   3.995   5.779  15.157  0.5035  0.2180 -0.0354
 2350TIP3    H128465   4.033   5.709  15.209 -0.5257 -0.4680 -0.1854
 2350TIP3    H228466   4.015   5.859  15.206  0.3065 -0.3347  0.9540
 2351TIP3   OH228467   3.362   6.324   0.771 -0.0581 -0.1899  0.4549
 2351TIP3    H128468   3.422   6.305   0.843 -0.1073 -1.0698  0.2828
 2351TIP3    H228469   3.275   6.323   0.811  0.0626  1.6071  0.8024
 2352TIP3   OH228470   2.139   2.482   3.841  0.3184 -0.2874  0.1784
 2352TIP3    H128471   2.055   2.492   3.796  1.2359  0.9047 -1.3660
 2352TIP3    H228472   2.153   2.387   3.844  0.6007 -0.4681 -2.9296
 2353TIP3   OH228473   3.977   1.181  14.061  0.1584  0.4026 -0.2617
 2353TIP3    H128474   3.973   1.183  13.966  1.0311  2.7148 -0.3301
 2353TIP3    H228475   3.962   1.272  14.087 -1.4316 -0.3838  1.9177
 2354TIP3   OH228476   0.754   3.292  13.791  0.3631 -0.1044 -0.0966
 2354TIP3    H128477   0.693   3.294  13.865 -0.4488  1.3602 -0.7415
 2354TIP3    H228478   0.840   3.300  13.830 -0.0940  1.4133  0.7043
 2355TIP3   OH228479   5.647   1.435   1.793 -0.0923 -0.1995 -0.0267
 2355TIP3    H128480   5.667   1.370   1.725  2.1998  1.1686 -0.7584
 2355TIP3    H228481   5.605   1.507   1.746 -0.3018 -0.0856  0.3365
 2356TIP3   OH228482   4.408   4.423  16.174 -0.5995 -0.1332 -0.0935
 2356TIP3    H128483   4.331   4.438  16.120  0.6601 -2.0097 -2.6009
 2356TIP3    H228484   4.439   4.337  16.148  1.4832 -0.1164  1.9872
 2357TIP3   OH228485   4.284   5.217   0.220 -0.1622  1.0110  0.1887
 2357TIP3    H128486   4.289   5.121   0.221  0.2058  1.0142  1.7831
 2357TIP3    H228487   4.191   5.236   0.209 -0.3056  0.4551  0.3763
 2358TIP3   OH228488   5.313   0.003   3.488  0.3505  0.5813  0.0388
 2358TIP3    H128489   5.369  -0.075   3.490 -0.2231  0.1499  2.3483
 2358TIP3    H228490   5.253  -0.013   3.415  2.5839  0.6621 -1.9546
 2359TIP3   OH228491   6.309   0.518  13.514 -0.3862 -0.3297 -0.0404
 2359TIP3    H128492   6.382   0.580  13.503  0.0550  0.0679  3.8040
 2359TIP3    H228493   6.348   0.444  13.560 -1.8401 -1.4911 -0.6322
 2360TIP3   OH228494   0.090   1.621  15.948  0.1623 -0.0873  0.2233
 2360TIP3    H128495   0.116   1.713  15.945 -0.5794  0.1147 -1.7244
 2360TIP3    H228496   0.171   1.574  15.966  0.4518  0.9581  1.8215
 2361TIP3   OH228497   6.364   2.895   2.899  0.3067  0.1012 -0.3251
 2361TIP3    H128498   6.346   2.972   2.845  0.2036 -1.0006 -1.9516
 2361TIP3    H228499   6.285   2.883   2.952 -0.7071 -0.2714 -1.8552
 2362TIP3   OH228500   5.456   4.465  16.311 -0.8305 -0.3123 -0.0458
 2362TIP3    H128501   5.421   4.394  16.364  0.1111 -1.2062 -0.5968
 2362TIP3    H228502   5.391   4.478  16.242 -1.5122  0.0891  0.6541
 2363TIP3   OH228503   0.076   5.268  11.964  0.1609 -0.5968 -0.2396
 2363TIP3    H128504   0.083   5.173  11.963 -0.7286 -0.6769 -0.9729
 2363TIP3    H228505  -0.013   5.285  11.932  0.1997  0.4688  0.1848
 2364TIP3   OH228506   1.798   1.332   3.619 -0.2008  0.6235  0.6099
 2364TIP3    H128507   1.849   1.257   3.587  0.6015  0.4664  2.1710
 2364TIP3    H228508   1.754   1.365   3.541  1.6088  0.2307 -0.6628
 2365TIP3   OH228509   1.960   3.363  14.864  0.5763 -0.0500  0.2860
 2365TIP3    H128510   2.051   3.391  14.870  0.6645  0.1715 -1.4577
 2365TIP3    H228511   1.915   3.437  14.824  0.4923 -1.6078 -2.8555
 2366TIP3   OH228512   1.305   0.863   3.874 -0.8379 -0.2540 -0.1016
 2366TIP3    H128513   1.367   0.790   3.875 -1.2985 -0.6583  1.0189
 2366TIP3    H228514   1.245   0.844   3.946 -2.1780  0.1971 -1.0676
 2367TIP3   OH228515   4.531   3.838   1.559  0.2707 -0.7445  0.1870
 2367TIP3    H128516   4.456   3.885   1.595  0.4177 -1.3991  1.3930
 2367TIP3    H228517   4.592   3.830   1.632  1.9622  0.6200 -1.0074
 2368TIP3   OH228518   6.168   0.881  14.495 -0.5558  0.1193  0.1529
 2368TIP3    H128519   6.235   0.886  14.426 -1.2534 -0.0952 -0.5564
 2368TIP3    H228520   6.180   0.961  14.546 -1.1879  1.2079 -1.3223
 2369TIP3   OH228521   1.096   1.111  14.225  0.0814  0.4812  0.0693
 2369TIP3    H128522   1.183   1.141  14.251 -0.3886 -0.0348  2.5389
 2369TIP3    H228523   1.037   1.179  14.259 -0.6390 -0.6866  1.2838
 2370TIP3   OH228524   3.828   1.143  12.721 -0.6082  0.1989  0.2152
 2370TIP3    H128525   3.757   1.207  12.724 -0.8498 -0.0587  0.0607
 2370TIP3    H228526   3.907   1.193  12.743 -0.2700  1.2885 -2.9076
 2371TIP3   OH228527   5.972   1.695   4.415 -0.4461  0.3886 -0.1164
 2371TIP3    H128528   6.009   1.741   4.490 -0.6649  0.1127  0.1637
 2371TIP3    H228529   5.992   1.602   4.432 -3.5006 -0.1099  1.3681
 2372TIP3   OH228530   6.706   5.956   2.237  1.0789  0.5030 -0.4124
 2372TIP3    H128531   6.659   5.881   2.200 -1.4739  2.2344 -1.0024
 2372TIP3    H228532   6.713   5.936   2.330 -1.1171  0.1894 -0.2412
 2373TIP3   OH228533   4.504   6.162  15.366 -0.5850 -0.7935  0.2106
 2373TIP3    H128534   4.476   6.230  15.305 -1.7469  1.1134  2.6894
 2373TIP3    H228535   4.457   6.084  15.338  0.0488 -0.4335 -2.1407
 2374TIP3   OH228536   1.296   5.430  16.366 -0.3128 -0.6735 -0.0653
 2374TIP3    H128537   1.361   5.375  16.321 -3.4605 -3.1869 -2.0892
 2374TIP3    H228538   1.238   5.367  16.409 -1.8503  1.3544  1.0011
 2375TIP3   OH228539   5.597   6.058  12.088 -0.4063  0.0639  0.2762
 2375TIP3    H128540   5.600   6.062  11.993  2.1637  0.7768  0.3007
 2375TIP3    H228541   5.534   6.125  12.113 -0.6011  0.3456 -0.9124
 2376TIP3   OH228542   3.629   3.372   0.198 -0.0156 -0.6720  0.4496
 2376TIP3    H128543   3.647   3.463   0.176 -1.5167  0.2203  2.5430
 2376TIP3    H228544   3.672   3.359   0.283 -2.4414 -0.8508  1.7534
 2377TIP3   OH228545   2.190   3.215  14.539  0.1217 -0.4122  0.1595
 2377TIP3    H128546   2.268   3.264  14.565 -0.1910  2.1250 -2.9822
 2377TIP3    H228547   2.220   3.157  14.469 -0.3736 -1.4238  0.7627
 2378TIP3   OH228548   1.057   4.692  11.964 -0.2459 -0.2476  0.1388
 2378TIP3    H128549   1.021   4.673  11.877 -0.4883 -0.9619  0.3916
 2378TIP3    H228550   0.980   4.702  12.019 -0.0791 -0.4344  0.4053
 2379TIP3   OH228551   0.803   2.269  14.961  0.1549  0.3602  0.2327
 2379TIP3    H128552   0.722   2.230  14.929 -0.4788  1.3057  0.6558
 2379TIP3    H228553   0.801   2.258  15.056  0.4818  0.4548  0.2550
 2380TIP3   OH228554   6.388   4.339   1.208 -0.3186 -0.0378  0.0589
 2380TIP3    H128555   6.457   4.273   1.201 -0.7693 -0.5575  0.5357
 2380TIP3    H228556   6.317   4.306   1.154 -0.5407  0.0657  0.2867
 2381TIP3   OH228557   3.951   6.402  12.057  0.1718  0.7127 -0.5105
 2381TIP3    H128558   3.934   6.447  11.974 -0.6910  0.0110 -0.7297
 2381TIP3    H228559   3.951   6.309  12.034 -3.2704  0.2657  0.7207
 2382TIP3   OH228560   4.641   4.087  11.477  0.3886  0.0526 -0.2672
 2382TIP3    H128561   4.576   4.029  11.515  0.9366 -0.5265 -0.2020
 2382TIP3    H228562   4.594   4.170  11.464 -0.0347  0.0155  0.8954
 2383TIP3   OH228563   4.590   2.898   1.642  0.3042 -0.3111  0.5208
 2383TIP3    H128564   4.547   2.876   1.724 -0.0290  0.6336  0.6079
 2383TIP3    H228565   4.670   2.846   1.642 -0.0005 -0.7936  1.1444
 2384TIP3   OH228566   0.026   3.085   5.140 -0.1649 -0.2961 -0.2894
 2384TIP3    H128567   0.010   2.991   5.147  0.5155 -0.4884 -1.2258
 2384TIP3    H228568   0.043   3.101   5.047  0.2248  0.6674 -0.0725
 2385TIP3   OH228569   5.329   2.396   3.590 -0.3683  0.3349  0.1619
 2385TIP3    H128570   5.371   2.343   3.522  0.1537  1.2330 -0.2237
 2385TIP3    H228571   5.254   2.436   3.546  0.5668  1.7500 -0.1901
 2386TIP3   OH228572   5.386   1.760  14.449 -0.2511 -0.0190  0.4865
 2386TIP3    H128573   5.329   1.816  14.397  1.1173 -1.1177 -2.4332
 2386TIP3    H228574   5.363   1.671  14.422  0.5658 -0.6604  1.7894
 2387TIP3   OH228575   5.918   1.659  11.805  0.2848  0.4644  0.9410
 2387TIP3    H128576   5.965   1.671  11.723 -0.9240  0.3632  0.2040
 2387TIP3    H228577   5.947   1.732  11.860  1.8032  0.0064  0.7762
 2388TIP3   OH228578   5.887   3.098   3.002 -0.1050  0.7328  0.2178
 2388TIP3    H128579   5.886   3.182   2.957  0.1911  0.1435 -0.9166
 2388TIP3    H228580   5.980   3.076   3.012 -0.1833  0.3118  0.0631
 2389TIP3   OH228581   1.501   0.367   3.054 -0.0805 -0.1293  0.1971
 2389TIP3    H128582   1.496   0.404   2.966 -0.1320 -2.4613 -0.8809
 2389TIP3    H228583   1.541   0.435   3.108 -0.3474  1.4804 -1.5468
 2390TIP3   OH228584   3.604   0.859   3.899 -0.0221  0.7219  0.3278
 2390TIP3    H128585   3.665   0.839   3.828 -0.0247 -0.3774  0.6066
 2390TIP3    H228586   3.651   0.834   3.978 -1.6384 -2.5101  0.4228
 2391TIP3   OH228587   3.265   5.110  16.394  0.0240 -0.6855 -0.3837
 2391TIP3    H128588   3.324   5.183  16.377 -1.7377  1.1440  0.9683
 2391TIP3    H228589   3.316   5.051  16.451  0.8144  0.4827  0.1644
 2392TIP3   OH228590   4.779   6.345   0.480 -0.7095 -0.2127 -0.1938
 2392TIP3    H128591   4.837   6.313   0.412 -1.4416  0.4590 -1.1622
 2392TIP3    H228592   4.703   6.286   0.477 -0.4624 -0.5873  0.5113
 2393TIP3   OH228593   6.509   0.787  14.598 -0.2560 -0.0754 -0.2587
 2393TIP3    H128594   6.565   0.802  14.675 -0.4831 -0.4728 -0.0117
 2393TIP3    H228595   6.569   0.755  14.531 -0.2622 -1.0390  0.1763
 2394TIP3   OH228596   0.209   2.765  15.724 -0.4695  0.1849 -0.5365
 2394TIP3    H128597   0.176   2.855  15.730 -0.3126  0.2235 -0.2682
 2394TIP3    H228598   0.224   2.739  15.815  0.2137  0.1547 -0.6570
 2395TIP3   OH228599   3.555   5.704   2.371 -0.1534  0.2721  0.2541
 2395TIP3    H128600   3.460   5.696   2.378  0.0133 -1.5076  0.9199
 2395TIP3    H228601   3.569   5.788   2.327 -2.1154 -0.4153 -1.8884
 2396TIP3   OH228602   0.779   1.767   6.112  0.4251 -0.7096 -0.0344
 2396TIP3    H128603   0.723   1.771   6.190  1.5743 -1.9741  0.9032
 2396TIP3    H228604   0.826   1.850   6.112 -1.0086  0.1295 -0.5128
 2397TIP3   OH228605   0.874   6.295  13.041  0.7407  0.2403 -0.0804
 2397TIP3    H128606   0.843   6.264  13.127 -2.2502  2.1152 -0.3024
 2397TIP3    H228607   0.963   6.326  13.058  0.2170  0.6621  2.4279
 2398TIP3   OH228608   2.425   3.701  11.923 -0.5153  0.1794 -0.0700
 2398TIP3    H128609   2.519   3.721  11.927 -0.7140  1.3267 -0.8115
 2398TIP3    H228610   2.418   3.634  11.855 -0.2011 -0.1703  0.2353
 2399TIP3   OH228611   6.155   6.516  10.730 -0.5647  0.2852  0.1679
 2399TIP3    H128612   6.242   6.476  10.721 -0.4106  0.7594 -0.4781
 2399TIP3    H228613   6.111   6.496  10.648 -1.0362  0.1483  0.4473
 2400TIP3   OH228614   2.636   5.721   0.354 -0.0732  0.3640  0.0067
 2400TIP3    H128615   2.571   5.674   0.407  1.0767  0.4405  1.5853
 2400TIP3    H228616   2.600   5.720   0.265 -2.4607  0.8494  0.8792
 2401TIP3   OH228617   4.718   3.414  16.407 -0.1379 -0.8911 -0.1106
 2401TIP3    H128618   4.767   3.332  16.401  2.3072  0.4707 -0.0432
 2401TIP3    H228619   4.767   3.475  16.353 -1.0906  0.9031  0.9680
 2402TIP3   OH228620   2.786   6.490   3.821 -0.0140  0.7119  0.0424
 2402TIP3    H128621   2.758   6.455   3.905  2.7662 -0.0282  0.7695
 2402TIP3    H228622   2.781   6.585   3.832  1.9340  0.6797  1.7369
 2403TIP3   OH228623   4.453   1.152  12.642  0.3028 -0.4447 -0.3584
 2403TIP3    H128624   4.482   1.083  12.701 -1.5917 -1.2002 -0.2108
 2403TIP3    H228625   4.463   1.113  12.554  1.7837  0.1462 -0.4736
 2404TIP3   OH228626   3.869   0.534  15.341  0.4414  0.5429 -0.1178
 2404TIP3    H128627   3.813   0.571  15.410 -0.5037 -0.6510 -0.1997
 2404TIP3    H228628   3.957   0.535  15.379 -0.1282 -0.5580  1.3443
 2405TIP3   OH228629   0.295   6.382   4.167 -0.2999  0.0203 -0.2687
 2405TIP3    H128630   0.326   6.386   4.077  0.1974 -1.3198 -0.1877
 2405TIP3    H228631   0.333   6.301   4.202 -1.3653 -0.0506  0.8118
 2406TIP3   OH228632   0.046   2.837   1.034  0.0592 -0.1385  0.1669
 2406TIP3    H128633   0.043   2.757   1.087 -0.4489 -1.0167 -1.1380
 2406TIP3    H228634   0.103   2.815   0.961 -0.8157  0.3822 -0.6923
 2407TIP3   OH228635   4.507   0.194   3.246 -0.2258  0.0334  0.2397
 2407TIP3    H128636   4.578   0.256   3.264 -2.0484  2.4514 -0.3897
 2407TIP3    H228637   4.550   0.109   3.242  2.3258  1.1235  1.8191
 2408TIP3   OH228638   2.454   1.917   0.276  0.0946  0.0173  0.1239
 2408TIP3    H128639   2.441   1.822   0.281  0.3824  0.0560  2.0758
 2408TIP3    H228640   2.365   1.952   0.263  0.1095 -0.5436 -1.7755
 2409TIP3   OH228641   2.922   6.015  15.101  0.2956  0.2569 -0.1504
 2409TIP3    H128642   2.900   6.047  15.013 -0.4234 -1.6981 -0.7159
 2409TIP3    H228643   3.016   6.031  15.109  1.4206 -3.4145 -3.0842
 2410TIP3   OH228644   1.870   5.865   5.058  0.7517 -0.5225 -0.5579
 2410TIP3    H128645   1.852   5.952   5.024  2.0285  0.3133  0.7936
 2410TIP3    H228646   1.962   5.849   5.037  1.8068  0.2750  2.7157
 2411TIP3   OH228647   1.213   1.947   2.977  0.3057  0.5261  0.1083
 2411TIP3    H128648   1.249   2.034   2.961 -0.4782  0.9788  0.7538
 2411TIP3    H228649   1.209   1.940   3.072  2.3016 -1.0399  0.1416
 2412TIP3   OH228650   6.014   5.329  11.712  0.2555 -0.0217 -0.0283
 2412TIP3    H128651   5.981   5.415  11.685 -0.1489 -0.3130 -0.4739
 2412TIP3    H228652   6.048   5.343  11.800  0.5596  0.6871 -0.2491
 2413TIP3   OH228653   1.731   3.370   2.554  0.0894 -0.4235 -0.4038
 2413TIP3    H128654   1.779   3.317   2.618 -1.2062 -1.9641 -0.6326
 2413TIP3    H228655   1.794   3.385   2.484  0.6777 -1.1873 -0.0655
 2414TIP3   OH228656   3.719   0.402  11.408  0.1663  0.1274 -0.1986
 2414TIP3    H128657   3.684   0.372  11.492  2.7740  1.2381  1.3988
 2414TIP3    H228658   3.642   0.414  11.353 -1.5813 -1.3355  1.7861
 2415TIP3   OH228659   4.331   0.292  14.863  0.5397  0.1007  0.4419
 2415TIP3    H128660   4.370   0.221  14.913 -0.7044  0.5503  2.1322
 2415TIP3    H228661   4.276   0.247  14.798  0.2330 -0.5099  1.1008
 2416TIP3   OH228662   5.134   6.661  13.304 -0.2250  0.0705 -0.4160
 2416TIP3    H128663   5.177   6.745  13.290  2.1888 -0.9871  0.1692
 2416TIP3    H228664   5.156   6.637  13.394  1.8524 -2.5594 -1.4651
 2417TIP3   OH228665   1.248   5.411   3.939  0.1466 -0.0235 -0.3029
 2417TIP3    H128666   1.265   5.501   3.909 -0.2099 -0.1784 -0.9882
 2417TIP3    H228667   1.331   5.383   3.976  0.5632  0.2393 -1.0081
 2418TIP3   OH228668   5.259   4.347  12.805  0.5079  0.1166 -0.2983
 2418TIP3    H128669   5.350   4.377  12.804 -0.2786  2.7935 -0.0956
 2418TIP3    H228670   5.242   4.329  12.898  0.1204  2.2336  0.0863
 2419TIP3   OH228671   0.186   3.407   4.406 -0.1586  0.8299  0.0624
 2419TIP3    H128672   0.205   3.479   4.465 -0.9773  1.3388 -0.2737
 2419TIP3    H228673   0.128   3.349   4.456  1.3034 -0.1345  0.6886
 2420TIP3   OH228674   5.358   0.033   2.956 -0.4940 -0.5236  0.5729
 2420TIP3    H128675   5.415   0.096   2.912  0.3235 -1.2493  0.5690
 2420TIP3    H228676   5.417  -0.019   3.010 -1.3323 -0.4183  1.6264
 2421TIP3   OH228677   3.282   5.195   1.290 -0.2281 -0.4834 -0.6116
 2421TIP3    H128678   3.359   5.250   1.306 -0.4462  0.5007 -2.5762
 2421TIP3    H228679   3.211   5.241   1.336  0.1766 -0.9353  0.4957
 2422TIP3   OH228680   4.436   4.825  10.228 -0.3036 -0.2405  0.0354
 2422TIP3    H128681   4.435   4.857  10.318  2.0353 -1.5931  0.6258
 2422TIP3    H228682   4.515   4.771  10.222 -0.3750 -0.2092 -2.8430
 2423TIP3   OH228683   1.192   2.806   2.745 -0.1556  0.1216  0.4273
 2423TIP3    H128684   1.190   2.724   2.695 -0.2617  1.2600 -1.5588
 2423TIP3    H228685   1.122   2.858   2.707 -1.4719  0.4008  3.0735
 2424TIP3   OH228686   2.888   4.967  15.535  0.3325  0.1526  0.1185
 2424TIP3    H128687   2.873   5.044  15.591  2.2656  0.0640  0.8392
 2424TIP3    H228688   2.801   4.930  15.522 -0.2389  0.1935  3.0865
 2425TIP3   OH228689   5.544   6.164  16.474  0.7916 -0.4017 -0.4953
 2425TIP3    H128690   5.612   6.228  16.498  1.2131 -1.1098  0.2946
 2425TIP3    H228691   5.462   6.209  16.489  1.0719 -0.3322  0.9571
 2426TIP3   OH228692   3.587   2.255  13.377  0.4632  0.2507  0.2615
 2426TIP3    H128693   3.501   2.296  13.362  0.4838  0.1849 -0.0299
 2426TIP3    H228694   3.567   2.162  13.388  0.6965 -0.0864 -1.8142
 2427TIP3   OH228695   6.549   4.576  14.715  0.2041  0.1127  0.5165
 2427TIP3    H128696   6.643   4.595  14.724  0.5514 -1.2645 -0.0156
 2427TIP3    H228697   6.536   4.566  14.621 -0.4555  0.1228  0.6046
 2428TIP3   OH228698   5.553   5.993  12.791 -0.3128 -0.0714 -0.4546
 2428TIP3    H128699   5.609   5.955  12.858 -1.2882 -0.9287 -0.0869
 2428TIP3    H228700   5.610   6.006  12.716  0.4199 -0.7507 -0.0354
 2429TIP3   OH228701   6.043   4.396  14.937 -0.3145 -0.2829  0.5692
 2429TIP3    H128702   5.962   4.399  14.886  0.3200 -1.6555 -0.5808
 2429TIP3    H228703   6.103   4.455  14.892  0.3264 -1.6840 -0.4648
 2430TIP3   OH228704   3.668   4.339  14.462  0.5127  0.0797 -0.1052
 2430TIP3    H128705   3.632   4.397  14.529  0.4289  1.3311 -1.1912
 2430TIP3    H228706   3.613   4.261  14.466 -0.0814  0.5228  0.6425
 2431TIP3   OH228707   2.105   0.397  11.644 -0.8511  0.2737  0.2075
 2431TIP3    H128708   2.025   0.373  11.597 -1.2893 -0.0731  1.1092
 2431TIP3    H228709   2.156   0.316  11.648  0.7176  1.0206 -2.5184
 2432TIP3   OH228710   3.627   1.379  15.329  0.2994  0.1459 -0.2352
 2432TIP3    H128711   3.710   1.423  15.343 -0.0376  0.6457  0.2439
 2432TIP3    H228712   3.586   1.377  15.416  0.3269 -1.1600 -0.2332
 2433TIP3   OH228713   6.735   0.963   4.305 -0.2188  0.3086  0.4442
 2433TIP3    H128714   6.765   1.033   4.248 -0.6021 -1.6695 -2.4261
 2433TIP3    H228715   6.802   0.895   4.296 -1.0573 -0.6425  1.1389
 2434TIP3   OH228716   2.903   0.666  10.804  0.6562  0.3239  0.0508
 2434TIP3    H128717   2.883   0.575  10.826 -0.6448  0.8895  1.3056
 2434TIP3    H228718   2.878   0.675  10.712 -1.3675 -0.0260  0.5202
 2435TIP3   OH228719   5.348   2.218  16.465 -0.2192  0.2122 -0.1993
 2435TIP3    H128720   5.381   2.156  16.530  0.6245 -0.5741 -1.3434
 2435TIP3    H228721   5.302   2.284  16.517  0.1437 -0.5610  1.1673
 2436TIP3   OH228722   1.577   6.776  12.905 -0.2029  0.1373 -0.0899
 2436TIP3    H128723   1.522   6.854  12.899 -0.1671  0.1578 -0.1408
 2436TIP3    H228724   1.645   6.800  12.968 -1.6394 -0.6979  1.8922
 2437TIP3   OH228725   4.577   3.078  15.561 -0.0532  0.1719 -0.5760
 2437TIP3    H128726   4.482   3.077  15.576  0.0104  0.1131 -0.1671
 2437TIP3    H228727   4.591   3.009  15.495 -0.0654 -1.1874  0.7949
 2438TIP3   OH228728   6.481   0.996   6.092 -0.1323 -0.4502 -0.5746
 2438TIP3    H128729   6.427   1.049   6.034 -2.2718 -0.6200  1.1317
 2438TIP3    H228730   6.483   1.046   6.174  1.1372 -1.1590 -0.1554
 2439TIP3   OH228731   0.640   4.640  12.777  0.1172 -0.2337  0.6292
 2439TIP3    H128732   0.683   4.642  12.691 -0.9673 -0.5454  0.0555
 2439TIP3    H228733   0.662   4.554  12.813  2.1212  0.5867  1.5261
 2440TIP3   OH228734   5.879   3.469  11.144 -0.6175 -0.7668 -0.2450
 2440TIP3    H128735   5.914   3.476  11.055  0.7161 -0.8232  0.2540
 2440TIP3    H228736   5.877   3.559  11.176 -1.0314 -0.7547 -0.2927
 2441TIP3   OH228737   3.659   3.618  11.627 -0.4472 -0.3359  0.4868
 2441TIP3    H128738   3.646   3.600  11.720  0.0024 -1.0755  0.4202
 2441TIP3    H228739   3.592   3.683  11.605 -1.3448 -1.0423  1.0585
 2442TIP3   OH228740   0.745   1.526  15.833 -0.3827  0.5702  0.0408
 2442TIP3    H128741   0.738   1.478  15.751 -0.3288  2.2027 -0.9808
 2442TIP3    H228742   0.729   1.461  15.901  2.5942 -1.5172 -1.0681
 2443TIP3   OH228743   4.713   2.013   5.164 -0.4454 -0.1692  0.3766
 2443TIP3    H128744   4.721   1.925   5.126  1.8832  0.4554 -0.7875
 2443TIP3    H228745   4.630   2.046   5.129 -1.1791 -1.7416  0.5273
 2444TIP3   OH228746   5.968   6.110   3.583 -0.7597 -0.4291 -0.5811
 2444TIP3    H128747   6.044   6.079   3.632 -1.2169 -1.9353 -0.7880
 2444TIP3    H228748   5.994   6.198   3.553  0.1326 -0.1073  0.9778
 2445TIP3   OH228749   1.628   5.393  11.123 -0.0040 -0.1496 -0.1040
 2445TIP3    H128750   1.719   5.375  11.101  0.2755  0.2941  0.6367
 2445TIP3    H228751   1.633   5.453  11.198 -0.9011  0.4211 -0.4844
 2446TIP3   OH228752   4.530   6.647   4.885 -0.5791 -0.6618 -0.3822
 2446TIP3    H128753   4.613   6.643   4.933 -1.0722  1.0505  0.7203
 2446TIP3    H228754   4.528   6.567   4.833  0.8994 -1.6481  0.9806
 2447TIP3   OH228755   0.824   2.678  12.956  0.1412 -0.4008 -0.5217
 2447TIP3    H128756   0.878   2.750  12.925  1.5027 -1.1738 -0.0587
 2447TIP3    H228757   0.795   2.705  13.043  3.0475 -1.4959  0.9303
 2448TIP3   OH228758   5.971   2.929  16.969  0.5498  0.3837  0.1474
 2448TIP3    H128759   5.888   2.974  16.986 -0.1506 -1.5715  2.4571
 2448TIP3    H228760   6.033   2.969  17.029  0.3942 -0.4245  0.8607
 2449TIP3   OH228761   1.093   5.621  12.911  0.3461 -0.2133  0.1822
 2449TIP3    H128762   1.105   5.529  12.886  0.8561 -0.1218  0.0813
 2449TIP3    H228763   1.171   5.643  12.961  1.0981  0.6859 -1.3258
 2450TIP3   OH228764   0.152   0.258  11.335  0.1299  0.4820  0.2377
 2450TIP3    H128765   0.202   0.176  11.342  1.1572  1.1862  1.5052
 2450TIP3    H228766   0.185   0.299  11.255  2.9483  1.7380  1.8786
 2451TIP3   OH228767   5.194   4.191   3.357  0.4235  0.3341 -0.0346
 2451TIP3    H128768   5.201   4.243   3.437 -0.8232 -0.1937  0.4397
 2451TIP3    H228769   5.211   4.253   3.287  1.6635  0.7814  0.6256
 2452TIP3   OH228770   1.416   2.713   2.265  0.0148 -0.0369  0.0110
 2452TIP3    H128771   1.351   2.729   2.197  0.5814  1.9841 -0.1056
 2452TIP3    H228772   1.438   2.620   2.255 -0.8890 -0.1127 -1.6655
 2453TIP3   OH228773   6.765   4.035  11.471  0.5458  0.2712 -0.4302
 2453TIP3    H128774   6.680   4.025  11.428 -0.1839 -0.3601  1.0872
 2453TIP3    H228775   6.809   4.105  11.421 -2.0649  2.8055  0.5287
 2454TIP3   OH228776   4.356   1.314  15.699  0.2313 -0.4141  0.6390
 2454TIP3    H128777   4.355   1.245  15.765 -0.1606  0.0140  1.0856
 2454TIP3    H228778   4.419   1.284  15.634  0.9246 -0.6494  1.4084
 2455TIP3   OH228779   5.981   4.115   1.874  0.2542  0.2350  0.3524
 2455TIP3    H128780   6.073   4.128   1.897  0.2721  0.9462 -0.0867
 2455TIP3    H228781   5.966   4.021   1.887  1.2846 -0.0564 -0.4266
 2456TIP3   OH228782   4.992   3.587  16.426 -0.0861 -0.3668  0.2756
 2456TIP3    H128783   5.009   3.568  16.518 -2.2203 -2.8327  0.2711
 2456TIP3    H228784   4.913   3.641  16.427  0.7301  0.8786 -0.1069
 2457TIP3   OH228785   4.820   3.257   2.648  0.6671 -0.1960 -0.2499
 2457TIP3    H128786   4.820   3.169   2.685  0.9529 -0.9378 -1.9098
 2457TIP3    H228787   4.895   3.259   2.588  0.3313  0.9832 -0.6753
 2458TIP3   OH228788   2.201   6.571  14.791  0.3623  0.2048  0.0574
 2458TIP3    H128789   2.116   6.531  14.808  0.7474 -0.2295  1.0148
 2458TIP3    H228790   2.180   6.660  14.761 -0.5059 -0.6912 -2.1711
 2459TIP3   OH228791   2.372   2.993   1.536 -0.2633 -0.6247 -0.1870
 2459TIP3    H128792   2.426   3.060   1.495 -0.0755  0.3333  1.5285
 2459TIP3    H228793   2.415   2.975   1.620 -2.4027  0.0097  1.1496
 2460TIP3   OH228794   5.181   2.286  11.529  0.6966  0.1413 -0.0022
 2460TIP3    H128795   5.181   2.255  11.438  0.9061 -1.1805  0.4181
 2460TIP3    H228796   5.090   2.307  11.548  0.5881  0.0269 -0.3968
 2461TIP3   OH228797   2.258   1.900   0.881 -0.1848 -0.0906 -0.3525
 2461TIP3    H128798   2.266   1.952   0.800 -4.0730  0.3828 -0.6332
 2461TIP3    H228799   2.271   1.964   0.951  0.7002  0.0166 -0.5944
 2462TIP3   OH228800   3.889   3.752   3.102  0.0321  0.7001  0.3037
 2462TIP3    H128801   3.905   3.692   3.029 -0.4280  1.7386 -0.6776
 2462TIP3    H228802   3.955   3.729   3.167 -0.0198 -0.7416 -0.1160
 2463TIP3   OH228803   2.582   2.196   5.026 -0.1700 -0.2148 -0.7176
 2463TIP3    H128804   2.593   2.291   5.020  0.0688 -0.2572 -0.9508
 2463TIP3    H228805   2.495   2.184   5.065 -0.8780  0.0800 -2.1565
 2464TIP3   OH228806   2.055   4.823  10.785  0.1041  0.1685 -0.3100
 2464TIP3    H128807   2.073   4.762  10.714 -0.5827  1.1389 -1.3539
 2464TIP3    H228808   1.974   4.867  10.759  0.3372  1.2020  0.6246
 2465TIP3   OH228809   2.209   5.278  13.272  0.0003 -0.1129  0.2841
 2465TIP3    H128810   2.169   5.263  13.187 -0.1618 -0.9630  0.5009
 2465TIP3    H228811   2.276   5.210  13.279  0.6774  0.5500  0.4307
 2466TIP3   OH228812   0.540   2.944   3.242 -0.4976 -0.6380 -0.0891
 2466TIP3    H128813   0.562   3.009   3.308  1.2217  0.5627 -1.7410
 2466TIP3    H228814   0.501   2.872   3.292  0.9133  0.0969  2.2488
 2467TIP3   OH228815   0.773   3.106  15.625  0.3504 -0.3825 -0.1840
 2467TIP3    H128816   0.743   3.036  15.682  0.7450 -0.0819  0.4120
 2467TIP3    H228817   0.701   3.121  15.564  0.7326 -2.1192 -1.1021
 2468TIP3   OH228818   2.313   2.639  16.808 -0.5449  0.1115 -0.0600
 2468TIP3    H128819   2.396   2.624  16.762  0.7137  0.8801  1.8465
 2468TIP3    H228820   2.284   2.724  16.777 -0.0565  0.3262  0.0622
 2469TIP3   OH228821   2.341   6.293  13.080  0.0057  0.1480 -0.1856
 2469TIP3    H128822   2.386   6.231  13.023  0.9733  0.5921  0.0641
 2469TIP3    H228823   2.351   6.257  13.168  0.9658  0.8491  0.0166
 2470TIP3   OH228824   1.161   2.420   2.912 -0.0607 -0.6034  0.8592
 2470TIP3    H128825   1.181   2.463   2.995 -0.0199 -3.2380  2.2976
 2470TIP3    H228826   1.082   2.464   2.880 -0.7315 -0.2686  2.8567
 2471TIP3   OH228827   0.716   3.537  15.805  0.5665 -0.0164  0.2569
 2471TIP3    H128828   0.774   3.462  15.794  0.4444  0.0615 -1.0754
 2471TIP3    H228829   0.773   3.614  15.801  0.5719  0.0077  0.6843
 2472TIP3   OH228830   3.720   3.714  14.238 -0.3955  0.2834  0.6346
 2472TIP3    H128831   3.645   3.716  14.179 -0.8119  2.1932  1.1506
 2472TIP3    H228832   3.731   3.622  14.261 -1.3282 -0.2668 -1.0055
 2473TIP3   OH228833   1.602   6.187  14.718 -0.1282  0.3553 -0.7112
 2473TIP3    H128834   1.595   6.149  14.805 -0.3898  1.7751 -0.0943
 2473TIP3    H228835   1.670   6.135  14.675  0.8580  0.3732  0.7499
 2474TIP3   OH228836   2.160   2.683  12.948  0.0131 -0.0901 -0.0621
 2474TIP3    H128837   2.103   2.754  12.975 -2.6794 -2.7316  1.8686
 2474TIP3    H228838   2.138   2.669  12.856 -0.6600  0.5254 -0.0058
 2475TIP3   OH228839   2.074   6.426  16.912  0.3274  0.4394  0.3213
 2475TIP3    H128840   2.161   6.395  16.938 -0.4942 -0.6902  1.9188
 2475TIP3    H228841   2.024   6.345  16.898 -0.8827  1.0550  0.9679
 2476TIP3   OH228842   2.603   0.008   3.675 -0.0017  0.1587 -0.0240
 2476TIP3    H128843   2.609   0.103   3.661 -0.8456 -0.0655 -2.3198
 2476TIP3    H228844   2.666  -0.029   3.614  0.4552 -0.7893  0.9849
 2477TIP3   OH228845   2.532   1.543  15.346  0.7049 -0.2288  0.1391
 2477TIP3    H128846   2.553   1.461  15.392  1.7308 -0.4966 -0.7523
 2477TIP3    H228847   2.609   1.599  15.360  0.7434 -0.0652 -0.6555
 2478TIP3   OH228848   5.668   0.059   5.596  0.6632 -0.3805  0.3575
 2478TIP3    H128849   5.606   0.112   5.546  0.1282 -0.6047  0.7729
 2478TIP3    H228850   5.653   0.083   5.687  0.9947 -0.6391  0.4843
 2479TIP3   OH228851   1.159   2.790   0.830 -0.0291  0.0804 -0.3459
 2479TIP3    H128852   1.129   2.869   0.786 -1.5316 -0.4906 -0.4132
 2479TIP3    H228853   1.168   2.725   0.760 -2.7230 -0.9205  0.1180
 2480TIP3   OH228854   2.158   6.360   4.588  0.8488  0.2936 -0.1535
 2480TIP3    H128855   2.218   6.288   4.567  2.1287  1.6351 -1.3330
 2480TIP3    H228856   2.106   6.372   4.508 -0.5773 -0.4172  0.6295
 2481TIP3   OH228857   2.837   1.284   0.711  0.0739  0.6640 -0.2084
 2481TIP3    H128858   2.908   1.243   0.760 -0.3481  2.7968  2.4139
 2481TIP3    H228859   2.758   1.238   0.739 -0.0256  1.0452  0.1475
 2482TIP3   OH228860   0.033   2.843  11.808  0.3609 -0.4945  0.4861
 2482TIP3    H128861  -0.036   2.809  11.751  0.6862 -0.5103  0.0958
 2482TIP3    H228862   0.006   2.818  11.896 -0.8879  0.7958  0.5054
 2483TIP3   OH228863   6.345   6.632   0.524  0.0801 -0.5166  0.2120
 2483TIP3    H128864   6.372   6.722   0.507 -0.3784 -0.3035  0.6034
 2483TIP3    H228865   6.278   6.639   0.592 -0.9394 -1.0382 -0.7208
 2484TIP3   OH228866   4.395   4.103   2.688  0.0124 -0.4816  0.3303
 2484TIP3    H128867   4.488   4.094   2.667 -0.0427 -0.4965  0.0901
 2484TIP3    H228868   4.394   4.149   2.772  0.2525 -1.1559  0.7088
 2485TIP3   OH228869   1.243   4.609   1.754 -0.0811 -0.3230  0.2410
 2485TIP3    H128870   1.312   4.626   1.690 -0.6289 -1.5246 -0.7133
 2485TIP3    H228871   1.170   4.665   1.727  0.3005  0.5159  0.9080
 2486TIP3   OH228872   1.617   4.381   1.313 -0.2195  0.2036 -0.1602
 2486TIP3    H128873   1.522   4.390   1.320 -0.3152 -1.1876  0.8318
 2486TIP3    H228874   1.650   4.470   1.320 -1.5041  0.9310 -2.3242
 2487TIP3   OH228875   1.383   4.390  14.792  0.0162  0.3885  0.1015
 2487TIP3    H128876   1.452   4.350  14.844 -1.6402 -0.9468  1.4064
 2487TIP3    H228877   1.370   4.330  14.718  0.0645  0.4808  0.0181
 2488TIP3   OH228878   1.872   5.166  14.059 -0.3636  0.1474  0.0378
 2488TIP3    H128879   1.785   5.161  14.021  0.9441 -0.1601 -3.2556
 2488TIP3    H228880   1.878   5.256  14.092 -1.6572  0.4049 -0.3676
 2489TIP3   OH228881   0.292   6.684  14.585 -0.4956 -0.4782 -0.2715
 2489TIP3    H128882   0.287   6.766  14.536 -1.0338  1.0070  2.1254
 2489TIP3    H228883   0.211   6.638  14.562 -0.9492  0.3785 -0.4408
 2490TIP3   OH228884   1.286   6.330   3.139 -0.2681 -0.1527  0.2349
 2490TIP3    H128885   1.251   6.339   3.227  0.4776  3.1404  0.3165
 2490TIP3    H228886   1.225   6.380   3.084  0.2352 -0.7120 -0.8757
 2491TIP3   OH228887   0.796   0.908   2.045  0.2149 -0.2343  0.3240
 2491TIP3    H128888   0.823   0.837   2.103 -0.6887 -0.8873 -0.0339
 2491TIP3    H228889   0.706   0.927   2.070 -0.0258 -0.1959 -0.5324
 2492TIP3   OH228890   6.099   3.441   6.091  0.5068  0.1108  0.0154
 2492TIP3    H128891   6.108   3.461   6.185 -1.9502 -1.9818  0.8195
 2492TIP3    H228892   6.168   3.377   6.074  0.5522  0.0004  0.5778
 2493TIP3   OH228893   2.224   0.522   5.841  0.1792 -0.2852 -0.0879
 2493TIP3    H128894   2.188   0.610   5.838  0.0355 -0.3288  0.2878
 2493TIP3    H228895   2.150   0.466   5.864  0.4274 -0.4072  0.4239
 2494TIP3   OH228896   5.089   3.391  14.863 -0.2086  0.1341 -0.2721
 2494TIP3    H128897   5.007   3.401  14.910  0.1671  0.2480  0.3632
 2494TIP3    H228898   5.069   3.330  14.792 -0.6667 -0.3816  0.2955
 2495TIP3   OH228899   2.849   4.628   3.805 -0.2265  0.0010 -0.1878
 2495TIP3    H128900   2.777   4.577   3.768 -2.2124  1.7096  1.0993
 2495TIP3    H228901   2.810   4.713   3.826  1.9199  0.6743  1.4658
 2496TIP3   OH228902   4.471   3.687   2.043  0.1715 -0.7677  0.7772
 2496TIP3    H128903   4.435   3.753   1.983  2.2854  0.1491  0.4420
 2496TIP3    H228904   4.452   3.720   2.130  1.5738  0.5461  0.6139
 2497TIP3   OH228905   1.416   5.644  13.102  0.5213  0.5021  0.3468
 2497TIP3    H128906   1.413   5.692  13.019  3.1314  0.5476  0.1900
 2497TIP3    H228907   1.390   5.555  13.079  0.7963  0.6166 -0.4523
 2498TIP3   OH228908   4.382   2.379   4.149  0.3094 -0.0550 -0.4261
 2498TIP3    H128909   4.389   2.285   4.130 -1.9240 -0.2687 -0.4878
 2498TIP3    H228910   4.359   2.419   4.065 -0.3243  0.3008 -0.0950
 2499TIP3   OH228911   3.288   5.499  13.808  0.1690  0.2463 -0.1576
 2499TIP3    H128912   3.261   5.533  13.894 -0.0452  1.0227 -0.5202
 2499TIP3    H228913   3.333   5.417  13.828  0.4490  0.5987  0.7358
 2500TIP3   OH228914   0.792   0.952  14.378 -0.7130  0.4028 -0.4834
 2500TIP3    H128915   0.787   0.889  14.307  1.6191 -0.2885 -0.1307
 2500TIP3    H228916   0.782   0.900  14.457 -0.2411  0.6743 -0.2387
 2501TIP3   OH228917   5.102   3.381   0.953  0.1874 -0.3651 -0.5222
 2501TIP3    H128918   5.046   3.316   0.993  0.5109  0.1190  0.7499
 2501TIP3    H228919   5.092   3.459   1.008  1.2262  0.0770 -0.9339
 2502TIP3   OH228920   4.660   1.111  16.002  0.0609  0.2228  0.2010
 2502TIP3    H128921   4.688   1.199  16.028 -1.2746  0.2726  1.6497
 2502TIP3    H228922   4.655   1.063  16.085 -0.2616 -0.9085 -0.4604
 2503TIP3   OH228923   5.453   3.919   6.428  0.4462  0.0983 -0.4929
 2503TIP3    H128924   5.464   3.983   6.498 -0.3440 -0.9887  0.6731
 2503TIP3    H228925   5.388   3.857   6.462 -0.4521 -0.1270 -2.4389
 2504TIP3   OH228926   1.318   0.235   5.074  0.0959 -0.0771 -0.0750
 2504TIP3    H128927   1.247   0.175   5.095  1.0457 -1.0759  0.4032
 2504TIP3    H228928   1.326   0.233   4.979 -0.6856  0.2487 -0.1477
 2505TIP3   OH228929   0.996   2.594  11.273 -0.2096  0.3381 -0.9577
 2505TIP3    H128930   1.054   2.521  11.250 -0.1160  0.2313 -0.4065
 2505TIP3    H228931   1.050   2.672  11.260  0.4598  0.1793  0.6658
 2506TIP3   OH228932   4.969   6.614   1.614  0.5812 -0.4188  0.8152
 2506TIP3    H128933   4.942   6.535   1.662 -2.1547  0.4244  0.8431
 2506TIP3    H228934   4.993   6.581   1.527 -1.3989 -1.2534  0.5303
 2507TIP3   OH228935   5.751   3.925   3.029  0.1820 -0.0863  0.2720
 2507TIP3    H128936   5.784   3.951   2.943 -1.6978  2.5944  0.2350
 2507TIP3    H228937   5.702   3.845   3.012  0.3129  0.0844 -1.0508
 2508TIP3   OH228938   1.800   5.989  14.070 -0.1936  0.2741  0.0881
 2508TIP3    H128939   1.764   5.901  14.069 -0.0993  0.2357 -0.1163
 2508TIP3    H228940   1.751   6.035  14.138  1.1895 -0.5332  1.7111
 2509TIP3   OH228941   5.268   3.483   5.497 -0.1560  0.4205 -0.3697
 2509TIP3    H128942   5.318   3.510   5.420  1.0927  1.6848  0.8365
 2509TIP3    H228943   5.240   3.566   5.537 -0.2075 -0.1904  0.8956
 2510TIP3   OH228944   5.099   1.074  16.693 -0.3520 -0.4664 -0.3815
 2510TIP3    H128945   5.022   1.027  16.661 -3.0721  1.0197  3.2371
 2510TIP3    H228946   5.156   1.006  16.729 -1.2913 -1.4250 -0.6515
 2511TIP3   OH228947   4.927   0.498   0.644 -0.0857  0.4578 -0.2377
 2511TIP3    H128948   5.008   0.515   0.595 -0.5071  0.3520 -0.9743
 2511TIP3    H228949   4.876   0.579   0.635 -0.2994  0.3229 -0.2414
 2512TIP3   OH228950   4.068   4.708  13.847 -0.1478  0.2231  0.1968
 2512TIP3    H128951   4.004   4.652  13.803 -0.3271  1.2051 -0.8532
 2512TIP3    H228952   4.027   4.794  13.850  1.2991  1.0027 -0.9652
 2513TIP3   OH228953   3.283   3.494   3.502  0.2288 -0.0486  0.1011
 2513TIP3    H128954   3.208   3.551   3.483  0.2270  0.4597  1.4835
 2513TIP3    H228955   3.245   3.406   3.511  0.2924 -0.4052 -2.4737
 2514TIP3   OH228956   2.305   2.405  15.275 -0.7875 -0.2701 -0.0892
 2514TIP3    H128957   2.346   2.486  15.247  0.1269 -0.0823  1.6686
 2514TIP3    H228958   2.277   2.363  15.194  0.0846  1.0806 -1.1265
 2515TIP3   OH228959   5.827   5.818  11.126  0.3086 -0.3750 -0.1013
 2515TIP3    H128960   5.765   5.788  11.060 -0.5971  2.7372 -0.8243
 2515TIP3    H228961   5.882   5.882  11.081  0.8751  0.4741  1.6751
 2516TIP3   OH228962   5.566   2.312  16.737  0.2688 -0.5395 -0.1320
 2516TIP3    H128963   5.575   2.245  16.669  2.5969  0.0839 -0.5362
 2516TIP3    H228964   5.656   2.327  16.767 -0.0861  2.5996 -0.2844
 2517TIP3   OH228965   5.465   0.397  13.997  0.6089  0.3493  0.4861
 2517TIP3    H128966   5.406   0.416  13.924  1.1576  1.3464  0.2768
 2517TIP3    H228967   5.409   0.361  14.065  0.3188 -2.2445 -0.9880
 2518TIP3   OH228968   1.538   4.724  12.704  0.1300  0.0721  0.0055
 2518TIP3    H128969   1.616   4.763  12.664 -1.3545  1.8783 -1.3137
 2518TIP3    H228970   1.489   4.686  12.631 -1.1017  0.5949  0.5251
 2519TIP3   OH228971   0.180   5.876   2.381 -0.7789 -0.2147 -0.1311
 2519TIP3    H128972   0.219   5.882   2.468  0.2099 -1.1723 -0.4844
 2519TIP3    H228973   0.086   5.886   2.396 -0.4652  1.7215  0.7884
 2520TIP3   OH228974   1.830   0.739  12.155  0.2178 -0.2814 -0.1076
 2520TIP3    H128975   1.841   0.756  12.248 -1.8069 -3.1774  0.8031
 2520TIP3    H228976   1.912   0.769  12.115  1.4007  0.4517  2.6409
 2521TIP3   OH228977   3.436   2.325  15.727 -0.2000 -0.1723 -0.1589
 2521TIP3    H128978   3.408   2.248  15.776 -2.6866  1.3974  1.1336
 2521TIP3    H228979   3.496   2.371  15.786 -1.3470  0.5286  0.4879
 2522TIP3   OH228980   4.900   1.295  12.544 -0.0599 -0.3908 -0.0709
 2522TIP3    H128981   4.897   1.299  12.640  0.0780 -0.5223 -0.0606
 2522TIP3    H228982   4.856   1.375  12.516 -0.6576 -0.6542  0.0929
 2523TIP3   OH228983   5.840   4.378   2.506  0.1077  0.8190  0.7904
 2523TIP3    H128984   5.857   4.388   2.412 -1.0271  1.3615  0.6266
 2523TIP3    H228985   5.749   4.349   2.511  0.6545 -0.9059  1.6740
 2524TIP3   OH228986   2.790   5.710  15.972  0.2195  0.1518 -0.2391
 2524TIP3    H128987   2.785   5.714  15.876 -2.1294 -0.2552 -0.2086
 2524TIP3    H228988   2.736   5.783  16.002  2.1172  1.1694  0.8313
 2525TIP3   OH228989   5.705   1.972   5.042  0.1798 -0.0501  0.0849
 2525TIP3    H128990   5.777   2.017   4.997  0.9892 -0.9809  0.3961
 2525TIP3    H228991   5.740   1.885   5.061 -1.3648 -0.8470 -0.5673
 2526TIP3   OH228992   1.685   0.043   6.029 -0.0564  0.2501 -0.0561
 2526TIP3    H128993   1.723   0.025   6.115 -1.8066  0.5514  0.8195
 2526TIP3    H228994   1.729   0.122   5.998 -0.1028  0.7022  1.0172
 2527TIP3   OH228995   1.549   2.996   2.792 -0.4260 -0.2252  0.0936
 2527TIP3    H128996   1.476   3.034   2.840 -0.1973  0.6559 -0.2328
 2527TIP3    H228997   1.537   2.902   2.801 -1.9206 -0.1096 -0.4277
 2528TIP3   OH228998   0.948   2.501   1.663  0.2639  0.2395  0.3820
 2528TIP3    H128999   0.978   2.575   1.609 -0.6409  0.5017  0.2268
 2528TIP3    H229000   0.854   2.514   1.671  0.1342 -0.7582  0.5740
 2529TIP3   OH229001   4.345   4.451  14.797  0.1673  0.2435  0.8099
 2529TIP3    H129002   4.317   4.367  14.832 -2.5905  1.7964  2.7357
 2529TIP3    H229003   4.304   4.456  14.711  0.8569 -0.6147  0.4236
 2530TIP3   OH229004   1.218   2.986   4.698 -0.6804 -0.7790 -0.1754
 2530TIP3    H129005   1.188   3.062   4.648 -1.9276 -0.7248  0.6084
 2530TIP3    H229006   1.264   3.024   4.773  1.1681 -0.8590 -1.2168
 2531TIP3   OH229007   0.379   5.007  13.398  0.3474 -0.2145  0.0753
 2531TIP3    H129008   0.375   5.082  13.458 -2.9367 -0.4857  0.3876
 2531TIP3    H229009   0.431   5.038  13.324  1.4671  1.3672  1.4483
 2532TIP3   OH229010   2.905   1.223  14.928 -0.2509 -0.2347  0.0948
 2532TIP3    H129011   2.946   1.307  14.909 -0.4754 -0.2910 -0.6820
 2532TIP3    H229012   2.909   1.215  15.024  4.5092 -1.7167  0.0187
 2533TIP3   OH229013   0.400   6.348  13.331  0.4153  0.5335  0.7411
 2533TIP3    H129014   0.305   6.351  13.344  0.0957 -0.3968 -1.0504
 2533TIP3    H229015   0.413   6.273  13.274  2.3190  0.2746  1.4659
 2534TIP3   OH229016   6.807   3.423   4.772 -0.3134  0.2460 -0.2925
 2534TIP3    H129017   6.869   3.490   4.801 -0.1488 -0.5675  1.3737
 2534TIP3    H229018   6.721   3.462   4.786 -0.2442 -0.1901  1.5855
 2535TIP3   OH229019   1.890   0.101  15.318  0.4547 -0.7975 -0.7025
 2535TIP3    H129020   1.903   0.196  15.314  0.0576 -0.7529 -0.9464
 2535TIP3    H229021   1.964   0.069  15.370 -0.2949 -0.1703  0.8330
 2536TIP3   OH229022   2.864   2.646  11.783 -0.7294  0.6687  0.4913
 2536TIP3    H129023   2.816   2.642  11.700 -2.4291  0.4051  1.4296
 2536TIP3    H229024   2.881   2.739  11.796 -0.0608  0.6765 -0.3444
 2537TIP3   OH229025   0.772   0.247  11.295 -0.0624 -0.2949 -0.0953
 2537TIP3    H129026   0.817   0.321  11.254 -1.4453  0.9649  0.6060
 2537TIP3    H229027   0.833   0.174  11.284  1.5157  1.0142 -0.4457
 2538TIP3   OH229028   3.442   0.302  13.690  0.4382  0.4123 -0.3924
 2538TIP3    H129029   3.485   0.277  13.609  1.0994 -0.0730  0.0976
 2538TIP3    H229030   3.504   0.359  13.734  0.5174 -0.1518  0.2417
 2539TIP3   OH229031   4.644   4.080   5.064 -0.0799  0.3161  0.6060
 2539TIP3    H129032   4.632   4.006   5.123 -1.8859  0.9391  1.0766
 2539TIP3    H229033   4.634   4.042   4.976  0.2640 -0.1978  0.7832
 2540TIP3   OH229034   5.455   4.158  14.109  0.4922  0.2367  0.0049
 2540TIP3    H129035   5.379   4.142  14.165 -0.4879 -2.5139 -1.8911
 2540TIP3    H229036   5.519   4.199  14.167 -0.4809 -2.2983  3.1869
 2541TIP3   OH229037   4.987   6.358  11.872 -0.1844  0.2705  0.3289
 2541TIP3    H129038   4.900   6.370  11.834  0.6389  1.6805 -1.2301
 2541TIP3    H229039   5.033   6.440  11.853  1.6766 -0.6704  0.5899
 2542TIP3   OH229040   2.041   4.873   2.528 -0.0237 -0.0104 -0.5817
 2542TIP3    H129041   2.121   4.856   2.578 -2.1155 -1.9878  2.4381
 2542TIP3    H229042   2.024   4.966   2.540  0.3604 -0.1310  1.2258
 2543TIP3   OH229043   3.158   0.307  12.898 -0.1476 -0.1765 -0.0540
 2543TIP3    H129044   3.088   0.263  12.850 -2.0145  1.1703  1.2764
 2543TIP3    H229045   3.115   0.340  12.977  1.7808  1.6197  0.3211
 2544TIP3   OH229046   0.895   2.368  16.291  0.3042  0.1107 -0.3034
 2544TIP3    H129047   0.928   2.340  16.376  0.3117 -0.5801 -0.5240
 2544TIP3    H229048   0.906   2.292  16.235 -2.1071 -0.3271 -0.2827
 2545TIP3   OH229049   6.000   1.486  15.496  0.1884 -0.1063 -0.3384
 2545TIP3    H129050   6.028   1.394  15.495 -0.0551 -0.3467  3.1143
 2545TIP3    H229051   5.908   1.483  15.469  0.3627 -0.7911 -0.8769
 2546TIP3   OH229052   2.369   6.353  14.711 -0.5219 -0.1580  0.0358
 2546TIP3    H129053   2.297   6.291  14.699 -0.2387 -0.2709 -1.1790
 2546TIP3    H229054   2.332   6.422  14.766 -0.9139 -1.2728  1.2194
 2547TIP3   OH229055   0.232   0.339   3.360 -0.9824 -0.0077  0.0016
 2547TIP3    H129056   0.228   0.378   3.447 -1.3075  0.0266 -0.0285
 2547TIP3    H229057   0.306   0.278   3.365  0.1788  1.3344 -0.2641
 2548TIP3   OH229058   4.916   3.439  14.229  0.6690  0.4317 -0.3801
 2548TIP3    H129059   4.964   3.392  14.160  0.3557 -0.4081 -0.0370
 2548TIP3    H229060   4.965   3.421  14.309  0.2893  0.3128 -0.1725
 2549TIP3   OH229061   2.984   4.945   3.903 -0.1468  0.3371 -0.0444
 2549TIP3    H129062   2.988   5.025   3.850 -0.4571  0.6883  0.4574
 2549TIP3    H229063   2.894   4.941   3.934 -0.4049 -0.7441 -0.8652
 2550TIP3   OH229064   1.674   1.382   3.383  0.1975 -0.4879 -0.4090
 2550TIP3    H129065   1.697   1.402   3.292 -0.0876 -2.4173 -0.9583
 2550TIP3    H229066   1.613   1.308   3.376 -0.5453 -0.0864  1.3216
 2551TIP3   OH229067   4.749   0.744   4.433  0.1826 -0.3437 -0.0279
 2551TIP3    H129068   4.705   0.826   4.457  0.9381 -0.3324  1.3934
 2551TIP3    H229069   4.810   0.769   4.363 -2.0894 -0.3890 -2.1869
 2552TIP3   OH229070   0.250   3.028  14.521  0.6324 -0.0089  0.2654
 2552TIP3    H129071   0.307   2.997  14.451  1.8867  2.2229  0.1950
 2552TIP3    H229072   0.161   3.015  14.488  1.1508 -1.2408 -0.6854
 2553TIP3   OH229073   2.778   4.835   1.443 -0.2113  0.4995 -0.3591
 2553TIP3    H129074   2.782   4.741   1.455  1.1649  0.4221 -1.1906
 2553TIP3    H229075   2.748   4.869   1.527 -2.3394 -0.7626 -0.5366
 2554TIP3   OH229076   3.908   4.243   5.203  0.3074 -0.1416  0.3440
 2554TIP3    H129077   3.991   4.213   5.164  0.0081 -1.0981  0.4293
 2554TIP3    H229078   3.933   4.277   5.289  0.3968 -2.1877  1.1861
 2555TIP3   OH229079   4.481   2.119   4.081  0.2645  0.2823 -0.4503
 2555TIP3    H129080   4.415   2.053   4.102 -0.9146  1.5903  0.0619
 2555TIP3    H229081   4.524   2.085   4.002 -0.1806 -1.1766 -0.0896
 2556TIP3   OH229082   1.833   3.922   0.070 -0.0340  0.0864  0.3927
 2556TIP3    H129083   1.908   3.956   0.119  0.6133  0.3670 -0.7658
 2556TIP3    H229084   1.865   3.841   0.030 -0.1707  0.4932 -0.5582
 2557TIP3   OH229085   2.264   2.211   0.013 -0.1681  0.2530  0.0607
 2557TIP3    H129086   2.295   2.203  -0.077  0.2281 -1.7801  0.3132
 2557TIP3    H229087   2.343   2.206   0.066 -0.5255 -0.4062  0.5537
 2558TIP3   OH229088   4.740   5.071  13.941 -0.3322  0.2145  0.1092
 2558TIP3    H129089   4.832   5.081  13.917 -0.3988 -2.0828 -1.3881
 2558TIP3    H229090   4.695   5.138  13.891  0.3017 -0.1094 -0.9285
 2559TIP3   OH229091   4.267   3.221  14.502  0.3434 -0.2509  0.2212
 2559TIP3    H129092   4.261   3.151  14.438 -1.1007  2.0919 -2.4417
 2559TIP3    H229093   4.355   3.256  14.492  0.3031 -0.2420 -0.0950
 2560TIP3   OH229094   3.828   0.532   1.147 -0.0493 -0.1335  0.2558
 2560TIP3    H129095   3.899   0.468   1.157  0.8715  0.0589 -3.5646
 2560TIP3    H229096   3.872   0.614   1.123 -1.4063 -0.0779 -2.5025
 2561TIP3   OH229097   6.778   4.217   3.884 -0.0207 -0.1532 -0.0076
 2561TIP3    H129098   6.806   4.281   3.950  0.2167 -0.0947 -0.1634
 2561TIP3    H229099   6.696   4.252   3.850  1.3391  1.4154 -1.8960
 2562TIP3   OH229100   3.081   6.561  12.090  0.3615 -0.2544  0.1243
 2562TIP3    H129101   3.103   6.583  12.181  1.1432 -2.8272  0.6293
 2562TIP3    H229102   3.150   6.602  12.038 -1.5504  3.6017  0.2816
 2563TIP3   OH229103   5.876   3.361  14.272  0.1564  0.5074  0.0733
 2563TIP3    H129104   5.795   3.397  14.238  0.7271 -0.8069 -3.0597
 2563TIP3    H229105   5.849   3.282  14.319 -0.3812 -0.5416 -1.8978
 2564TIP3   OH229106   3.599   5.336   1.977  0.3266 -0.1244  0.0012
 2564TIP3    H129107   3.551   5.320   1.896  0.4361 -0.5132  0.0105
 2564TIP3    H229108   3.532   5.333   2.046 -0.1085  2.1969 -0.2409
 2565TIP3   OH229109   1.284   2.175   0.427 -0.1125  0.1226  0.0520
 2565TIP3    H129110   1.328   2.170   0.342 -1.7452  2.1619 -1.0070
 2565TIP3    H229111   1.340   2.231   0.480 -0.9175  2.0438 -1.0236
 2566TIP3   OH229112   6.714   6.629  11.655 -0.2402  0.4576 -0.2722
 2566TIP3    H129113   6.699   6.654  11.746 -0.2368 -0.0158 -0.1362
 2566TIP3    H229114   6.806   6.651  11.639  0.3361 -1.2531  0.4572
 2567TIP3   OH229115   3.325   6.044   2.708  0.0001 -0.6176  0.7735
 2567TIP3    H129116   3.390   6.102   2.747  0.6402 -1.0911  0.4321
 2567TIP3    H229117   3.371   5.961   2.695 -0.7389 -1.0343  0.7349
 2568TIP3   OH229118   4.601   1.357   3.140 -0.4690 -0.2517  0.1426
 2568TIP3    H129119   4.539   1.405   3.195 -1.1521  0.0017 -0.8084
 2568TIP3    H229120   4.666   1.422   3.113  0.3903 -0.5756  1.3545
 2569TIP3   OH229121   3.982   2.746   2.157 -0.9635  0.0341  0.3466
 2569TIP3    H129122   3.897   2.749   2.114 -1.1881 -0.4558  0.7449
 2569TIP3    H229123   3.984   2.661   2.201  0.0786 -0.3282 -0.3524
 2570TIP3   OH229124   2.658   1.402  12.275 -0.5380 -0.2111 -0.2035
 2570TIP3    H129125   2.738   1.363  12.310 -0.0688  2.2554  1.7493
 2570TIP3    H229126   2.592   1.390  12.343 -0.9282  0.5591 -0.4212
 2571TIP3   OH229127   0.297   1.365   0.176 -0.3379  0.0795  0.6605
 2571TIP3    H129128   0.239   1.440   0.168  1.2931  1.2452 -1.3016
 2571TIP3    H229129   0.251   1.294   0.130 -1.2204  0.2879  1.2038
 2572TIP3   OH229130   3.800   1.983   1.572 -0.3321  0.1712 -0.1513
 2572TIP3    H129131   3.748   1.945   1.643  0.7105 -2.1362 -0.5110
 2572TIP3    H229132   3.825   1.908   1.518  0.5889  1.6133 -1.8312
 2573TIP3   OH229133   6.199   3.005  13.394  0.1913 -0.2326  0.4725
 2573TIP3    H129134   6.288   3.020  13.426  0.4898  1.4692 -0.9827
 2573TIP3    H229135   6.170   2.925  13.439  2.1649 -0.4131  1.5294
 2574TIP3   OH229136   0.738   6.323  14.192  0.8492 -0.3590 -0.3292
 2574TIP3    H129137   0.788   6.244  14.211 -1.0357 -1.8071 -0.9780
 2574TIP3    H229138   0.742   6.332  14.097  2.2059  1.2044 -0.1725
 2575TIP3   OH229139   5.361   1.911   5.524 -0.0942 -0.0982 -0.0758
 2575TIP3    H129140   5.392   1.820   5.529  1.2263  0.3440  0.3061
 2575TIP3    H229141   5.323   1.929   5.610 -1.7162 -0.7186 -0.6222
 2576TIP3   OH229142   6.623   0.255  14.003  0.3218  0.4189 -0.5917
 2576TIP3    H129143   6.623   0.213  13.918 -1.3066  1.1845 -1.0059
 2576TIP3    H229144   6.625   0.349  13.983  1.3050  0.5978  0.2559
 2577TIP3   OH229145   3.749   4.423  14.231  0.0694 -0.4114 -0.2353
 2577TIP3    H129146   3.716   4.369  14.303  0.1560 -0.8707 -0.5350
 2577TIP3    H229147   3.805   4.488  14.273 -0.8069  0.0567  0.2322
 2578TIP3   OH229148   0.192   1.775   6.336  0.0828  0.5559 -0.5882
 2578TIP3    H129149   0.228   1.810   6.254 -0.8862 -0.3011 -1.3981
 2578TIP3    H229150   0.193   1.680   6.324  0.0876  0.4079  0.4802
 2579TIP3   OH229151   0.564   1.192   0.612 -0.3785 -0.3240 -0.4881
 2579TIP3    H129152   0.635   1.128   0.619 -0.0384  0.1511  0.7950
 2579TIP3    H229153   0.526   1.194   0.700 -0.4793  1.1312 -0.5489
 2580TIP3   OH229154   0.874   5.735  14.526  0.1138  0.0698 -0.1281
 2580TIP3    H129155   0.961   5.723  14.564  0.9839  0.6719 -1.8483
 2580TIP3    H229156   0.816   5.743  14.602  1.4757 -0.7706  1.0532
 2581TIP3   OH229157   1.651   4.959   2.955 -0.3086 -0.3429 -0.3597
 2581TIP3    H129158   1.717   5.023   2.982  0.0527 -0.7816 -0.1907
 2581TIP3    H229159   1.696   4.903   2.891 -0.7792 -0.1059 -0.9038
 2582TIP3   OH229160   1.196   4.962   0.553  0.2954 -0.1167  0.2218
 2582TIP3    H129161   1.151   5.035   0.509 -0.3816 -1.7151 -1.9134
 2582TIP3    H229162   1.285   4.994   0.566 -0.3823  1.6539  0.8413
 2583TIP3   OH229163   6.045   0.340   5.518 -0.4381  0.4085  0.2877
 2583TIP3    H129164   5.981   0.291   5.569 -1.7588  2.0623  0.3025
 2583TIP3    H229165   6.127   0.291   5.529 -1.4370 -1.1621  1.1540
 2584TIP3   OH229166   3.291   3.649  11.656  0.0391 -0.1084  0.2157
 2584TIP3    H129167   3.295   3.681  11.566 -1.5453 -0.6837 -0.0827
 2584TIP3    H229168   3.280   3.729  11.709 -0.8287  0.0974 -0.2627
 2585TIP3   OH229169   3.181   3.407   0.739  0.2171 -0.1662  0.4762
 2585TIP3    H129170   3.124   3.410   0.663  3.8712 -0.4254 -2.5612
 2585TIP3    H229171   3.213   3.497   0.749  2.1084 -0.6953 -0.3724
 2586TIP3   OH229172   0.608   6.247  12.951 -0.3699  0.6739 -0.3447
 2586TIP3    H129173   0.565   6.331  12.937  0.3960  0.5767 -4.4350
 2586TIP3    H229174   0.701   6.268  12.959 -0.2925  0.2783 -0.1658
 2587TIP3   OH229175   0.382   0.319   1.805 -0.6675  0.1255 -0.2705
 2587TIP3    H129176   0.461   0.267   1.794  0.7278  2.0883 -0.1075
 2587TIP3    H229177   0.374   0.330   1.900 -0.5229  0.8208 -0.3379
 2588TIP3   OH229178   6.571   5.617   2.310 -0.0281 -0.0793 -0.3678
 2588TIP3    H129179   6.571   5.631   2.215 -0.6714  0.6209 -0.2762
 2588TIP3    H229180   6.616   5.533   2.322 -0.0467 -0.2361 -1.2968
 2589TIP3   OH229181   4.140   4.100  11.408  0.2587  0.0673  0.1569
 2589TIP3    H129182   4.061   4.098  11.463  0.9207 -0.5656  1.1211
 2589TIP3    H229183   4.156   4.008  11.387  0.6309  0.2144 -0.2104
 2590TIP3   OH229184   5.709   3.068   0.812  0.4165  0.8528  0.2767
 2590TIP3    H129185   5.618   3.075   0.782  0.2064  2.3214  1.1711
 2590TIP3    H229186   5.744   2.992   0.764 -1.5299 -0.3093  0.5883
 2591TIP3   OH229187   6.511   1.930   2.862  0.1489 -0.4581  0.0576
 2591TIP3    H129188   6.510   2.026   2.870  0.8766 -0.5104  0.9794
 2591TIP3    H229189   6.426   1.908   2.825  0.0983  0.5704 -0.4704
 2592TIP3   OH229190   3.699   3.881   6.424  0.2981  0.5188  0.2411
 2592TIP3    H129191   3.682   3.954   6.364 -0.3504 -0.3451 -0.6555
 2592TIP3    H229192   3.794   3.865   6.416  0.5487  1.5962  0.8618
 2593TIP3   OH229193   0.157   4.466   0.785  0.2125 -0.1078  0.0422
 2593TIP3    H129194   0.067   4.458   0.815  0.2346  0.5649  0.3010
 2593TIP3    H229195   0.209   4.482   0.864  0.6285 -0.9660 -0.0464
 2594TIP3   OH229196   3.861   0.260  14.880 -0.1607 -0.4731 -0.0036
 2594TIP3    H129197   3.931   0.197  14.898  2.1287  2.7473  3.8503
 2594TIP3    H229198   3.882   0.295  14.794  1.6465 -1.2523  0.0758
 2595TIP3   OH229199   5.248   3.705   2.249  0.3538 -0.3522 -0.1392
 2595TIP3    H129200   5.215   3.733   2.164 -3.7511 -1.2495  0.9276
 2595TIP3    H229201   5.235   3.610   2.249 -0.0237 -0.3382  1.5290
 2596TIP3   OH229202   2.888   2.580  11.280 -0.2808 -0.5356 -0.6165
 2596TIP3    H129203   2.847   2.544  11.359  0.4563 -0.6216 -0.2644
 2596TIP3    H229204   2.849   2.532  11.208 -0.3683 -1.0208 -0.2477
 2597TIP3   OH229205   1.471   1.087  14.982 -0.1207 -0.0247  0.0826
 2597TIP3    H129206   1.452   1.036  15.061 -0.2721 -0.6861 -0.3703
 2597TIP3    H229207   1.462   1.024  14.910 -1.3746  0.8643 -0.5926
 2598TIP3   OH229208   4.180   2.201   4.006 -0.1592  0.5060  0.5106
 2598TIP3    H129209   4.118   2.173   4.073 -1.2908  1.1691 -0.2207
 2598TIP3    H229210   4.201   2.292   4.029 -1.2690  1.0510 -0.4998
 2599TIP3   OH229211   2.002   3.265  15.159  0.2386  0.5215  0.3521
 2599TIP3    H129212   2.088   3.308  15.158  0.5331  0.0248  2.0215
 2599TIP3    H229213   1.940   3.336  15.144  0.9571  0.7211 -2.0364
 2600TIP3   OH229214   1.314   5.621   1.313 -0.2716 -0.3988  0.5903
 2600TIP3    H129215   1.280   5.532   1.324  1.6435 -1.3497 -0.6646
 2600TIP3    H229216   1.261   5.658   1.242 -0.9591 -0.6041  0.9907
 2601TIP3   OH229217   4.451   6.530   0.538  0.5390 -0.3690 -0.3431
 2601TIP3    H129218   4.498   6.581   0.604 -0.7388  0.3443  0.0605
 2601TIP3    H229219   4.369   6.578   0.525 -1.0763 -2.6723  0.5798
 2602TIP3   OH229220   2.305   0.436  11.343 -1.0788 -0.3159 -0.1398
 2602TIP3    H129221   2.346   0.391  11.417 -0.2190 -1.4465 -1.2630
 2602TIP3    H229222   2.296   0.526  11.373  0.2329 -0.5052  0.9606
 2603TIP3   OH229223   0.937   1.696   4.339  0.1232  0.1070  0.3503
 2603TIP3    H129224   1.011   1.757   4.334  0.4394 -0.2968 -0.0163
 2603TIP3    H229225   0.860   1.752   4.342  0.4931  0.5781  2.2427
 2604TIP3   OH229226   5.145   1.043  16.319 -0.4147 -0.3022  1.0250
 2604TIP3    H129227   5.215   1.038  16.255 -1.4330 -0.9607 -0.0766
 2604TIP3    H229228   5.152   1.132  16.355 -0.6058  0.5494 -0.9343
 2605TIP3   OH229229   0.515   1.742   3.883 -0.4841 -0.3715 -0.0374
 2605TIP3    H129230   0.442   1.716   3.940  0.3026 -2.2408  0.2074
 2605TIP3    H229231   0.488   1.714   3.795 -0.2232 -0.7745  0.0049
 2606TIP3   OH229232   0.614   2.644   3.731 -0.0391  0.6918 -0.5117
 2606TIP3    H129233   0.634   2.567   3.679  0.5499  0.1005  0.5547
 2606TIP3    H229234   0.519   2.651   3.729 -0.2179 -0.9082  0.5272
 2607TIP3   OH229235   5.658   5.792   4.209 -0.9585 -0.6054  0.7303
 2607TIP3    H129236   5.717   5.734   4.161 -0.4271 -0.9727  1.7901
 2607TIP3    H229237   5.668   5.878   4.167 -0.8566 -1.0094 -0.0897
 2608TIP3   OH229238   5.434   3.813   3.817  0.0498  0.0177 -0.1004
 2608TIP3    H129239   5.481   3.813   3.733  0.3733 -0.9915  0.0664
 2608TIP3    H229240   5.473   3.884   3.867  2.2933 -1.5348  0.5019
 2609TIP3   OH229241   6.644   4.478  12.146 -0.4636 -0.2753  0.4185
 2609TIP3    H129242   6.651   4.572  12.168 -1.3900 -0.2886  0.8387
 2609TIP3    H229243   6.695   4.434  12.214  0.5713 -0.0394 -0.1946
 2610TIP3   OH229244   2.615   0.080   3.992  0.7882  0.1805 -0.1986
 2610TIP3    H129245   2.615   0.010   4.057  2.3820  1.7505  1.6272
 2610TIP3    H229246   2.576   0.155   4.037  2.7473  1.5622 -0.6350
 2611TIP3   OH229247   6.370   1.828   1.759 -0.4793 -0.5093  0.1131
 2611TIP3    H129248   6.388   1.915   1.795 -0.1064 -0.0459 -1.1303
 2611TIP3    H229249   6.455   1.786   1.752 -0.6323 -0.8872  0.4737
 2612TIP3   OH229250   0.458   4.747  10.683  0.1847  0.3485 -0.0874
 2612TIP3    H129251   0.477   4.839  10.699 -0.8211  0.4734  0.5547
 2612TIP3    H229252   0.379   4.748  10.628 -1.2434 -0.0772  1.8336
 2613TIP3   OH229253   4.841   2.019   1.484 -0.0839  0.2075  0.3934
 2613TIP3    H129254   4.746   2.022   1.482 -0.0634  0.6592 -0.0241
 2613TIP3    H229255   4.864   1.941   1.435 -0.2013  0.8873 -0.7907
 2614TIP3   OH229256   1.974   2.490  11.321 -0.4795 -0.2322  0.3700
 2614TIP3    H129257   1.912   2.470  11.391  0.0433 -0.4352  0.7802
 2614TIP3    H229258   2.001   2.404  11.289 -0.0070 -0.1562  0.5546
 2615TIP3   OH229259   3.980   0.433   2.263 -1.0545 -0.2202 -0.6023
 2615TIP3    H129260   3.928   0.436   2.182  0.1488  0.1822 -1.3963
 2615TIP3    H229261   3.995   0.525   2.285 -2.3227 -0.2988  0.7564
 2616TIP3   OH229262   0.588   3.535  16.235  0.0291 -0.3773 -1.0587
 2616TIP3    H129263   0.680   3.547  16.260  0.7244 -1.2071 -3.0863
 2616TIP3    H229264   0.548   3.494  16.312  1.2387  0.3179 -0.0063
 2617TIP3   OH229265   4.195   0.297  13.160 -0.1746 -0.4884 -0.4019
 2617TIP3    H129266   4.124   0.349  13.197 -1.6931 -3.2706  0.8642
 2617TIP3    H229267   4.173   0.288  13.067 -0.5329  0.0862 -0.3751
 2618TIP3   OH229268   1.332   6.458  12.200  0.2827 -0.1308  0.3354
 2618TIP3    H129269   1.414   6.432  12.160  0.5319  0.2145  0.6178
 2618TIP3    H229270   1.340   6.431  12.291  0.8249  1.4973  0.8125
 2619TIP3   OH229271   4.742   0.653   6.039  0.4189 -0.7397 -0.4048
 2619TIP3    H129272   4.705   0.613   5.960  1.7363 -1.8834 -0.4825
 2619TIP3    H229273   4.670   0.655   6.101 -0.5110 -0.2744 -1.4625
 2620TIP3   OH229274   2.754   6.759  11.324  0.1238  0.0873 -0.4224
 2620TIP3    H129275   2.760   6.826  11.392 -1.2801  0.4874 -0.6615
 2620TIP3    H229276   2.830   6.774  11.268  1.9958 -0.9957  1.6628
 2621TIP3   OH229277   1.976   0.993   4.069  0.0373 -0.0125  0.3295
 2621TIP3    H129278   1.963   0.936   4.145  0.6162  0.2119  0.6008
 2621TIP3    H229279   2.055   1.042   4.089 -0.9921  1.6196  0.5619
 2622TIP3   OH229280   2.644   4.090  15.169 -0.1420 -0.1702  0.0704
 2622TIP3    H129281   2.735   4.066  15.150  0.4215  2.1711 -0.4730
 2622TIP3    H229282   2.651   4.164  15.229 -1.7649 -1.0923  1.4791
 2623TIP3   OH229283   4.719   4.517  13.361  0.5644  0.8929 -0.1198
 2623TIP3    H129284   4.667   4.578  13.308 -0.2810  0.8481  0.6231
 2623TIP3    H229285   4.701   4.543  13.451  1.6845  0.7289  0.1627
 2624TIP3   OH229286   2.163   0.616   0.710  0.0742 -0.2716 -0.1335
 2624TIP3    H129287   2.202   0.631   0.623  2.0271  1.3314  0.9372
 2624TIP3    H229288   2.175   0.699   0.756  0.1394 -1.4483  2.0648
 2625TIP3   OH229289   0.612   3.797   0.760 -0.3306  0.2672  0.3272
 2625TIP3    H129290   0.545   3.858   0.794  1.5910  3.3010 -0.8988
 2625TIP3    H229291   0.647   3.755   0.839 -1.9238  0.5055  1.2207
 2626TIP3   OH229292   6.551   0.537  13.312 -0.1067 -0.6923  0.2195
 2626TIP3    H129293   6.557   0.629  13.336 -1.0727 -0.2791 -0.9870
 2626TIP3    H229294   6.460   0.525  13.284  0.5423 -1.4302 -1.8062
 2627TIP3   OH229295   0.954   5.659  13.296 -0.6498 -0.0166 -0.0094
 2627TIP3    H129296   1.040   5.694  13.321 -1.7563  1.9869  1.2238
 2627TIP3    H229297   0.926   5.715  13.223 -0.8827 -0.7429 -0.4891
 2628TIP3   OH229298   1.170   4.512   5.146  0.2647 -0.0129  0.1575
 2628TIP3    H129299   1.192   4.420   5.131  0.6348 -0.1144  1.2186
 2628TIP3    H229300   1.079   4.512   5.175  0.4545 -0.1097  0.7576
 2629TIP3   OH229301   0.698   5.932  16.173  0.1602  0.3955  0.2579
 2629TIP3    H129302   0.739   5.910  16.089  1.7347 -0.3317  1.1622
 2629TIP3    H229303   0.733   6.018  16.195  1.0330 -0.1144  0.9138
 2630TIP3   OH229304   3.526   4.113  15.839  0.8062  0.3708  0.5114
 2630TIP3    H129305   3.494   4.200  15.814  0.7559  0.5678  1.2591
 2630TIP3    H229306   3.457   4.076  15.894 -0.1031 -0.9716 -1.3948
 2631TIP3   OH229307   2.462   0.811  15.040 -0.3931 -0.5120  0.7486
 2631TIP3    H129308   2.513   0.825  15.120  1.3151  2.5225 -0.7263
 2631TIP3    H229309   2.406   0.888  15.033  2.4694  1.5596 -2.9423
 2632TIP3   OH229310   0.178   4.360  15.637  0.9631 -0.2860 -0.2361
 2632TIP3    H129311   0.164   4.403  15.553  0.2879  0.7707  0.3911
 2632TIP3    H229312   0.196   4.432  15.698  0.5404 -0.9486  0.6984
 2633TIP3   OH229313   5.082   6.804  10.417 -0.3451 -0.1909 -0.5000
 2633TIP3    H129314   5.123   6.873  10.469  0.3544  0.1780 -1.4992
 2633TIP3    H229315   5.032   6.851  10.350 -0.5941 -0.6491 -0.6446
 2634TIP3   OH229316   5.179   4.206   4.468  0.1045  0.2563  0.0743
 2634TIP3    H129317   5.150   4.256   4.391  0.2697  0.4015  0.1079
 2634TIP3    H229318   5.205   4.273   4.531  0.3468  0.1260  0.1103
 2635TIP3   OH229319   1.618   0.809   2.740  0.4330 -0.1879 -0.1380
 2635TIP3    H129320   1.669   0.784   2.663 -0.1468  0.7009 -0.8210
 2635TIP3    H229321   1.603   0.903   2.731  0.2452 -0.0866  1.0011
 2636TIP3   OH229322   2.804   4.592   1.278 -0.1271  0.0238 -0.1261
 2636TIP3    H129323   2.826   4.530   1.347  0.7117 -1.3974 -1.5898
 2636TIP3    H229324   2.874   4.657   1.281 -0.0716 -0.0580  0.3419
 2637TIP3   OH229325   5.347   4.346   0.330  0.4830 -0.1491  0.3488
 2637TIP3    H129326   5.279   4.413   0.330  1.3151  0.7158  0.4011
 2637TIP3    H229327   5.428   4.394   0.317  0.8943 -1.3836 -2.0879
 2638TIP3   OH229328   3.782   1.189  11.799  0.2573  0.2141 -0.1584
 2638TIP3    H129329   3.831   1.191  11.881  1.9145 -2.8054 -0.9228
 2638TIP3    H229330   3.832   1.130  11.743 -2.6053 -0.5460 -2.1358
 2639TIP3   OH229331   2.540   3.863   2.726  0.1412 -0.1621  0.0555
 2639TIP3    H129332   2.519   3.926   2.657 -3.2028 -0.9210  0.1946
 2639TIP3    H229333   2.532   3.777   2.684  0.0934 -0.5779  0.8932
 2640TIP3   OH229334   5.750   1.332   0.717  0.3252  0.1495  0.2392
 2640TIP3    H129335   5.685   1.392   0.755 -0.1325 -0.2597  0.1057
 2640TIP3    H229336   5.734   1.337   0.622  1.0606  0.7016  0.1323
 2641TIP3   OH229337   5.389   2.685   3.892 -0.4917 -0.1311  0.1328
 2641TIP3    H129338   5.414   2.593   3.886 -1.5504 -0.4998  1.0046
 2641TIP3    H229339   5.460   2.727   3.939 -1.5978 -1.2434  2.9977
 2642TIP3   OH229340   1.472   5.301   4.009 -0.3633 -0.1451  0.4853
 2642TIP3    H129341   1.480   5.218   4.057 -0.4419 -1.3849 -1.4947
 2642TIP3    H229342   1.554   5.308   3.960  0.0325  1.4596  1.3365
 2643TIP3   OH229343   1.585   0.302   0.035 -0.2187 -0.2991 -0.7341
 2643TIP3    H129344   1.558   0.265  -0.049  0.5914  0.1798 -1.2086
 2643TIP3    H229345   1.652   0.242   0.067 -1.9150 -1.6179  0.5550
 2644TIP3   OH229346   5.627   2.469   2.964 -0.1691  0.3741  0.3486
 2644TIP3    H129347   5.692   2.402   2.987  0.5690  0.7800 -0.4659
 2644TIP3    H229348   5.566   2.470   3.037 -0.2348 -1.2313  0.3489
 2645TIP3   OH229349   5.812   6.535  15.183 -0.3539  0.2550 -0.0236
 2645TIP3    H129350   5.848   6.606  15.236 -0.8481  0.6951 -0.2641
 2645TIP3    H229351   5.717   6.547  15.188 -0.4518 -0.4642  0.0289
 2646TIP3   OH229352   4.618   0.621  14.688  0.4178 -0.0789  0.2381
 2646TIP3    H129353   4.644   0.707  14.654  1.3815 -0.4295  0.0357
 2646TIP3    H229354   4.531   0.607  14.652 -0.5412  1.6009  1.7793
 2647TIP3   OH229355   3.295   4.949  12.969  0.3354 -0.6936  0.1539
 2647TIP3    H129356   3.223   5.000  12.932  0.6362 -0.0169  0.4864
 2647TIP3    H229357   3.358   5.015  12.999  1.3142 -1.2760 -0.5673
 2648TIP3   OH229358   3.412   1.618  13.691 -0.1812  0.0709  0.8022
 2648TIP3    H129359   3.381   1.530  13.714  0.2603 -0.6887 -1.3367
 2648TIP3    H229360   3.484   1.603  13.631 -0.1728  1.9245  0.2934
 2649TIP3   OH229361   0.627   6.054  11.073  0.5924 -0.0866  0.5943
 2649TIP3    H129362   0.684   6.029  11.001  1.7414  1.5842  0.8680
 2649TIP3    H229363   0.632   6.150  11.076 -3.4496  0.3140 -0.3316
 2650TIP3   OH229364   3.577   2.729  13.498 -0.5774 -0.7440  0.7617
 2650TIP3    H129365   3.658   2.766  13.463  1.2637 -1.8755  3.5372
 2650TIP3    H229366   3.541   2.679  13.424  0.7341  0.5199 -0.8236
 2651TIP3   OH229367   4.843   2.787  13.930 -0.2426  0.1630 -0.1926
 2651TIP3    H129368   4.861   2.693  13.922 -1.0515  0.0666 -1.0648
 2651TIP3    H229369   4.761   2.792  13.978 -2.1811  0.2106 -3.2096
 2652TIP3   OH229370   2.453   4.181  14.422 -0.6579 -0.0472 -0.0286
 2652TIP3    H129371   2.410   4.257  14.383  1.2791  0.2766 -1.7380
 2652TIP3    H229372   2.509   4.217  14.491 -1.6372 -0.2398  0.8788
 2653TIP3   OH229373   4.451   4.050  13.593  0.2194  0.0937 -1.2002
 2653TIP3    H129374   4.375   4.070  13.647  0.2694  0.0091 -1.0989
 2653TIP3    H229375   4.472   3.959  13.613  1.1857  0.5256 -0.1903
 2654TIP3   OH229376   1.616   3.801  12.608  0.5690 -0.4755  0.2530
 2654TIP3    H129377   1.565   3.722  12.625  1.1540 -1.3280 -1.7140
 2654TIP3    H229378   1.680   3.804  12.680 -1.3562 -0.0717  2.0397
 2655TIP3   OH229379   2.999   0.134  10.949  0.0567 -0.2021  0.1483
 2655TIP3    H129380   3.083   0.149  10.905  0.2001 -0.4463  0.3365
 2655TIP3    H229381   2.945   0.091  10.883 -0.2698  0.8847 -0.3099
 2656TIP3   OH229382   6.285   1.105   5.409  0.2782 -0.2660  0.2429
 2656TIP3    H129383   6.377   1.114   5.433  0.5968 -2.2058 -0.0744
 2656TIP3    H229384   6.253   1.033   5.463 -1.4863  1.3126  1.4136
 2657TIP3   OH229385   2.011   5.530  14.970 -0.5981 -0.4514  0.4109
 2657TIP3    H129386   1.984   5.443  15.000  0.0754 -1.2060 -1.0994
 2657TIP3    H229387   1.930   5.581  14.971 -1.1408 -1.2945  0.5936
 2658TIP3   OH229388   0.001   3.106   3.819  0.7336 -0.2106  0.0735
 2658TIP3    H129389  -0.024   3.029   3.869  0.7301 -0.9939 -1.0927
 2658TIP3    H229390  -0.057   3.175   3.851  1.0482 -0.5592  1.4587
 2659TIP3   OH229391   2.734   4.458  16.539  0.0643 -0.7465  0.2970
 2659TIP3    H129392   2.668   4.512  16.496  1.7816 -0.0604 -1.6432
 2659TIP3    H229393   2.770   4.403  16.470  1.4579 -1.1768  1.2994
 2660TIP3   OH229394   4.796   1.389  11.310 -1.0284  0.1555  0.3866
 2660TIP3    H129395   4.813   1.295  11.311  0.4646  0.3009  3.8472
 2660TIP3    H229396   4.783   1.410  11.218  0.6784 -3.0732 -0.7613
 2661TIP3   OH229397   1.346   3.436  10.345  0.5246  0.6117  0.1652
 2661TIP3    H129398   1.434   3.447  10.379  0.2613  1.9967  0.4341
 2661TIP3    H229399   1.329   3.342  10.354  1.7164  0.4332  0.7230
 2662TIP3   OH229400   5.934   1.236   1.232  0.1104 -0.4813 -0.6810
 2662TIP3    H129401   5.939   1.230   1.327  0.8031  0.2096 -0.6689
 2662TIP3    H229402   5.843   1.259   1.215  0.2999  0.7390 -0.1051
 2663TIP3   OH229403   3.134   5.187  12.047  0.4135 -0.1472  0.6069
 2663TIP3    H129404   3.069   5.120  12.069  0.7284 -0.5044  0.4538
 2663TIP3    H229405   3.155   5.228  12.131 -2.2857  2.1119  0.3233
 2664TIP3   OH229406   6.084   6.487  13.711 -0.1235 -0.2081 -0.0180
 2664TIP3    H129407   6.003   6.436  13.715 -0.0389 -0.4114 -0.8192
 2664TIP3    H229408   6.121   6.480  13.799 -0.8894 -0.2524  0.3096
 2665TIP3   OH229409   5.906   1.550   0.880  0.2750  0.5320 -0.2759
 2665TIP3    H129410   5.974   1.617   0.881  0.3149  0.6197 -2.6680
 2665TIP3    H229411   5.871   1.553   0.791 -1.6933 -0.6865  0.3936
 2666TIP3   OH229412   0.076   1.167   4.196 -0.1537  0.4946 -0.1959
 2666TIP3    H129413   0.104   1.191   4.284  0.2267  1.2650 -0.5162
 2666TIP3    H229414   0.118   1.232   4.139 -1.0261  0.4852 -0.8691
 2667TIP3   OH229415   3.770   3.784   5.901 -0.9005  0.2719 -0.4774
 2667TIP3    H129416   3.819   3.804   5.980  0.0460  0.5349 -1.1073
 2667TIP3    H229417   3.684   3.825   5.914 -0.6807  0.4935  0.3115
 2668TIP3   OH229418   5.586   3.645  10.836 -0.5888  0.4866 -0.5391
 2668TIP3    H129419   5.570   3.681  10.923 -0.1597  0.3257 -0.3889
 2668TIP3    H229420   5.570   3.717  10.776 -0.7342  0.6417 -0.3136
 2669TIP3   OH229421   5.440   3.760  14.766  0.2109 -0.3099 -0.1022
 2669TIP3    H129422   5.468   3.799  14.683  0.4527  0.7112  0.4424
 2669TIP3    H229423   5.521   3.726  14.805  0.1496 -0.4755 -0.1171
 2670TIP3   OH229424   0.612   0.550  14.405 -0.4170  0.0909 -0.1536
 2670TIP3    H129425   0.656   0.590  14.330  3.0726 -2.5386  0.2790
 2670TIP3    H229426   0.598   0.622  14.466  1.5391  1.4275 -1.1860
 2671TIP3   OH229427   5.112   4.392  11.448  0.1619  0.2270 -0.9071
 2671TIP3    H129428   5.047   4.337  11.406  0.0433  0.2352 -0.7317
 2671TIP3    H229429   5.077   4.481  11.440 -0.2681  0.1492 -0.0546
 2672TIP3   OH229430   0.647   3.138  16.389  0.5981  0.2251 -0.3578
 2672TIP3    H129431   0.568   3.172  16.347  0.1300  0.9511  1.0418
 2672TIP3    H229432   0.718   3.191  16.352  0.4013 -0.1749 -1.3370
 2673TIP3   OH229433   4.161   3.576   1.347 -0.2335  0.4306 -0.3942
 2673TIP3    H129434   4.207   3.507   1.394  0.9531  1.1042 -0.5418
 2673TIP3    H229435   4.077   3.584   1.393  0.2037 -0.1025  0.5238
 2674TIP3   OH229436   5.486   2.836  12.775 -0.0674  0.2380  0.1512
 2674TIP3    H129437   5.509   2.833  12.682  0.1349  1.6878  0.1339
 2674TIP3    H229438   5.563   2.801  12.820 -0.5756 -1.5158 -0.2453
 2675TIP3   OH229439   1.716   4.403  11.995  0.0805  0.5196 -0.5053
 2675TIP3    H129440   1.808   4.402  12.022 -0.0977  0.0926  0.1098
 2675TIP3    H229441   1.712   4.470  11.926  0.6762  1.2091  0.1035
 2676TIP3   OH229442   2.849   5.489   5.483 -0.2364  0.2935 -0.5902
 2676TIP3    H129443   2.782   5.522   5.542 -1.3306  1.1867 -2.2436
 2676TIP3    H229444   2.818   5.402   5.457  0.1516 -0.0225 -0.0114
 2677TIP3   OH229445   1.531   5.474  10.897 -0.0603 -0.0984 -0.2028
 2677TIP3    H129446   1.477   5.400  10.869 -0.5212  0.3278 -0.4563
 2677TIP3    H229447   1.573   5.444  10.977 -1.2955 -0.1618  0.4443
 2678TIP3   OH229448   6.231   4.331   1.818 -0.5071  0.5073  0.3062
 2678TIP3    H129449   6.252   4.266   1.885  0.8995  1.2348  0.6063
 2678TIP3    H229450   6.138   4.351   1.833 -0.1891  0.7886  2.1714
 2679TIP3   OH229451   6.436   4.247   3.539 -0.0348 -0.2150 -0.7197
 2679TIP3    H129452   6.482   4.168   3.508  0.8946 -0.4263  1.0660
 2679TIP3    H229453   6.445   4.309   3.467  3.4949 -0.1119 -0.3988
 2680TIP3   OH229454   5.820   5.245  10.343 -0.0727  0.1270 -0.1290
 2680TIP3    H129455   5.731   5.233  10.376 -0.0057 -0.3012 -0.1043
 2680TIP3    H229456   5.829   5.340  10.332 -0.5067  0.1752 -0.0638
 2681TIP3   OH229457   1.647   3.036  12.848  0.2397 -0.6544 -0.0752
 2681TIP3    H129458   1.564   3.057  12.893  1.4265  2.1101  1.0465
 2681TIP3    H229459   1.652   2.940  12.852 -3.0545 -0.9666 -0.5383
 2682TIP3   OH229460   2.167   6.179  11.088 -0.4877  0.0271  0.0032
 2682TIP3    H129461   2.079   6.216  11.083 -0.6580 -0.1285  1.4236
 2682TIP3    H229462   2.213   6.215  11.011 -0.4369  3.7078  1.5607
 2683TIP3   OH229463   5.132   2.357   4.889  0.7651 -0.0726  0.1265
 2683TIP3    H129464   5.060   2.405   4.928  1.2644  0.5375  0.3220
 2683TIP3    H229465   5.175   2.314   4.963  1.5147  0.8153  0.2173
 2684TIP3   OH229466   6.683   0.096   3.111  0.2007 -0.0506 -0.0531
 2684TIP3    H129467   6.736   0.068   3.037 -1.1907 -0.4200 -0.9610
 2684TIP3    H229468   6.745   0.132   3.174  1.2738  2.8152 -2.4795
 2685TIP3   OH229469   5.358   0.100   0.817  0.1511 -0.7682  0.0926
 2685TIP3    H129470   5.267   0.076   0.836  0.0441 -1.2490 -0.9903
 2685TIP3    H229471   5.405   0.017   0.814  0.9906 -0.4369  2.2922
 2686TIP3   OH229472   2.141   1.712  14.756 -0.0696 -0.5013 -0.2776
 2686TIP3    H129473   2.217   1.763  14.785  0.3373 -0.7329 -0.9043
 2686TIP3    H229474   2.145   1.716  14.660 -2.2809  1.5721 -0.3563
 2687TIP3   OH229475   6.710   0.660  14.426  0.0774 -0.3418 -0.1173
 2687TIP3    H129476   6.803   0.645  14.442 -0.0436 -1.2954 -0.2350
 2687TIP3    H229477   6.696   0.629  14.336 -0.1841  0.5996 -0.4066
 2688TIP3   OH229478   4.608   1.300   2.091  0.0769  0.1157 -0.5811
 2688TIP3    H129479   4.515   1.296   2.066 -0.3421  1.4621  0.6127
 2688TIP3    H229480   4.651   1.236   2.034 -1.3897  0.3411 -2.0326
 2689TIP3   OH229481   3.010   3.946   3.743 -0.3971  0.0448  0.7761
 2689TIP3    H129482   3.064   3.880   3.786 -0.0638 -0.6947 -0.7132
 2689TIP3    H229483   2.932   3.899   3.714 -0.9685  0.6936  1.2237
 2690TIP3   OH229484   2.933   6.312   2.235  0.4964 -0.2225 -0.0739
 2690TIP3    H129485   2.996   6.246   2.208  0.0625 -0.6170 -0.1471
 2690TIP3    H229486   2.928   6.304   2.330  1.1632  0.3757  0.0217
 2691TIP3   OH229487   3.690   1.227  10.966  0.3770 -0.0917  0.1409
 2691TIP3    H129488   3.757   1.296  10.975 -1.4294  1.7528  0.0688
 2691TIP3    H229489   3.684   1.212  10.871  1.7419 -1.4263  0.2206
 2692TIP3   OH229490   4.688   5.489  12.044  0.0196  0.4223  0.1620
 2692TIP3    H129491   4.724   5.442  11.969 -0.5377 -0.9668  0.7149
 2692TIP3    H229492   4.695   5.581  12.021  0.0702  0.0365 -1.4956
 2693TIP3   OH229493   3.887   4.080   2.828 -0.1751  0.1115 -0.0316
 2693TIP3    H129494   3.917   4.011   2.768 -0.5381  0.5160 -0.6922
 2693TIP3    H229495   3.793   4.065   2.837 -0.4433  1.0901 -0.9673
 2694TIP3   OH229496   5.039   1.651  14.957 -0.7464  0.0278 -0.0377
 2694TIP3    H129497   5.016   1.559  14.940 -0.3528  0.1336 -1.2393
 2694TIP3    H229498   4.979   1.700  14.901 -0.8557  0.5107  0.4964
 2695TIP3   OH229499   6.214   0.582  11.979  0.8127 -0.9370  0.5501
 2695TIP3    H129500   6.287   0.622  12.026  2.0915 -2.0038 -0.4384
 2695TIP3    H229501   6.197   0.642  11.906 -0.8179  0.4430  1.9764
 2696TIP3   OH229502   6.476   5.393  13.336  0.1533 -0.4478  0.1446
 2696TIP3    H129503   6.452   5.485  13.325  2.7421  0.4612  1.1984
 2696TIP3    H229504   6.503   5.364  13.249  1.8275  0.6622  0.2471
 2697TIP3   OH229505   6.283   6.808  14.648 -0.2108  0.5710 -0.6362
 2697TIP3    H129506   6.201   6.855  14.633 -1.6905 -1.0695  1.6538
 2697TIP3    H229507   6.294   6.807  14.743  2.1286  0.1283 -0.8285
 2698TIP3   OH229508   1.118   2.567  13.032 -0.3116 -0.3746  1.1274
 2698TIP3    H129509   1.129   2.601  13.121 -0.7675 -0.7091  1.3235
 2698TIP3    H229510   1.023   2.560  13.022 -0.2682 -0.0922  0.5135
 2699TIP3   OH229511   2.368   2.834   3.263  0.6253  0.4445  0.3018
 2699TIP3    H129512   2.447   2.807   3.217  1.4825  1.0034  1.3853
 2699TIP3    H229513   2.321   2.752   3.281  1.0226  0.0977 -0.2171
 2700TIP3   OH229514   6.499   5.797   0.208 -0.0601 -0.3116  0.6365
 2700TIP3    H129515   6.408   5.827   0.213 -0.2693 -0.9394  0.7433
 2700TIP3    H229516   6.497   5.709   0.247  0.3287 -0.8759 -0.5657
 2701TIP3   OH229517   6.426   1.316  14.843  0.6466 -0.1737 -0.4147
 2701TIP3    H129518   6.507   1.363  14.859  0.4533 -0.5302  2.0512
 2701TIP3    H229519   6.359   1.367  14.889  0.0683 -1.6305  0.4334
 2702TIP3   OH229520   0.863   4.917   5.445  0.0518  0.0010  0.0293
 2702TIP3    H129521   0.843   4.832   5.485  0.9057 -0.5079 -0.5966
 2702TIP3    H229522   0.847   4.980   5.515 -0.4653 -0.6796  0.5457
 2703TIP3   OH229523   3.277   1.143  14.720 -0.1063  0.1070  0.0225
 2703TIP3    H129524   3.334   1.161  14.645  2.1877 -0.7371  1.4553
 2703TIP3    H229525   3.260   1.230  14.758  2.5617  0.2527  1.1019
 2704TIP3   OH229526   3.121   4.387   4.009 -0.3858 -0.2894  0.1635
 2704TIP3    H129527   3.046   4.328   4.017  0.2236 -1.0175  0.7353
 2704TIP3    H229528   3.162   4.362   3.926 -2.1418  1.7886 -1.4186
 2705TIP3   OH229529   5.200   4.430   5.443 -0.0199 -0.5828  0.1800
 2705TIP3    H129530   5.180   4.516   5.480 -2.4934 -1.1325  0.2872
 2705TIP3    H229531   5.180   4.439   5.350  1.0372 -0.6907 -0.0685
 2706TIP3   OH229532   4.583   4.368  11.410  0.1258 -0.0700 -0.0244
 2706TIP3    H129533   4.564   4.400  11.322  0.8409 -1.9097 -0.9119
 2706TIP3    H229534   4.500   4.378  11.457  0.2294  2.7240 -0.2581
 2707TIP3   OH229535   3.823   5.893  13.659 -0.0609 -0.0964 -0.2728
 2707TIP3    H129536   3.912   5.873  13.689 -0.5410 -0.7694  0.7514
 2707TIP3    H229537   3.801   5.822  13.599  0.0689  0.0477 -0.4940
 2708TIP3   OH229538   2.797   2.411  11.100 -0.5854 -0.1697  0.7589
 2708TIP3    H129539   2.778   2.423  11.007  0.2795  1.3514  0.7491
 2708TIP3    H229540   2.857   2.337  11.103 -0.4079 -0.0570  0.0845
 2709TIP3   OH229541   1.550   0.107  10.525  0.1489  0.2947  0.1676
 2709TIP3    H129542   1.583   0.181  10.576 -0.2092  0.8086 -0.3310
 2709TIP3    H229543   1.462   0.134  10.498 -0.8236 -1.1613  1.6991
 2710TIP3   OH229544   4.057   4.082  14.647 -0.4746  0.3812  0.3196
 2710TIP3    H129545   4.031   4.057  14.558 -0.4435  0.8544  0.1756
 2710TIP3    H229546   4.090   4.171  14.638 -0.7877  0.5583  0.8649
 2711TIP3   OH229547   0.422   0.044   5.219  0.0673 -0.6662  0.1830
 2711TIP3    H129548   0.444   0.083   5.304  1.3130 -1.0575  0.0689
 2711TIP3    H229549   0.409  -0.049   5.238 -0.0827 -0.6775  0.0208
 2712TIP3   OH229550   5.232   2.177  16.086 -0.1163  0.4401 -1.0217
 2712TIP3    H129551   5.164   2.183  16.153  1.7285 -1.2052  1.1813
 2712TIP3    H229552   5.236   2.085  16.063  1.5472  0.4389 -0.8514
 2713TIP3   OH229553   4.592   1.037  12.823  0.3351  0.2065  0.4349
 2713TIP3    H129554   4.543   1.071  12.898 -0.9673 -0.3526 -0.1409
 2713TIP3    H229555   4.635   0.958  12.857 -0.3916 -0.1457  0.5615
 2714TIP3   OH229556   4.896   3.864   0.087  0.3600 -0.3280  0.1488
 2714TIP3    H129557   4.861   3.779   0.112  0.0054 -0.3094 -0.2824
 2714TIP3    H229558   4.862   3.925   0.152 -0.1071 -0.3723 -0.0510
 2715TIP3   OH229559   5.677   4.899  13.087  0.1742  0.2541  0.0890
 2715TIP3    H129560   5.636   4.984  13.074  2.5083  1.4414  0.0954
 2715TIP3    H229561   5.682   4.889  13.182 -1.0891 -0.4543  0.1132
 2716TIP3   OH229562   5.788   4.816  15.282 -0.1490  1.0104  0.5258
 2716TIP3    H129563   5.708   4.842  15.327 -0.6446  1.4595 -0.5741
 2716TIP3    H229564   5.776   4.846  15.192  1.3114  1.1867  0.3658
 2717TIP3   OH229565   2.421   4.137  15.546  0.4548  0.4944 -0.8979
 2717TIP3    H129566   2.406   4.228  15.570  1.7640  0.4528  0.1704
 2717TIP3    H229567   2.353   4.088  15.592  0.1540  0.8585 -0.9522
 2718TIP3   OH229568   4.810   3.583  15.873  0.6330  0.3930 -0.0572
 2718TIP3    H129569   4.852   3.642  15.810  1.9298  1.2415  1.5276
 2718TIP3    H229570   4.820   3.496  15.835  1.3066  0.8961 -1.0627
 2719TIP3   OH229571   0.252   0.436  11.911 -0.2155 -0.3614  0.9550
 2719TIP3    H129572   0.199   0.396  11.842 -0.4817 -0.5292  1.2522
 2719TIP3    H229573   0.204   0.514  11.937  1.8971  2.1359 -1.9265
 2720TIP3   OH229574   4.738   0.668  12.708  0.5738 -0.3254  0.0602
 2720TIP3    H129575   4.650   0.695  12.736 -0.1204 -2.2768 -0.1027
 2720TIP3    H229576   4.782   0.750  12.688 -1.4892  0.6981 -0.6520
 2721TIP3   OH229577   4.505   5.426   1.974 -0.3462 -0.3711  0.2203
 2721TIP3    H129578   4.413   5.441   1.952 -0.2892 -0.1509  0.1254
 2721TIP3    H229579   4.551   5.500   1.934 -0.2021 -0.1157  0.8446
 2722TIP3   OH229580   3.596   3.020  14.637  0.6924 -0.2388  0.0501
 2722TIP3    H129581   3.658   3.066  14.581  0.1290  1.0247  0.4353
 2722TIP3    H229582   3.644   3.003  14.718  0.4257  1.1388  0.5200
 2723TIP3   OH229583   4.006   3.621   0.173 -0.3809  0.3785 -0.2875
 2723TIP3    H129584   4.071   3.570   0.125 -0.1048 -0.1572  0.6495
 2723TIP3    H229585   4.033   3.617   0.264 -0.2378  2.3711 -0.1961
 2724TIP3   OH229586   5.053   5.356  15.694 -0.2707 -0.2845 -0.1074
 2724TIP3    H129587   5.091   5.442  15.713 -0.9048 -0.4135  1.9044
 2724TIP3    H229588   5.128   5.297  15.691 -0.0683 -0.1799  1.7697
 2725TIP3   OH229589   3.512   4.239   3.977  0.3308 -0.2809 -0.0496
 2725TIP3    H129590   3.465   4.201   4.052  0.2244 -1.8872 -0.8753
 2725TIP3    H229591   3.575   4.171   3.952  2.1586  1.2515  0.1482
 2726TIP3   OH229592   1.716   4.312   5.118 -0.2887  0.3080 -0.0697
 2726TIP3    H129593   1.786   4.356   5.070 -0.2267  0.1341 -0.1391
 2726TIP3    H229594   1.727   4.219   5.098 -0.4172  0.2593  0.0779
 2727TIP3   OH229595   0.099   3.802  12.514  0.5625 -0.3586  0.3545
 2727TIP3    H129596   0.005   3.799  12.500  0.7306 -0.1398 -1.0249
 2727TIP3    H229597   0.131   3.863  12.448  1.5140  0.7588  1.7951
 2728TIP3   OH229598   3.202   6.514  12.807  0.1233 -0.4646 -0.5405
 2728TIP3    H129599   3.269   6.543  12.869  0.1440 -1.1338 -0.2433
 2728TIP3    H229600   3.131   6.578  12.817  0.7295  0.2899 -0.9064
 2729TIP3   OH229601   3.309   2.194   1.608 -0.5722  0.0124 -0.0348
 2729TIP3    H129602   3.364   2.122   1.638 -0.5020  0.1125  0.0810
 2729TIP3    H229603   3.268   2.162   1.528  1.5622  0.7753 -1.5476
 2730TIP3   OH229604   5.380   0.871  16.237 -0.6505  0.2359  0.4462
 2730TIP3    H129605   5.322   0.802  16.207  0.3757 -0.5362  0.1938
 2730TIP3    H229606   5.358   0.882  16.330  0.4316 -1.7542  0.9926
 2731TIP3   OH229607   6.442   6.332   3.070 -0.4861  0.1217  0.0295
 2731TIP3    H129608   6.522   6.383   3.060 -0.6196  0.3574  0.1580
 2731TIP3    H229609   6.403   6.363   3.152 -0.7340  0.0468 -0.0587
 2732TIP3   OH229610   0.324   3.794  16.680  0.1000 -0.4374 -0.7789
 2732TIP3    H129611   0.403   3.813  16.631  1.1742 -3.1920 -0.2862
 2732TIP3    H229612   0.312   3.699  16.673 -1.9499 -0.4115  0.9439
 2733TIP3   OH229613   4.901   5.540  13.975 -0.0328 -0.4790 -0.2680
 2733TIP3    H129614   4.892   5.516  13.882 -1.3925 -0.2519 -0.2110
 2733TIP3    H229615   4.913   5.635  13.974 -3.7280  0.1076 -0.0944
 2734TIP3   OH229616   0.544   6.764  14.995  0.0734  0.0485 -0.1142
 2734TIP3    H129617   0.550   6.751  14.901  0.9214 -1.0088  0.0658
 2734TIP3    H229618   0.533   6.676  15.031 -0.1734  0.4345  0.7808
 2735TIP3   OH229619   0.402   5.231   5.554 -0.6268 -0.3286 -0.3907
 2735TIP3    H129620   0.423   5.289   5.627 -1.7773  1.3552 -1.3290
 2735TIP3    H229621   0.487   5.211   5.515 -0.1919  0.8012 -0.0731
 2736TIP3   OH229622   3.938   6.154   3.171 -0.0610  0.0681 -0.0094
 2736TIP3    H129623   3.976   6.093   3.233  1.4017  0.6705 -0.2800
 2736TIP3    H229624   3.919   6.233   3.222  1.9882  0.8976 -0.4548
 2737TIP3   OH229625   2.204   3.279   2.835 -0.1511 -0.1909  0.4486
 2737TIP3    H129626   2.300   3.285   2.839 -0.2157  0.2100  2.3772
 2737TIP3    H229627   2.186   3.186   2.823  0.4659  0.0676 -4.6526
 2738TIP3   OH229628   1.810   2.817   2.100 -0.9503 -0.5820 -0.5455
 2738TIP3    H129629   1.727   2.864   2.093 -1.1381 -0.3657  2.0901
 2738TIP3    H229630   1.788   2.734   2.142 -0.1750 -1.7420 -2.3148
 2739TIP3   OH229631   3.101   2.287  10.746  0.2567  0.3726  0.4540
 2739TIP3    H129632   3.176   2.279  10.687 -0.8742  1.4501 -1.2353
 2739TIP3    H229633   3.064   2.199  10.750  0.1946  0.3228 -0.7321
 2740TIP3   OH229634   3.597   3.189   2.882  0.1905 -0.1298  0.3192
 2740TIP3    H129635   3.685   3.226   2.881  0.0845  0.1893  1.3664
 2740TIP3    H229636   3.608   3.100   2.915  0.3320 -0.7537 -1.3290
 2741TIP3   OH229637   6.325   4.390  15.213  0.1346  0.8208 -0.5700
 2741TIP3    H129638   6.372   4.355  15.289 -0.5749 -0.7193 -0.7906
 2741TIP3    H229639   6.366   4.475  15.197  0.8703  0.8127  1.0053
 2742TIP3   OH229640   6.353   1.424   4.346  0.3741 -0.4105  0.1653
 2742TIP3    H129641   6.281   1.417   4.283  0.1923  0.6723  0.2312
 2742TIP3    H229642   6.353   1.516   4.372  0.6597 -0.7622  1.5058
 2743TIP3   OH229643   3.538   0.046   5.162 -0.1850 -0.4271  0.0976
 2743TIP3    H129644   3.461  -0.009   5.146 -1.0140  0.8860 -0.6666
 2743TIP3    H229645   3.544   0.051   5.257 -1.7476  0.3284  0.1971
 2744TIP3   OH229646   6.179   6.528   4.755 -0.0913  0.2318  0.4745
 2744TIP3    H129647   6.263   6.548   4.795  0.4605 -2.2446  0.7674
 2744TIP3    H229648   6.173   6.586   4.679  2.3179 -0.1257 -0.0840
 2745TIP3   OH229649   2.285   3.281  11.555  0.2749  0.7815  0.0845
 2745TIP3    H129650   2.192   3.261  11.541  0.8213 -2.0380 -0.2220
 2745TIP3    H229651   2.315   3.212  11.615  2.1376  1.7333  0.3113
 2746TIP3   OH229652   5.377   1.810   0.030 -0.2429  0.7113  0.2221
 2746TIP3    H129653   5.447   1.796   0.093  0.2751 -0.9128 -0.6626
 2746TIP3    H229654   5.344   1.898   0.049  2.9412  2.1310 -0.2231
 2747TIP3   OH229655   5.823   5.912  12.894 -0.0172  0.1215  0.0413
 2747TIP3    H129656   5.796   5.828  12.930  1.1527 -1.1081 -1.7750
 2747TIP3    H229657   5.919   5.909  12.896  0.1353  2.5753  2.3943
 2748TIP3   OH229658   5.346   4.903   3.095 -0.2719  0.0692  0.0804
 2748TIP3    H129659   5.387   4.986   3.121 -1.1810  0.4691  0.2958
 2748TIP3    H229660   5.255   4.927   3.076 -0.0569 -0.5375 -1.8194
 2749TIP3   OH229661   2.033   2.941  11.782  0.2821 -0.0464 -0.2238
 2749TIP3    H129662   2.012   2.943  11.875 -2.4678  1.6694 -0.7598
 2749TIP3    H229663   1.983   2.867  11.748 -2.1911  1.7897 -0.8976
 2750TIP3   OH229664   3.296   6.452   4.810 -0.8966  0.3068 -0.4935
 2750TIP3    H129665   3.326   6.458   4.719  1.2698  1.3226  0.2314
 2750TIP3    H229666   3.202   6.468   4.805 -0.6068  1.7321 -2.4195
 2751TIP3   OH229667   4.666   5.053   2.511  0.1319 -0.0053  0.3811
 2751TIP3    H129668   4.740   4.993   2.501 -0.3996 -0.7358  0.7226
 2751TIP3    H229669   4.607   5.032   2.439 -0.8287 -1.0573  1.4336
 2752TIP3   OH229670   3.391   4.952  14.191  0.8735 -0.4204 -0.2650
 2752TIP3    H129671   3.345   4.986  14.114  1.8026  1.3124 -0.0858
 2752TIP3    H229672   3.328   4.893  14.232  0.7523 -2.3682 -2.9787
 2753TIP3   OH229673   6.067   1.171  12.828 -0.6087  0.3440  0.5619
 2753TIP3    H129674   6.050   1.192  12.737  1.3563 -1.6167 -0.3803
 2753TIP3    H229675   6.008   1.097  12.847  1.1676 -1.3949 -0.2594
 2754TIP3   OH229676   1.924   1.594   4.047 -0.4646  0.8267  0.3021
 2754TIP3    H129677   2.004   1.607   3.996 -0.4305  0.8527  0.3626
 2754TIP3    H229678   1.865   1.550   3.986 -0.5214  1.1046  0.1542
 2755TIP3   OH229679   2.779   1.660  11.809  0.9163  0.1991  0.0155
 2755TIP3    H129680   2.746   1.621  11.890  1.0029  1.0270  0.4599
 2755TIP3    H229681   2.704   1.660  11.750  1.1516 -1.4885 -0.3303
 2756TIP3   OH229682   2.054   5.007   3.659 -0.3991 -0.6558 -0.1137
 2756TIP3    H129683   2.052   5.014   3.754 -1.0003  0.7855 -0.2072
 2756TIP3    H229684   1.966   4.977   3.635 -1.3736  2.1822 -0.3809
 2757TIP3   OH229685   4.678   0.159   3.988  0.0699  0.0956 -0.1932
 2757TIP3    H129686   4.747   0.161   4.055  0.4390 -1.4322 -0.5001
 2757TIP3    H229687   4.704   0.226   3.925  1.2610 -0.4327 -0.2825
 2758TIP3   OH229688   2.034   3.287   3.522  0.2245  0.1088 -0.8162
 2758TIP3    H129689   1.953   3.236   3.515 -0.4804  1.2969 -1.5844
 2758TIP3    H229690   2.069   3.290   3.434  0.2415  0.9462 -0.7944
 2759TIP3   OH229691   0.297   1.933  12.911  0.4514  0.3504  0.2316
 2759TIP3    H129692   0.272   1.841  12.920  1.7702  0.0934  1.6711
 2759TIP3    H229693   0.290   1.967  13.000  0.9350  1.4000 -0.1243
 2760TIP3   OH229694   5.465   5.863  13.635 -0.1214  0.0198 -0.6954
 2760TIP3    H129695   5.416   5.785  13.612  0.4037 -0.5139 -0.0525
 2760TIP3    H229696   5.509   5.840  13.717  1.3042  0.4224 -1.3204
 2761TIP3   OH229697   3.359   2.260  15.158  0.4539  0.0534 -0.2334
 2761TIP3    H129698   3.279   2.272  15.210  0.0723  0.1262 -0.8265
 2761TIP3    H229699   3.429   2.257  15.223  0.3106  2.7390  0.1874
 2762TIP3   OH229700   5.526   4.945  13.923  0.3499 -0.0618  0.2200
 2762TIP3    H129701   5.464   4.908  13.861  0.6656  2.4153 -1.7408
 2762TIP3    H229702   5.608   4.900  13.905 -0.2293 -1.5288  1.0506
 2763TIP3   OH229703   4.496   5.280  13.187  0.1492  0.4400 -0.0674
 2763TIP3    H129704   4.438   5.340  13.140  0.7020  0.9421 -0.1148
 2763TIP3    H229705   4.536   5.226  13.118  1.6428  1.7681 -0.3016
 2764TIP3   OH229706   4.572   6.122   2.622  0.2064 -0.0388  0.1094
 2764TIP3    H129707   4.602   6.094   2.535 -2.2487 -0.8481 -0.5764
 2764TIP3    H229708   4.518   6.049   2.653 -1.3825  1.4174  0.9815
 2765TIP3   OH229709   0.196   1.175  15.195 -0.3596 -0.9317 -0.4851
 2765TIP3    H129710   0.178   1.081  15.189 -0.2611 -1.0299  0.5909
 2765TIP3    H229711   0.126   1.210  15.250 -1.1715 -0.1239 -1.9481
 2766TIP3   OH229712   5.908   4.613   4.446  0.5079  0.4539  0.0210
 2766TIP3    H129713   5.911   4.553   4.520  0.5169 -2.7847 -2.3795
 2766TIP3    H229714   5.815   4.630   4.432  0.4654  0.4459  0.2940
 2767TIP3   OH229715   5.122   2.314   1.870  0.5236 -0.5540 -0.0720
 2767TIP3    H129716   5.211   2.279   1.867  0.0487 -2.0066  1.3022
 2767TIP3    H229717   5.066   2.238   1.850 -0.4315  0.1958 -0.3354
 2768TIP3   OH229718   6.583   0.963  10.854 -0.2745 -0.9516 -0.0547
 2768TIP3    H129719   6.671   1.002  10.852 -0.7474  0.2081  0.6319
 2768TIP3    H229720   6.530   1.023  10.802 -1.0487 -0.5472  1.1431
 2769TIP3   OH229721   5.975   2.261  11.036 -0.0735  0.3702 -0.1991
 2769TIP3    H129722   5.938   2.258  11.125 -1.5256 -0.1254 -0.8048
 2769TIP3    H229723   5.912   2.312  10.985  0.8119  0.7590 -0.9389
 2770TIP3   OH229724   6.728   1.028   3.602 -0.1167  0.2224 -0.2614
 2770TIP3    H129725   6.788   0.964   3.564  0.0358 -0.3170  0.8597
 2770TIP3    H229726   6.641   0.998   3.575  0.0243  0.2484 -0.7614
 2771TIP3   OH229727   3.379   5.911  12.842  0.1399  0.0775  0.2304
 2771TIP3    H129728   3.303   5.856  12.821  0.3533 -1.2949  2.7262
 2771TIP3    H229729   3.342   5.993  12.874 -0.2125  0.4509 -1.0719
 2772TIP3   OH229730   2.545   2.223   2.641 -0.1857  0.0896 -0.0231
 2772TIP3    H129731   2.548   2.319   2.643 -1.7609  0.1503  1.6511
 2772TIP3    H229732   2.452   2.202   2.640  0.1292 -1.4364  0.3099
 2773TIP3   OH229733   5.512   0.491   3.582 -0.0452 -0.1932 -0.3501
 2773TIP3    H129734   5.521   0.413   3.637 -0.4240  1.1491  1.7313
 2773TIP3    H229735   5.569   0.556   3.624 -0.8840  1.0973 -1.1492
 2774TIP3   OH229736   6.050   5.447  13.363 -0.3829  0.0900  0.2853
 2774TIP3    H129737   5.988   5.444  13.290  2.8180 -3.5293 -2.7450
 2774TIP3    H229738   6.122   5.390  13.335  1.0208 -1.9655  6.5580
 2775TIP3   OH229739   6.122   4.527  11.404 -0.1811  0.1470  0.4532
 2775TIP3    H129740   6.090   4.597  11.347 -1.7113 -1.5779 -0.9532
 2775TIP3    H229741   6.111   4.561  11.492 -0.7990  1.7018 -0.1873
 2776TIP3   OH229742   2.445   0.015  12.544  0.4319  0.2327  0.1272
 2776TIP3    H129743   2.469  -0.073  12.515 -0.2866 -0.2851  1.0629
 2776TIP3    H229744   2.464   0.070  12.468 -1.1765 -1.0309 -1.3044
 2777TIP3   OH229745   0.794   5.881   5.441  0.7292  0.2411 -0.6789
 2777TIP3    H129746   0.851   5.825   5.388  0.9988 -1.8833  1.6769
 2777TIP3    H229747   0.706   5.868   5.405  1.1066  0.1167 -1.5868
 2778TIP3   OH229748   2.196   4.923  14.127 -0.0679 -0.2782  0.0736
 2778TIP3    H129749   2.183   4.894  14.217  0.9264 -0.8748  0.0326
 2778TIP3    H229750   2.283   4.891  14.103 -0.5757 -0.7034 -1.3219
 2779TIP3   OH229751   0.541   3.286   2.554 -0.7263  0.1654 -0.1597
 2779TIP3    H129752   0.524   3.234   2.632 -0.6157  1.4828  0.7736
 2779TIP3    H229753   0.457   3.292   2.510 -0.6344 -1.2407 -0.5958
 2780TIP3   OH229754   0.490   2.258   2.459  0.2174  0.1291 -0.1292
 2780TIP3    H129755   0.509   2.226   2.371  2.4441 -1.7702  0.9392
 2780TIP3    H229756   0.429   2.193   2.495  0.2684  0.2267  0.1354
 2781TIP3   OH229757   0.360   6.111  13.086  0.6085  0.6979  0.5037
 2781TIP3    H129758   0.273   6.121  13.047  0.1017  2.3686  1.9542
 2781TIP3    H229759   0.347   6.052  13.160  0.5600  1.4746  1.1238
 2782TIP3   OH229760   6.550   2.580  11.738  0.2425  0.3945 -0.1871
 2782TIP3    H129761   6.498   2.504  11.765 -0.1495  0.9851  0.7759
 2782TIP3    H229762   6.617   2.544  11.680  0.9006 -0.9080  1.3006
 2783TIP3   OH229763   3.963   1.867  12.293  0.7789 -0.0384 -0.3651
 2783TIP3    H129764   3.876   1.827  12.283  0.4914  0.3187  0.5769
 2783TIP3    H229765   3.987   1.895  12.205  0.9019 -2.0764 -1.0395
 2784TIP3   OH229766   0.535   5.906  12.592 -0.5988  0.4411 -0.0607
 2784TIP3    H129767   0.554   5.841  12.659 -1.9926 -0.1636 -0.2182
 2784TIP3    H229768   0.621   5.931  12.557  0.1790  0.9754  2.0973
 2785TIP3   OH229769   1.028   6.021   0.330 -0.3617 -0.6027  0.1107
 2785TIP3    H129770   0.984   6.089   0.279 -0.4400 -0.9251 -0.2639
 2785TIP3    H229771   0.959   5.981   0.382 -0.3707 -0.5815  0.1150
 2786TIP3   OH229772   3.651   1.970  14.009 -0.4178  0.1342 -0.5591
 2786TIP3    H129773   3.638   1.876  14.017  0.8227  0.0057  0.2264
 2786TIP3    H229774   3.746   1.981  14.000 -0.3713  1.3758  0.8926
 2787TIP3   OH229775   6.256   4.308  14.404  0.0697  0.3344  0.2311
 2787TIP3    H129776   6.286   4.263  14.483  1.2845  0.0650 -0.3559
 2787TIP3    H229777   6.337   4.334  14.359 -0.5746 -0.4304 -1.4405
 2788TIP3   OH229778   0.044   2.672  13.452  0.0857  0.2049  0.9342
 2788TIP3    H129779   0.043   2.678  13.356 -0.2049  0.2678  0.9416
 2788TIP3    H229780   0.024   2.580  13.470  1.0848 -0.0362  0.9153
 2789TIP3   OH229781   3.640   4.836   0.304  0.1866 -0.4076 -0.1892
 2789TIP3    H129782   3.633   4.743   0.282  1.2532 -0.4183 -0.5317
 2789TIP3    H229783   3.562   4.854   0.358  0.4531 -1.7224  0.6820
 2790TIP3   OH229784   1.495   4.759  14.591  0.3269  0.0630  0.5329
 2790TIP3    H129785   1.521   4.714  14.672  0.7809 -0.0956  0.3013
 2790TIP3    H229786   1.560   4.829  14.581  1.2662 -0.9119 -0.5494
 2791TIP3   OH229787   2.239   3.717  16.593  0.0061 -0.1377  0.1135
 2791TIP3    H129788   2.332   3.697  16.583 -0.2324 -1.2691  0.0054
 2791TIP3    H229789   2.195   3.632  16.583 -0.9461  0.1491  1.5082
 2792TIP3   OH229790   1.884   3.936   4.505 -0.2044 -0.2403 -0.3944
 2792TIP3    H129791   1.814   3.951   4.569  0.8215  1.1379  0.4719
 2792TIP3    H229792   1.838   3.921   4.422 -1.5352 -0.6784  0.3920
 2793TIP3   OH229793   6.303   3.638   2.579 -0.0752  0.0035  0.5413
 2793TIP3    H129794   6.375   3.589   2.539 -0.4135 -1.1597  1.2748
 2793TIP3    H229795   6.264   3.687   2.507  0.2205 -0.9076 -0.2703
 2794TIP3   OH229796   1.857   3.623  12.369  0.4163  0.1605 -0.4471
 2794TIP3    H129797   1.772   3.589  12.343 -0.1898 -0.9054  2.5725
 2794TIP3    H229798   1.853   3.716  12.347 -1.5799  0.1473 -0.3356
 2795TIP3   OH229799   4.044   3.642  13.450 -0.0556 -0.5552  0.4178
 2795TIP3    H129800   4.124   3.649  13.501 -0.1810  2.2422  0.4075
 2795TIP3    H229801   4.073   3.624  13.361  0.7075  1.3943  0.2228
 2796TIP3   OH229802   0.977   3.981  11.711 -0.6669  0.2831 -0.1602
 2796TIP3    H129803   1.031   4.054  11.678  2.8931 -0.9937  2.2400
 2796TIP3    H229804   0.985   3.987  11.806  1.0678 -3.9309  0.1829
 2797TIP3   OH229805   1.561   1.551  10.787 -0.0261 -0.0775  0.0101
 2797TIP3    H129806   1.500   1.546  10.860  0.7917  0.9396  0.7972
 2797TIP3    H229807   1.590   1.460  10.774 -0.4044 -0.3132  0.7516
 2798TIP3   OH229808   1.459   2.725   1.577  0.3204  0.0149 -0.1239
 2798TIP3    H129809   1.515   2.775   1.517 -1.3153  0.9970 -0.9264
 2798TIP3    H229810   1.390   2.689   1.521  0.0385 -1.0210  0.8479
 2799TIP3   OH229811   5.707   1.241  11.456  0.1379  0.3354  0.2579
 2799TIP3    H129812   5.753   1.164  11.424  1.3348  1.3430 -0.5523
 2799TIP3    H229813   5.618   1.232  11.423 -0.4240 -1.8106  2.1072
 2800TIP3   OH229814   6.464   0.065   3.765 -0.0294  0.2260 -0.3131
 2800TIP3    H129815   6.432  -0.024   3.782  1.5578 -0.3872 -0.3468
 2800TIP3    H229816   6.385   0.118   3.762 -0.9517 -1.0048  0.7294
 2801TIP3   OH229817   4.158   4.523  15.478  0.2261 -0.4703 -0.2037
 2801TIP3    H129818   4.115   4.567  15.551  1.3846  1.0037 -0.3745
 2801TIP3    H229819   4.150   4.584  15.404  0.6449 -1.1546 -0.8291
 2802TIP3   OH229820   4.334   5.271   1.122 -0.0521 -0.0375  0.4945
 2802TIP3    H129821   4.255   5.313   1.088 -0.7181 -1.1115  0.6616
 2802TIP3    H229822   4.380   5.240   1.045  0.8959  1.7023  0.3037
 2803TIP3   OH229823   3.400   2.222   1.080  0.8634 -0.2079  0.1162
 2803TIP3    H129824   3.412   2.168   1.002  1.5437  1.3250 -0.9003
 2803TIP3    H229825   3.321   2.188   1.122  1.0757 -1.7313 -0.6575
 2804TIP3   OH229826   0.653   0.762   5.794 -0.1483  0.3899  0.4161
 2804TIP3    H129827   0.619   0.799   5.712  0.7340 -0.9412 -0.5752
 2804TIP3    H229828   0.699   0.835   5.836  0.7708  0.6810 -1.0609
 2805TIP3   OH229829   4.712   6.444  13.652  0.4115  0.0985 -0.6952
 2805TIP3    H129830   4.621   6.436  13.624  0.4894 -0.4386 -0.8033
 2805TIP3    H229831   4.750   6.357  13.638  0.7092  0.0763  0.1552
 2806TIP3   OH229832   3.412   0.542   3.686  0.3505  0.1162  0.2468
 2806TIP3    H129833   3.496   0.544   3.731  0.5491  1.2326 -0.1469
 2806TIP3    H229834   3.423   0.477   3.617  0.4953 -0.5999  0.9368
 2807TIP3   OH229835   5.313   1.676   6.551 -0.7286  0.1223  0.6622
 2807TIP3    H129836   5.406   1.668   6.529 -0.1397  1.8766  2.2483
 2807TIP3    H229837   5.288   1.589   6.582  0.9647  0.1429  2.2103
 2808TIP3   OH229838   5.237   5.354  16.466  0.0936 -0.7227  0.5967
 2808TIP3    H129839   5.152   5.388  16.493  0.2936 -0.2554  0.6538
 2808TIP3    H229840   5.294   5.366  16.542  0.8285  1.2021 -0.1941
 2809TIP3   OH229841   0.855   1.274   1.491 -0.2831  0.6725  0.2672
 2809TIP3    H129842   0.932   1.332   1.489 -0.3814  0.7874 -0.3871
 2809TIP3    H229843   0.856   1.230   1.406  0.5443 -1.2868  1.2266
 2810TIP3   OH229844   4.354   6.432   5.454 -0.4853 -0.3983  0.6069
 2810TIP3    H129845   4.339   6.338   5.458 -0.6412 -0.3992  0.0929
 2810TIP3    H229846   4.363   6.451   5.360  0.9691 -0.1181  0.7693
 2811TIP3   OH229847   5.145   1.952   3.786 -0.1078 -0.5202 -0.0113
 2811TIP3    H129848   5.176   1.993   3.867 -0.4558  0.0709 -0.1726
 2811TIP3    H229849   5.147   1.858   3.805  1.7863 -0.5252 -0.0157
 2812TIP3   OH229850   0.428   1.126  16.890  0.1026  0.2665 -0.2760
 2812TIP3    H129851   0.508   1.128  16.942  0.0254  2.7678 -0.1271
 2812TIP3    H229852   0.358   1.134  16.954 -0.2067 -0.5586 -0.5055
 2813TIP3   OH229853   3.465   3.982   5.522 -0.5429 -0.1088  0.3593
 2813TIP3    H129854   3.527   3.912   5.543 -0.7702 -1.0941 -1.9293
 2813TIP3    H229855   3.517   4.049   5.479 -0.7869 -0.2756 -0.2179
 2814TIP3   OH229856   1.359   0.977  12.518  0.0555 -0.0383  0.0194
 2814TIP3    H129857   1.401   1.033  12.583 -0.6444  0.2337  0.2413
 2814TIP3    H229858   1.431   0.942  12.466  0.5049  0.9988 -0.0667
 2815TIP3   OH229859   0.238   1.119   0.053 -0.0928  0.4571 -0.7068
 2815TIP3    H129860   0.297   1.068   0.108 -0.8944  1.0018  0.7139
 2815TIP3    H229861   0.150   1.099   0.085 -0.6463  0.3714 -2.1655
 2816TIP3   OH229862   5.306   0.965  12.666  0.6060 -0.5004 -0.2890
 2816TIP3    H129863   5.284   1.035  12.727  0.9985  0.4435 -1.2016
 2816TIP3    H229864   5.240   0.972  12.597  0.6219 -1.0578 -0.3628
 2817TIP3   OH229865   3.375   4.656   1.449  0.6863 -0.0039 -0.0750
 2817TIP3    H129866   3.399   4.709   1.372  1.2371 -0.5745 -0.3057
 2817TIP3    H229867   3.394   4.713   1.524  1.1117  0.1920 -0.3291
 2818TIP3   OH229868   5.181   4.255   5.190 -0.6966  0.1286  0.1552
 2818TIP3    H129869   5.086   4.253   5.206 -0.7406 -0.5888 -0.1475
 2818TIP3    H229870   5.189   4.288   5.101 -0.8391 -2.3808 -0.8773
 2819TIP3   OH229871   3.854   1.921   2.813 -0.2152  0.5134  0.0018
 2819TIP3    H129872   3.889   1.888   2.896 -0.0674  0.3129 -0.1423
 2819TIP3    H229873   3.907   1.999   2.795 -0.2126  0.5272  0.0671
 2820TIP3   OH229874   0.606   3.398  12.983 -0.1970  0.0368  0.2659
 2820TIP3    H129875   0.629   3.402  13.076 -1.8406 -1.3326  0.7795
 2820TIP3    H229876   0.634   3.311  12.955 -1.9969 -0.5403  0.1655
 2821TIP3   OH229877   3.491   1.618  16.481 -0.0703  0.0800  0.3919
 2821TIP3    H129878   3.407   1.574  16.474 -0.9237  1.8050 -0.8010
 2821TIP3    H229879   3.481   1.699  16.431  0.7822  2.5700  3.8110
 2822TIP3   OH229880   3.983   0.768   2.639  0.0853  0.2484  0.0879
 2822TIP3    H129881   3.983   0.680   2.678 -0.8948 -0.3559 -1.1898
 2822TIP3    H229882   3.953   0.825   2.709 -0.9632 -0.7043  0.4424
 2823TIP3   OH229883   6.122   2.461   3.842 -0.0440 -0.3368 -0.2125
 2823TIP3    H129884   6.072   2.513   3.905  2.2458  1.2195  0.4444
 2823TIP3    H229885   6.149   2.384   3.892  0.4998  0.1689  0.3046
 2824TIP3   OH229886   2.204   3.289   3.758 -0.7099 -0.4494 -0.4948
 2824TIP3    H129887   2.138   3.280   3.689 -0.2565  0.5913 -1.0977
 2824TIP3    H229888   2.180   3.369   3.804  1.3264  1.2404 -2.1419
 2825TIP3   OH229889   2.769   3.110   3.174 -0.2296 -0.0263  0.6005
 2825TIP3    H129890   2.759   3.037   3.113  1.0179  1.7784 -2.0021
 2825TIP3    H229891   2.681   3.125   3.208 -0.8383 -1.6209 -0.1607
 2826TIP3   OH229892   1.411   6.814  11.429 -0.6045 -0.3639 -0.6694
 2826TIP3    H129893   1.415   6.800  11.335 -1.9109 -1.6797 -0.5677
 2826TIP3    H229894   1.377   6.731  11.464  1.7626 -0.6577  1.1788
 2827TIP3   OH229895   6.756   5.312   3.415  0.0417  0.3425 -0.7586
 2827TIP3    H129896   6.703   5.349   3.486  0.7045 -0.6988  0.3112
 2827TIP3    H229897   6.696   5.257   3.366  0.0430 -0.6335  0.2954
 2828TIP3   OH229898   4.028   1.592   0.570 -0.1737  0.2693  0.6801
 2828TIP3    H129899   4.112   1.568   0.531 -0.5201  0.6152 -0.3105
 2828TIP3    H229900   4.011   1.681   0.539 -0.7427  0.3349  1.1584
 2829TIP3   OH229901   1.297   1.073  11.875 -0.3163  0.5432  0.4134
 2829TIP3    H129902   1.279   1.166  11.893 -2.4930  0.1373  0.5965
 2829TIP3    H229903   1.212   1.037  11.849  0.6500 -1.2451 -0.4123
 2830TIP3   OH229904   4.347   0.955   3.741  0.6607  0.6923 -0.4111
 2830TIP3    H129905   4.363   0.977   3.832  1.1157  0.5077 -0.4448
 2830TIP3    H229906   4.420   0.995   3.693  1.0291 -0.1513 -0.5711
 2831TIP3   OH229907   2.492   0.452  10.676  0.1656 -0.4105 -0.3981
 2831TIP3    H129908   2.428   0.409  10.619  0.7201  0.1114 -1.4491
 2831TIP3    H229909   2.497   0.542  10.643 -1.7751  0.8668  2.4188
 2832TIP3   OH229910   3.611   2.020   2.902 -0.1779 -0.3767 -0.0843
 2832TIP3    H129911   3.643   1.934   2.873 -1.5786 -0.8710 -0.2380
 2832TIP3    H229912   3.527   2.030   2.858 -0.3137  0.8172  0.4153
 2833TIP3   OH229913   1.851   0.800   5.226 -0.6792  0.0494 -0.0654
 2833TIP3    H129914   1.911   0.864   5.264 -1.9102  1.3501 -0.2370
 2833TIP3    H229915   1.875   0.717   5.267  0.4553  0.7417  0.7334
 2834TIP3   OH229916   4.950   4.157   2.604  0.2581  0.1559 -0.5515
 2834TIP3    H129917   4.969   4.074   2.647  1.3386 -0.2913 -1.8007
 2834TIP3    H229918   5.007   4.220   2.648  2.0887 -0.4802 -1.8339
 2835TIP3   OH229919   2.117   3.258  11.153  0.1209 -0.0676 -0.1421
 2835TIP3    H129920   2.047   3.227  11.095  0.5665 -1.0368 -0.1765
 2835TIP3    H229921   2.187   3.284  11.093 -1.1208  3.5062 -0.2939
 2836TIP3   OH229922   3.980   6.441   2.818  0.0423  0.7171  0.6380
 2836TIP3    H129923   4.031   6.480   2.747  1.2912  1.8748  2.0921
 2836TIP3    H229924   4.001   6.495   2.895  0.7761 -1.9723  2.4690
 2837TIP3   OH229925   1.953   4.631  11.914  0.4072  0.0883 -0.8159
 2837TIP3    H129926   1.911   4.607  11.831 -0.4329  2.6604 -1.2208
 2837TIP3    H229927   2.009   4.705  11.892 -0.8700  1.7073  1.1071
 2838TIP3   OH229928   3.190   3.794   3.183 -0.3687 -0.7445  0.8821
 2838TIP3    H129929   3.282   3.782   3.160 -0.2975 -0.1307  0.8420
 2838TIP3    H229930   3.142   3.779   3.102 -0.2592 -0.5088  0.7714
 2839TIP3   OH229931   4.718   4.771   4.240 -0.2929 -0.5473 -0.0446
 2839TIP3    H129932   4.681   4.846   4.288 -1.0161 -1.8714  1.5610
 2839TIP3    H229933   4.745   4.808   4.156 -0.1162  1.6239  0.8980
 2840TIP3   OH229934   6.560   0.796  12.965 -0.8295 -0.2964 -0.3401
 2840TIP3    H129935   6.532   0.706  12.951 -4.7875  0.4646  1.2037
 2840TIP3    H229936   6.616   0.793  13.042 -2.2407 -1.3482  0.6976
 2841TIP3   OH229937   0.573   5.184  12.163 -0.2649 -0.2429  0.4451
 2841TIP3    H129938   0.565   5.189  12.068  1.3339  0.5870  0.3101
 2841TIP3    H229939   0.643   5.246  12.184 -1.0493  0.0956  2.2435
 2842TIP3   OH229940   6.299   4.786   0.622  0.2344  0.2272 -0.1550
 2842TIP3    H129941   6.268   4.875   0.639  3.1765  1.5286 -1.0577
 2842TIP3    H229942   6.382   4.780   0.670  0.2965 -1.9205 -0.4310
 2843TIP3   OH229943   3.667   6.294  10.675  0.1975 -0.5580 -0.6230
 2843TIP3    H129944   3.752   6.249  10.666 -0.2626 -1.0947 -2.9959
 2843TIP3    H229945   3.602   6.226  10.658 -0.7338 -0.0357  0.6652
 2844TIP3   OH229946   6.714   3.445   5.278  0.6114  0.3609 -0.3286
 2844TIP3    H129947   6.762   3.491   5.347  2.9141 -0.0964 -1.4963
 2844TIP3    H229948   6.712   3.507   5.205 -1.8286  0.8561  0.0716
 2845TIP3   OH229949   1.572   3.627  16.916  0.5397 -0.1763 -0.1970
 2845TIP3    H129950   1.570   3.674  16.999  0.9852 -0.1245 -0.2144
 2845TIP3    H229951   1.528   3.544  16.933  1.0691 -0.3697  0.2111
 2846TIP3   OH229952   4.526   0.595  10.269 -0.1418 -0.0379 -0.1162
 2846TIP3    H129953   4.527   0.523  10.332  2.2853 -1.1058 -1.2038
 2846TIP3    H229954   4.550   0.672  10.320 -3.5830  0.3182  1.2343
 2847TIP3   OH229955   2.824   4.770  15.788 -0.3343  0.1092  0.5820
 2847TIP3    H129956   2.894   4.821  15.828  1.8425 -2.0617 -0.1969
 2847TIP3    H229957   2.747   4.827  15.791  1.5511  2.7949  1.1006
 2848TIP3   OH229958   0.830   3.389  14.954  0.4451  0.1217  0.2355
 2848TIP3    H129959   0.756   3.360  14.900  0.5429 -0.3445  0.3544
 2848TIP3    H229960   0.799   3.381  15.044  0.2487  0.9926  0.2568
 2849TIP3   OH229961   2.252   3.148  12.760  0.3524  0.3456  0.7663
 2849TIP3    H129962   2.289   3.236  12.771  0.2055  0.6586 -0.9519
 2849TIP3    H229963   2.158   3.164  12.749  0.0331 -0.2228  2.3943
 2850TIP3   OH229964   1.601   3.204  12.412 -0.0743  0.1319 -0.1391
 2850TIP3    H129965   1.550   3.188  12.333 -0.2690 -2.1370  0.3903
 2850TIP3    H229966   1.552   3.161  12.482  0.6452  1.1636  1.0514
 2851TIP3   OH229967   0.807   6.760   4.992 -0.2946  0.3788 -0.6566
 2851TIP3    H129968   0.831   6.852   4.990  1.5452 -0.0196  0.8542
 2851TIP3    H229969   0.878   6.717   5.039 -0.7941 -1.9218 -1.8434
 2852TIP3   OH229970   4.868   3.235   3.642  0.1419  0.0704  0.3711
 2852TIP3    H129971   4.914   3.316   3.619 -0.6753  0.4364 -0.0583
 2852TIP3    H229972   4.853   3.192   3.558  0.2565 -0.3534  0.5667
 2853TIP3   OH229973   2.574   4.974   0.075 -0.3317  0.9641  0.3796
 2853TIP3    H129974   2.620   4.890   0.077  0.7187  1.4894 -0.4970
 2853TIP3    H229975   2.527   4.973  -0.009 -0.8409  1.0001  0.6584
 2854TIP3   OH229976   2.305   3.008  13.229  0.0567 -0.5939 -0.0386
 2854TIP3    H129977   2.371   3.053  13.176  0.1836  0.6451  1.1417
 2854TIP3    H229978   2.231   3.068  13.233  0.1850 -0.4964  1.4766
 2855TIP3   OH229979   5.156   3.048  16.983 -0.4634  0.6172 -0.3550
 2855TIP3    H129980   5.072   3.030  17.027 -0.0275  0.3910  0.4011
 2855TIP3    H229981   5.131   3.078  16.896 -1.3143 -0.6678 -0.5856
 2856TIP3   OH229982   6.753   3.541  12.064 -0.4595  0.6627 -0.0777
 2856TIP3    H129983   6.684   3.539  11.997  0.6081 -0.7659 -1.1924
 2856TIP3    H229984   6.821   3.597  12.027 -0.5951  1.3162  0.6225
 2857TIP3   OH229985   2.138   2.860   4.269  0.0192 -0.1188  0.5743
 2857TIP3    H129986   2.155   2.781   4.218  0.7887  0.5181 -0.1980
 2857TIP3    H229987   2.209   2.862   4.334 -0.3706 -0.3871  1.0202
 2858TIP3   OH229988   4.056   5.292  10.654  0.0766 -0.2078 -0.0503
 2858TIP3    H129989   4.097   5.298  10.568 -1.2279  0.4709 -0.6620
 2858TIP3    H229990   3.978   5.237  10.640  1.2111 -2.2983  1.2856
 2859TIP3   OH229991   4.835   3.021  14.561  0.3088  0.3509  0.6716
 2859TIP3    H129992   4.834   2.934  14.521  1.0039  0.6798 -0.0764
 2859TIP3    H229993   4.748   3.031  14.599  0.1653 -0.6022  0.6074
 2860TIP3   OH229994   1.009   6.130   5.777 -0.4210  0.0535  0.1754
 2860TIP3    H129995   1.100   6.158   5.773 -0.0891 -1.1467 -0.8999
 2860TIP3    H229996   0.959   6.210   5.759  0.4511  0.3744 -0.8854
 2861TIP3   OH229997   1.423   3.196  16.496  0.4827 -0.2058  0.6747
 2861TIP3    H129998   1.351   3.199  16.432 -0.0669 -0.6742  1.2537
 2861TIP3    H229999   1.431   3.104  16.518  2.6939 -0.4620 -0.9336
 2862TIP3   OH230000   0.346   2.085   9.962  0.6062 -0.0650 -0.1237
 2862TIP3    H130001   0.306   2.076  10.049 -1.1612  1.5520 -0.6951
 2862TIP3    H230002   0.440   2.086   9.979  0.4605 -2.5843  1.4408
 2863TIP3   OH230003   5.552   5.043  16.399 -0.0749 -0.0188 -0.2381
 2863TIP3    H130004   5.627   4.988  16.377  0.2174  0.8997 -1.6357
 2863TIP3    H230005   5.572   5.077  16.486  0.7006 -0.5001 -0.2209
 2864TIP3   OH230006   3.519   2.266   0.592  0.2175 -0.1752  0.1980
 2864TIP3    H130007   3.613   2.288   0.588  0.5520 -1.5059  0.3303
 2864TIP3    H230008   3.509   2.218   0.674 -0.8276  0.9703  0.7745
 2865TIP3   OH230009   2.927   1.899  11.918 -0.5402 -0.3940  0.0912
 2865TIP3    H130010   3.021   1.883  11.920 -0.5088 -0.3304 -0.7921
 2865TIP3    H230011   2.889   1.819  11.882 -0.8845 -0.6487  0.9944
 2866TIP3   OH230012   0.162   3.799   0.435 -0.0337  0.3483  0.3129
 2866TIP3    H130013   0.112   3.742   0.493  0.3383  0.9859  1.2858
 2866TIP3    H230014   0.254   3.783   0.458  0.0984  0.9005  0.1873
 2867TIP3   OH230015   6.432   3.871   0.890  0.0125 -0.6536  0.1743
 2867TIP3    H130016   6.423   3.874   0.985 -0.1188  2.0106  0.1581
 2867TIP3    H230017   6.434   3.963   0.863 -0.1958 -1.3242 -2.4322
 2868TIP3   OH230018   0.253   0.335  14.902 -0.0958 -0.2174  0.5772
 2868TIP3    H130019   0.229   0.312  14.812  1.3085 -1.2849  0.4402
 2868TIP3    H230020   0.264   0.250  14.945  4.3276  0.0136  0.3336
 2869TIP3   OH230021   2.446   2.481  14.527  0.3722 -0.0920  0.0138
 2869TIP3    H130022   2.452   2.399  14.478  0.7815 -0.3158  0.4242
 2869TIP3    H230023   2.357   2.512  14.512  0.7150  0.2507 -1.5061
 2870TIP3   OH230024   2.238   6.704  12.936  0.0622 -0.3292  0.0440
 2870TIP3    H130025   2.222   6.747  13.019  0.9924 -0.4296  0.2834
 2870TIP3    H230026   2.176   6.631  12.934 -1.4066  0.8678 -0.2900
 2871TIP3   OH230027   4.109   2.671  12.302 -0.6062 -0.1781 -0.2952
 2871TIP3    H130028   4.183   2.655  12.244 -1.2071 -0.0794 -1.0955
 2871TIP3    H230029   4.083   2.584  12.333 -2.5645 -0.6758 -3.0290
 2872TIP3   OH230030   2.745   5.630   0.649 -0.2279 -0.3426 -0.5582
 2872TIP3    H130031   2.823   5.636   0.593 -1.2178  1.3025 -1.8740
 2872TIP3    H230032   2.694   5.558   0.612 -1.0483  0.9605 -2.1094
 2873TIP3   OH230033   1.058   6.017   1.180 -0.2590  0.1944  0.0020
 2873TIP3    H130034   1.112   5.945   1.149 -0.8100 -1.1016  1.9028
 2873TIP3    H230035   0.979   6.014   1.126 -1.0183 -1.7429  1.1408
 2874TIP3   OH230036   0.327   4.403   4.066  0.1391 -0.2049  0.1017
 2874TIP3    H130037   0.328   4.483   4.119  1.5132  0.9753 -1.5893
 2874TIP3    H230038   0.384   4.342   4.114 -0.7041 -0.1032  1.2666
 2875TIP3   OH230039   2.377   0.012  14.856 -0.0099  0.0962  0.2374
 2875TIP3    H130040   2.385  -0.083  14.848 -0.8955  0.1126 -0.9556
 2875TIP3    H230041   2.355   0.042  14.769  1.0272  1.5056  0.4208
 2876TIP3   OH230042   3.934   3.792   5.690 -0.1707  0.1855  0.2195
 2876TIP3    H130043   3.877   3.800   5.766 -0.5873 -0.6577  0.0127
 2876TIP3    H230044   3.933   3.698   5.669  1.3534  0.1276  0.2674
 2877TIP3   OH230045   5.650   0.258  10.659  0.7834 -0.2651  0.9305
 2877TIP3    H130046   5.630   0.335  10.607  2.0486  1.1794  2.4536
 2877TIP3    H230047   5.643   0.185  10.598  1.9920  1.2969 -1.2126
 2878TIP3   OH230048   3.618   0.113   4.261 -0.0347  0.2628  0.6179
 2878TIP3    H130049   3.537   0.119   4.313  0.5184 -0.8464  1.6692
 2878TIP3    H230050   3.663   0.196   4.277 -1.0857  1.0144 -0.2142
 2879TIP3   OH230051   3.607   0.007  12.103  0.5325  0.3770  0.0485
 2879TIP3    H130052   3.663   0.085  12.098  2.2567 -0.7029  1.2369
 2879TIP3    H230053   3.594  -0.008  12.196  1.8318 -1.7605 -0.0214
 2880TIP3   OH230054   5.368   1.702  10.466  0.6930  0.0511 -0.0873
 2880TIP3    H130055   5.356   1.773  10.403  1.4098 -1.4035 -1.9622
 2880TIP3    H230056   5.391   1.746  10.547 -0.1462  2.0102 -0.8405
 2881TIP3   OH230057   3.060   4.049  14.828  0.2163 -0.6671  0.1178
 2881TIP3    H130058   3.071   4.143  14.816 -0.3364 -0.8479 -2.3086
 2881TIP3    H230059   2.975   4.040  14.872  1.2398 -0.0069  2.3605
 2882TIP3   OH230060   3.562   5.444   3.026  0.2931 -0.0376 -0.0298
 2882TIP3    H130061   3.620   5.517   3.049 -0.7027  0.9591 -0.5607
 2882TIP3    H230062   3.576   5.432   2.932 -0.6560  0.5140 -0.2573
 2883TIP3   OH230063   4.901   3.989   2.175 -0.0403  0.8042  0.4760
 2883TIP3    H130064   4.881   3.940   2.096  4.9197  0.2241 -0.7784
 2883TIP3    H230065   4.888   3.926   2.246 -0.2677 -0.1193 -0.3629
 2884TIP3   OH230066   2.888   1.671   6.557  0.7452 -0.0783 -0.1127
 2884TIP3    H130067   2.807   1.675   6.608  1.1988 -0.2175  0.6220
 2884TIP3    H230068   2.896   1.758   6.518  0.9132  0.3453  0.8541
 2885TIP3   OH230069   2.587   1.786   2.648  0.0633 -0.4936  0.4995
 2885TIP3    H130070   2.595   1.859   2.709  1.4076 -0.2163  0.0176
 2885TIP3    H230071   2.527   1.817   2.580  0.6468  0.1786  0.2832
 2886TIP3   OH230072   4.466   0.687  14.319  0.2550  0.3572  0.9695
 2886TIP3    H130073   4.452   0.736  14.400 -0.7701  0.3252  0.8274
 2886TIP3    H230074   4.465   0.595  14.347  2.1414  0.3788  1.2322
 2887TIP3   OH230075   4.089   0.455  12.472 -0.0109  0.0942  0.1261
 2887TIP3    H130076   4.161   0.496  12.519 -0.4800  0.2591  0.7007
 2887TIP3    H230077   4.105   0.477  12.380  0.1857  0.8867  0.3421
 2888TIP3   OH230078   3.019   3.228  11.628  0.1319  0.0802 -0.5857
 2888TIP3    H130079   2.942   3.180  11.661  0.2894  0.5742  0.5634
 2888TIP3    H230080   3.029   3.301  11.689  1.6762 -0.1171 -0.5661
 2889TIP3   OH230081   0.976   1.259  10.988 -0.4363  0.2763 -0.0182
 2889TIP3    H130082   1.070   1.268  10.973 -0.4966  2.0063  0.4349
 2889TIP3    H230083   0.968   1.242  11.082 -0.5553 -0.6395 -0.1845
 2890TIP3   OH230084   3.285   3.067   6.117 -0.1563  0.3413 -0.6592
 2890TIP3    H130085   3.274   3.143   6.173 -0.3042  1.3082 -1.9562
 2890TIP3    H230086   3.355   3.016   6.158 -1.6291 -0.0579  1.5038
 2891TIP3   OH230087   3.659   3.693  16.706  0.2118  0.8257  0.1861
 2891TIP3    H130088   3.638   3.643  16.785  0.0340  0.8888  0.1797
 2891TIP3    H230089   3.649   3.785  16.734 -1.0904  0.8339 -0.2453
 2892TIP3   OH230090   4.045   5.065  14.456  0.1244  0.2166  0.2589
 2892TIP3    H130091   3.973   5.127  14.471 -0.3542 -0.3710  0.4074
 2892TIP3    H230092   4.018   4.985  14.501  1.2838  0.2762  1.1244
 2893TIP3   OH230093   5.465   3.467   2.933  0.6575 -0.4315  0.0542
 2893TIP3    H130094   5.412   3.450   3.011 -0.0373 -3.3356 -0.9294
 2893TIP3    H230095   5.402   3.481   2.863  1.2416  0.1133 -0.3746
 2894TIP3   OH230096   0.920   4.818   4.136  0.5285 -0.2054  0.7721
 2894TIP3    H130097   0.960   4.757   4.198  0.7216 -2.2099 -1.1776
 2894TIP3    H230098   0.833   4.782   4.120  0.0526  0.9286  0.7070
 2895TIP3   OH230099   0.377   2.346   5.399 -0.0851  0.3000 -0.0329
 2895TIP3    H130100   0.362   2.385   5.312  0.9647  0.6774 -0.0631
 2895TIP3    H230101   0.472   2.345   5.408 -0.1860  0.7849  1.3444
 2896TIP3   OH230102   4.341   4.714   1.908 -0.4657  0.7025  0.5191
 2896TIP3    H130103   4.327   4.696   2.002 -0.4651  1.3349  0.6442
 2896TIP3    H230104   4.265   4.766   1.883 -0.3297  0.7583  0.2267
 2897TIP3   OH230105   6.327   2.839  12.299  0.5731 -0.2273  0.1249
 2897TIP3    H130106   6.285   2.925  12.304  1.5179  0.2418  0.4012
 2897TIP3    H230107   6.413   2.857  12.262  1.3965 -0.8123  1.6413
 2898TIP3   OH230108   4.922   5.897  10.952 -0.1330  0.5968  0.2233
 2898TIP3    H130109   5.013   5.922  10.934 -0.3427  1.0969 -0.1627
 2898TIP3    H230110   4.885   5.879  10.865 -0.2501 -0.1350  0.4239
 2899TIP3   OH230111   0.015   5.262   0.697  0.6287 -0.2293  0.8294
 2899TIP3    H130112  -0.024   5.180   0.667 -0.4302  0.0425  1.3953
 2899TIP3    H230113   0.023   5.315   0.619  1.1803 -0.8068  0.4821
 2900TIP3   OH230114   3.749   4.537   2.395 -0.0920 -0.2333 -0.5111
 2900TIP3    H130115   3.685   4.594   2.436 -0.1355  0.2444 -1.2374
 2900TIP3    H230116   3.814   4.521   2.464 -1.9696 -2.3871  0.9180
 2901TIP3   OH230117   4.071   2.125  11.810  0.6421 -0.6984  0.3284
 2901TIP3    H130118   4.138   2.058  11.801  0.1351 -1.3631  1.2771
 2901TIP3    H230119   3.998   2.080  11.853 -0.7223 -0.1958 -1.3744
 2902TIP3   OH230120   0.810   2.053  10.592  0.6570  0.3025 -0.6681
 2902TIP3    H130121   0.780   2.134  10.552  1.1742 -0.1375 -1.9933
 2902TIP3    H230122   0.767   1.984  10.543  0.4794 -0.2520  0.2353
 2903TIP3   OH230123   3.896   1.685   3.729  0.6820  0.5518  0.1803
 2903TIP3    H130124   3.901   1.767   3.778 -0.9349  1.0071 -0.3611
 2903TIP3    H230125   3.964   1.692   3.663  0.5008  1.5005  0.0793
 2904TIP3   OH230126   5.371   1.814  15.657  0.4419 -0.4196 -0.1127
 2904TIP3    H130127   5.365   1.719  15.649  0.3164 -0.4218  0.0020
 2904TIP3    H230128   5.281   1.844  15.660  0.3956 -0.5509  2.6885
 2905TIP3   OH230129   5.999   1.916   4.646 -0.3332 -0.5009 -0.3536
 2905TIP3    H130130   6.036   1.948   4.728  0.0469 -0.8484 -0.3820
 2905TIP3    H230131   5.993   1.993   4.590  0.9067 -0.5291 -0.5466
 2906TIP3   OH230132   4.998   4.652  11.430 -0.8732  0.1572  0.4064
 2906TIP3    H130133   4.958   4.714  11.490  0.8912  1.9480 -0.1245
 2906TIP3    H230134   5.073   4.700  11.394  0.1184 -2.0464 -0.6323
 2907TIP3   OH230135   1.968   6.074   0.636  0.0396  0.3148 -0.2432
 2907TIP3    H130136   1.876   6.049   0.628 -0.2739  1.4839 -0.5062
 2907TIP3    H230137   2.011   5.997   0.673 -1.1878  0.0310  0.6565
 2908TIP3   OH230138   1.099   4.427   1.156  0.1604 -0.9262 -0.3694
 2908TIP3    H130139   1.045   4.363   1.110  0.4788 -1.7880  0.4214
 2908TIP3    H230140   1.036   4.484   1.201 -0.1204 -0.9027 -0.7960
 2909TIP3   OH230141   6.290   3.272   0.740 -0.0122 -0.0954 -0.3975
 2909TIP3    H130142   6.225   3.210   0.707 -0.0035 -2.5796  3.5562
 2909TIP3    H230143   6.240   3.335   0.791  0.3455  0.6480 -0.9505
 2910TIP3   OH230144   1.999   5.263   1.864 -0.2263  0.6650 -0.6205
 2910TIP3    H130145   1.920   5.214   1.885  0.8352 -0.7867  0.1946
 2910TIP3    H230146   2.006   5.258   1.769  0.6243 -2.1679 -0.5038
 2911TIP3   OH230147   3.485   4.032   3.707  0.1679 -0.0663  0.1514
 2911TIP3    H130148   3.492   3.943   3.671  0.6970 -0.1476  0.4547
 2911TIP3    H230149   3.446   4.020   3.793 -0.3644  0.0590 -0.0675
 2912TIP3   OH230150   3.775   6.085   2.512 -0.5961  0.7494  0.0065
 2912TIP3    H130151   3.844   6.118   2.455  0.6738  0.3647  1.2760
 2912TIP3    H230152   3.754   5.999   2.476  0.6553  0.2307  0.4507
 2913TIP3   OH230153   5.987   5.556  13.609  0.8551 -0.4571  0.5684
 2913TIP3    H130154   6.025   5.522  13.528  0.7684  0.1781  0.2527
 2913TIP3    H230155   6.054   5.542  13.675  1.4468  0.1932  0.1161
 2914TIP3   OH230156   0.519   1.335   5.278  0.2131  0.5779 -0.4354
 2914TIP3    H130157   0.600   1.328   5.330  0.7065  0.1465 -1.2506
 2914TIP3    H230158   0.459   1.383   5.335  1.0116  0.8260  0.2269
 2915TIP3   OH230159   4.894   3.131  13.221 -0.0185  0.3368  0.3062
 2915TIP3    H130160   4.909   3.083  13.140 -0.3334 -0.2027  0.5613
 2915TIP3    H230161   4.981   3.150  13.254  0.1721 -1.7975  1.2138
 2916TIP3   OH230162   4.920   0.730  10.859 -0.0215 -0.4363 -0.0478
 2916TIP3    H130163   4.926   0.817  10.819 -1.9804 -1.7194 -3.5459
 2916TIP3    H230164   4.828   0.719  10.880  0.2727 -1.4872  0.7730
 2917TIP3   OH230165   2.023   4.806  14.368 -0.0182 -0.6659 -0.3702
 2917TIP3    H130166   2.073   4.824  14.448 -0.3059  0.7463 -0.4757
 2917TIP3    H230167   1.974   4.887  14.352 -0.1293 -1.0003 -1.8658
 2918TIP3   OH230168   3.586   0.501  12.241  0.1068  0.5047  0.1685
 2918TIP3    H130169   3.644   0.567  12.203 -0.2156 -0.1426 -1.5147
 2918TIP3    H230170   3.498   0.527  12.212 -0.0221 -0.6789 -0.5603
 2919TIP3   OH230171   6.010   4.787   2.406  0.4986  0.3071 -0.2304
 2919TIP3    H130172   5.951   4.762   2.335  1.1771  0.9891 -1.0596
 2919TIP3    H230173   5.953   4.799   2.482 -0.0647 -1.9735 -0.2245
 2920TIP3   OH230174   4.328   5.745  17.016 -0.0836  0.0935  0.2510
 2920TIP3    H130175   4.414   5.705  17.027 -0.5716 -0.8476  0.6963
 2920TIP3    H230176   4.305   5.778  17.104 -0.2112  0.2734  0.1518
 2921TIP3   OH230177   5.453   4.782  14.904 -0.0377  0.5699  0.5316
 2921TIP3    H130178   5.547   4.798  14.907  0.0869 -0.0904  4.1419
 2921TIP3    H230179   5.439   4.735  14.822  2.3435  2.6661 -1.2318
 2922TIP3   OH230180   2.606   4.723   5.406 -0.2915 -0.3871 -0.3657
 2922TIP3    H130181   2.648   4.805   5.432  0.1786 -0.3190 -1.3131
 2922TIP3    H230182   2.642   4.703   5.320  0.3908 -2.1390  0.2798
 2923TIP3   OH230183   1.946   4.579  11.608  0.2168  0.3304 -0.1157
 2923TIP3    H130184   1.863   4.545  11.641  1.3187  0.5796  3.2982
 2923TIP3    H230185   1.928   4.670  11.585 -0.3028  0.6355  1.4218
 2924TIP3   OH230186   0.836   1.322   3.657  0.3526 -0.1165  0.2585
 2924TIP3    H130187   0.781   1.250   3.687  0.5569 -0.6060 -0.5175
 2924TIP3    H230188   0.811   1.396   3.712  2.5301 -1.5585  3.5029
 2925TIP3   OH230189   1.773   4.941  15.166 -0.3154  0.2442 -0.1314
 2925TIP3    H130190   1.735   5.017  15.122  1.6947  1.7390  0.5485
 2925TIP3    H230191   1.800   4.883  15.095  0.7369  1.5372 -0.8444
 2926TIP3   OH230192   4.278   1.364  12.575  0.5499 -0.0482  0.2956
 2926TIP3    H130193   4.317   1.448  12.550 -0.2509  0.2525  0.0234
 2926TIP3    H230194   4.348   1.318  12.622  0.3989  1.5403  2.1780
 2927TIP3   OH230195   3.114   0.395  15.795 -0.4023  0.2393  0.4357
 2927TIP3    H130196   3.079   0.468  15.846 -0.3927 -0.5992  1.6974
 2927TIP3    H230197   3.190   0.431  15.749  1.8875  0.2597  3.8671
 2928TIP3   OH230198   1.493   5.641   0.607 -0.1878 -0.0853 -0.3697
 2928TIP3    H130199   1.580   5.612   0.580  0.3215  0.4616  0.6063
 2928TIP3    H230200   1.467   5.706   0.542 -0.6863 -1.5589 -1.7125
 2929TIP3   OH230201   3.257   6.307   3.027 -0.0563  0.2581 -0.2448
 2929TIP3    H130202   3.218   6.282   2.943 -1.5219 -1.4021  0.8499
 2929TIP3    H230203   3.208   6.384   3.054  0.9810  1.3169 -1.2403
 2930TIP3   OH230204   4.004   1.531   3.440  0.1475  0.1136  0.3607
 2930TIP3    H130205   4.049   1.447   3.435 -0.1326  0.0489 -1.7438
 2930TIP3    H230206   4.067   1.589   3.482  0.5533 -0.9703  1.3395
 2931TIP3   OH230207   1.698   3.537  15.338 -0.5164  0.3278  0.6054
 2931TIP3    H130208   1.673   3.630  15.333  0.2880  0.4917 -0.9118
 2931TIP3    H230209   1.656   3.497  15.263  2.3720  0.3120 -1.1574
 2932TIP3   OH230210   1.106   6.417  16.810  0.0431 -0.1934  0.4531
 2932TIP3    H130211   1.128   6.494  16.862 -1.6340  1.3571 -1.0024
 2932TIP3    H230212   1.190   6.384  16.779  0.8273  0.7966  1.4637
 2933TIP3   OH230213   1.579   5.327  11.989  0.2523  0.1150 -0.2150
 2933TIP3    H130214   1.647   5.264  11.964 -0.5310 -0.1269 -1.8857
 2933TIP3    H230215   1.613   5.412  11.961  0.6226  0.2391  0.5886
 2934TIP3   OH230216   4.033   4.968   6.471 -0.2598  0.6150 -0.1888
 2934TIP3    H130217   4.091   5.024   6.523  0.2249 -0.7152  0.7561
 2934TIP3    H230218   3.952   4.965   6.522  0.1622 -0.5675  0.4421
 2935TIP3   OH230219   4.067   3.639   0.449  0.5084  0.1650  0.2833
 2935TIP3    H130220   4.150   3.677   0.478  0.6508 -0.4830  0.7650
 2935TIP3    H230221   4.005   3.662   0.518 -0.4082  2.9271 -1.3020
 2936TIP3   OH230222   3.150   0.706  16.793  0.0416 -0.4016  0.2806
 2936TIP3    H130223   3.225   0.744  16.839  1.1806 -1.2918 -0.7791
 2936TIP3    H230224   3.163   0.612  16.798 -1.5597 -0.6269  0.9201
 2937TIP3   OH230225   5.573   2.827   0.968  0.4627  0.3367  0.4801
 2937TIP3    H130226   5.480   2.848   0.955  0.7270  2.4944  1.6034
 2937TIP3    H230227   5.620   2.894   0.919  1.3888  1.1650  2.3946
 2938TIP3   OH230228   6.402   0.017   2.609 -0.2751  0.2415  0.1740
 2938TIP3    H130229   6.316  -0.023   2.599  0.4285 -0.7629 -2.6268
 2938TIP3    H230230   6.463  -0.056   2.615  0.4914  0.9432  1.7156
 2939TIP3   OH230231   0.978   4.178   1.347  0.2572 -0.1399  0.2972
 2939TIP3    H130232   1.065   4.138   1.349  1.1333  1.6297 -0.2151
 2939TIP3    H230233   0.961   4.193   1.254 -0.4348 -0.1245  0.4213
 2940TIP3   OH230234   3.108   2.835   3.464  0.7377  0.4720 -0.7937
 2940TIP3    H130235   3.053   2.833   3.543  0.4755 -1.1732 -0.9921
 2940TIP3    H230236   3.182   2.891   3.488  1.1957 -0.8167  1.0101
 2941TIP3   OH230237   4.787   6.773   4.237  0.2132 -0.4315  0.1837
 2941TIP3    H130238   4.740   6.849   4.270  0.0855 -0.2067 -0.4949
 2941TIP3    H230239   4.775   6.706   4.304  1.8041  0.6652  1.6494
 2942TIP3   OH230240   6.535   3.575  13.549 -0.3149 -0.2347 -0.3985
 2942TIP3    H130241   6.472   3.504  13.534  0.2162 -0.7898 -0.0697
 2942TIP3    H230242   6.572   3.593  13.462  1.4409 -2.1866 -0.1362
 2943TIP3   OH230243   6.817   5.940   3.822 -0.2386 -0.0974  0.2294
 2943TIP3    H130244   6.805   5.874   3.891 -1.8554 -0.3203 -0.2348
 2943TIP3    H230245   6.741   5.930   3.765 -0.3807  1.9677 -0.0243
 2944TIP3   OH230246   5.111   5.051   1.118 -0.2950  0.0319  0.2188
 2944TIP3    H130247   5.026   5.081   1.084  0.5502 -0.5737 -2.7070
 2944TIP3    H230248   5.171   5.063   1.044  1.7130 -1.5875  1.5041
 2945TIP3   OH230249   1.219   5.359   1.455 -0.3473 -0.3050 -0.5395
 2945TIP3    H130250   1.268   5.362   1.537 -0.0396  1.7234 -0.7411
 2945TIP3    H230251   1.261   5.290   1.404 -0.4856 -1.5376  0.9448
 2946TIP3   OH230252   2.039   0.199  12.507 -0.7310 -0.5962 -0.3098
 2946TIP3    H130253   2.091   0.275  12.480 -0.2928 -1.8115 -3.2986
 2946TIP3    H230254   1.966   0.236  12.557 -1.1728  1.9461 -2.6223
 2947TIP3   OH230255   4.745   4.280  13.817  0.2658  0.1659  0.2369
 2947TIP3    H130256   4.679   4.219  13.850 -0.7027  0.5363 -0.9158
 2947TIP3    H230257   4.727   4.362  13.862 -2.0166  1.0963 -2.1005
 2948TIP3   OH230258   4.300   1.581  13.786 -0.1927  0.5821  0.7028
 2948TIP3    H130259   4.259   1.568  13.700  1.7001  1.2261 -0.3567
 2948TIP3    H230260   4.348   1.664  13.777  1.0275  0.0434  1.9783
 2949TIP3   OH230261   0.479   0.497  15.051  0.0609 -0.2955 -0.3633
 2949TIP3    H130262   0.549   0.443  15.013 -0.1479 -0.3479 -0.6812
 2949TIP3    H230263   0.399   0.468  15.005 -0.0755  0.1765 -0.4303
 2950TIP3   OH230264   6.679   1.796   2.706 -0.3561 -1.0039  0.0392
 2950TIP3    H130265   6.748   1.861   2.689  0.9595 -2.5038 -0.5239
 2950TIP3    H230266   6.636   1.828   2.786  0.0038  0.7469 -0.4251
 2951TIP3   OH230267   5.150   0.173  12.671  0.6546  0.1134 -0.2643
 2951TIP3    H130268   5.144   0.124  12.753  0.0494  0.1027 -0.3045
 2951TIP3    H230269   5.062   0.209  12.659  0.2930 -1.1483 -1.6786
 2952TIP3   OH230270   3.647   4.427  13.474 -0.2649 -0.4287 -0.0388
 2952TIP3    H130271   3.690   4.343  13.483 -0.0924 -0.6322 -2.1964
 2952TIP3    H230272   3.717   4.488  13.449 -0.9271 -0.5415 -2.5007
 2953TIP3   OH230273   6.119   6.285   2.438 -0.3243 -0.6413 -0.1986
 2953TIP3    H130274   6.206   6.293   2.399 -0.5148  0.6629 -0.3984
 2953TIP3    H230275   6.137   6.266   2.531  0.1775 -0.2244 -0.2049
 2954TIP3   OH230276   1.110   2.694  12.201  0.2660  0.4882 -0.1844
 2954TIP3    H130277   1.025   2.696  12.246 -0.2739 -0.3601 -1.0988
 2954TIP3    H230278   1.087   2.677  12.109  1.4092  0.6669 -0.5162
 2955TIP3   OH230279   3.527   3.672  14.053 -0.6179  0.2718  0.2488
 2955TIP3    H130280   3.471   3.599  14.029  0.7403 -0.9621  0.6981
 2955TIP3    H230281   3.567   3.700  13.970  0.5631 -0.9922  0.3519
 2956TIP3   OH230282   4.452   3.143  16.679 -0.1350 -0.1894 -0.2134
 2956TIP3    H130283   4.461   3.208  16.609 -2.2683 -2.3154 -2.6542
 2956TIP3    H230284   4.472   3.060  16.637  1.2928 -1.3366  2.4952
 2957TIP3   OH230285   4.271   3.115   4.429  0.6157 -0.4096 -0.1953
 2957TIP3    H130286   4.311   3.031   4.404  0.0588 -1.2086  1.4348
 2957TIP3    H230287   4.207   3.091   4.495  0.5959  1.3567  0.4562
 2958TIP3   OH230288   4.491   1.386  16.763 -0.3784 -0.0333 -0.7844
 2958TIP3    H130289   4.498   1.426  16.676 -1.8093  0.6090 -0.6296
 2958TIP3    H230290   4.406   1.343  16.763 -0.6157  0.4125  0.4709
 2959TIP3   OH230291   6.027   5.161   2.232 -0.1021  0.1255  0.1075
 2959TIP3    H130292   5.989   5.241   2.197  1.2236  0.9437  0.4705
 2959TIP3    H230293   6.098   5.190   2.289 -0.3036 -1.2788  1.1303
 2960TIP3   OH230294   3.304   0.414   4.511 -0.0549  0.4624 -0.1610
 2960TIP3    H130295   3.296   0.360   4.590  1.0441  0.1543 -0.2417
 2960TIP3    H230296   3.343   0.496   4.541  0.5802  0.2573 -0.4085
 2961TIP3   OH230297   2.818   0.583   3.079 -0.0030  0.5305  0.1807
 2961TIP3    H130298   2.755   0.595   3.150 -0.9250  0.0712 -0.5414
 2961TIP3    H230299   2.890   0.533   3.118 -0.4754  0.3339  0.8060
 2962TIP3   OH230300   2.930   5.180  13.271  0.2602  0.3966 -0.1893
 2962TIP3    H130301   2.990   5.229  13.215  1.0961  1.2378  1.3821
 2962TIP3    H230302   2.986   5.121  13.322 -0.1000  1.6006  1.7150
 2963TIP3   OH230303   5.463   6.078  11.846  0.6911  0.5094  0.0069
 2963TIP3    H130304   5.373   6.095  11.874 -0.0395 -2.2597 -0.3929
 2963TIP3    H230305   5.465   6.102  11.754  0.1759  0.0015 -0.1363
 2964TIP3   OH230306   4.074   2.391  11.315 -0.4119  0.5119 -0.3562
 2964TIP3    H130307   4.069   2.296  11.303 -0.2727  0.5720 -0.9659
 2964TIP3    H230308   4.008   2.426  11.255  0.0241  0.8281 -0.6553
 2965TIP3   OH230309   1.916   6.308  13.111 -0.2653 -0.2320  0.2915
 2965TIP3    H130310   1.867   6.253  13.173 -2.3466  1.9726  0.7405
 2965TIP3    H230311   1.910   6.397  13.147  0.2932  0.8113 -1.9927
 2966TIP3   OH230312   1.104   0.380  10.290 -0.1799 -0.1617  0.2330
 2966TIP3    H130313   1.033   0.339  10.340 -0.6648  0.4517  0.0587
 2966TIP3    H230314   1.080   0.472  10.285  1.5626  0.4324  1.7556
 2967TIP3   OH230315   5.424   0.017   2.544 -0.0702 -0.1629  0.2918
 2967TIP3    H130316   5.495   0.011   2.480  0.3167 -1.1830  0.7916
 2967TIP3    H230317   5.388   0.105   2.533  0.8007  0.1038 -0.4671
 2968TIP3   OH230318   6.479   4.906  10.584  0.5036  0.2325 -0.3485
 2968TIP3    H130319   6.403   4.964  10.582  1.5395  1.6487 -0.2319
 2968TIP3    H230320   6.444   4.819  10.567 -1.0530  0.9497 -0.9441
 2969TIP3   OH230321   4.095   1.801  16.109  0.3631 -0.1753  0.5032
 2969TIP3    H130322   4.186   1.829  16.114  0.6339 -1.2439  2.4259
 2969TIP3    H230323   4.096   1.728  16.046  0.5605  0.6581 -0.4939
 2970TIP3   OH230324   4.801   6.740   5.884  0.1269 -0.3528 -0.3672
 2970TIP3    H130325   4.748   6.755   5.963 -0.2315  0.3057 -0.7227
 2970TIP3    H230326   4.752   6.784   5.814  1.6756  1.1920 -0.5336
 2971TIP3   OH230327   3.465   5.194   3.026  0.1776 -0.3922 -0.2226
 2971TIP3    H130328   3.508   5.280   3.031  3.3036 -1.7064 -1.7444
 2971TIP3    H230329   3.469   5.171   2.934 -2.8651 -1.2168 -0.2441
 2972TIP3   OH230330   2.010   5.767   6.328 -0.0101  0.1890  0.0630
 2972TIP3    H130331   2.061   5.820   6.389 -0.0302 -0.8852  1.0513
 2972TIP3    H230332   1.921   5.802   6.333  0.0607  0.3242  0.3844
 2973TIP3   OH230333   0.482   1.469  11.108 -0.1391  0.0755 -0.3793
 2973TIP3    H130334   0.424   1.504  11.041 -3.2838 -0.9614  1.5712
 2973TIP3    H230335   0.453   1.510  11.189  1.3429 -1.0997  0.8060
 2974TIP3   OH230336   6.195   3.098  16.773  0.5120 -0.0608 -0.5522
 2974TIP3    H130337   6.195   3.013  16.816 -0.3093  0.2137 -0.0017
 2974TIP3    H230338   6.103   3.116  16.755  0.6967  0.6362 -0.8193
 2975TIP3   OH230339   5.018   5.823  14.025 -0.1864 -0.4827  0.5124
 2975TIP3    H130340   4.991   5.836  14.116 -2.1941  1.8472 -0.3433
 2975TIP3    H230341   4.940   5.841  13.973  1.7138  1.5823 -1.8490
 2976TIP3   OH230342   0.212   3.750  10.777  0.0224 -0.2900  0.3569
 2976TIP3    H130343   0.119   3.732  10.769 -0.1560  1.2713 -2.1804
 2976TIP3    H230344   0.219   3.817  10.844 -0.8919  0.6718 -0.4763
 2977TIP3   OH230345   0.353   2.521  13.402 -0.3138 -0.0736  0.4014
 2977TIP3    H130346   0.364   2.616  13.405 -0.9006 -0.0198  1.8103
 2977TIP3    H230347   0.306   2.500  13.483 -1.2619 -1.4281 -0.4572
 2978TIP3   OH230348   6.289   5.712   2.363  0.3688 -0.0481 -0.1145
 2978TIP3    H130349   6.298   5.617   2.363 -0.5324 -0.1619 -1.2828
 2978TIP3    H230350   6.378   5.745   2.368  0.7537 -0.9693 -0.6206
 2979TIP3   OH230351   1.986   6.246   4.133  0.2359  0.2710  0.1935
 2979TIP3    H130352   1.963   6.174   4.076  1.4704 -0.2621  0.3244
 2979TIP3    H230353   1.929   6.237   4.209 -2.0553  1.5179 -1.2829
 2980TIP3   OH230354   0.246   1.135  16.675  0.1931  0.6196 -0.2133
 2980TIP3    H130355   0.322   1.140  16.732 -0.0392  2.8380  0.0008
 2980TIP3    H230356   0.265   1.196  16.604 -1.3967  1.3175 -0.0852
 2981TIP3   OH230357   1.524   5.096  11.412  0.0059 -0.1467  0.7609
 2981TIP3    H130358   1.470   5.172  11.391 -0.0104 -0.0331  1.2074
 2981TIP3    H230359   1.609   5.115  11.372 -0.5421 -0.7502 -0.7621
 2982TIP3   OH230360   0.528   3.265   4.995 -0.7044  0.5159  0.0705
 2982TIP3    H130361   0.579   3.186   4.977 -3.4949 -0.9185 -2.5069
 2982TIP3    H230362   0.549   3.325   4.923  0.3525  1.6334  1.2585
 2983TIP3   OH230363   5.068   3.585   1.149  0.3358 -0.0709 -0.3151
 2983TIP3    H130364   5.150   3.634   1.142  0.1638  0.5797  1.5272
 2983TIP3    H230365   5.024   3.600   1.066  0.6815  2.2231 -0.1506
 2984TIP3   OH230366   3.475   5.596  13.199  0.0301 -0.0420 -0.1515
 2984TIP3    H130367   3.516   5.513  13.175 -1.0137 -0.1024 -1.8803
 2984TIP3    H230368   3.499   5.609  13.291  1.3372 -1.5657 -0.2369
 2985TIP3   OH230369   2.771   5.618   1.193  0.5772 -0.4675  0.1394
 2985TIP3    H130370   2.692   5.578   1.230  0.3943 -0.4991 -0.2702
 2985TIP3    H230371   2.829   5.544   1.174 -0.2491 -0.7138 -1.7702
 2986TIP3   OH230372   4.328   6.811  13.481  0.0743 -0.4265 -0.2554
 2986TIP3    H130373   4.397   6.840  13.540  1.1785 -0.5885 -1.4300
 2986TIP3    H230374   4.251   6.861  13.508  1.6210  2.8608 -1.4983
 2987TIP3   OH230375   4.923   5.356   0.709 -0.1006  0.0441  0.0975
 2987TIP3    H130376   5.000   5.307   0.738  1.5286  1.4947 -1.5312
 2987TIP3    H230377   4.926   5.438   0.759 -0.4352  0.2209 -0.1654
 2988TIP3   OH230378   0.477   6.661   0.012  0.5166  0.2339  0.0127
 2988TIP3    H130379   0.525   6.695  -0.064  0.0419  0.0446 -0.3758
 2988TIP3    H230380   0.508   6.714   0.085  0.7167  0.6590 -0.3741
 2989TIP3   OH230381   6.138   3.978  15.350  0.1551 -0.2146 -0.2544
 2989TIP3    H130382   6.091   4.014  15.426 -0.2389  1.0993 -1.0954
 2989TIP3    H230383   6.175   3.896  15.382 -1.5165 -0.5847  0.8443
 2990TIP3   OH230384   5.495   0.197   5.134  0.3240 -0.2476  0.0975
 2990TIP3    H130385   5.557   0.246   5.080 -0.2705 -0.5973 -0.9142
 2990TIP3    H230386   5.539   0.188   5.219  0.7301  1.4433  0.0964
 2991TIP3   OH230387   2.516   4.127   1.767  0.2837  0.1299  0.1311
 2991TIP3    H130388   2.563   4.064   1.822 -0.2846  0.1465  0.6414
 2991TIP3    H230389   2.523   4.210   1.814  0.1766  0.2399 -0.0460
 2992TIP3   OH230390   0.474   2.990   0.075 -0.3478 -0.6792  0.2280
 2992TIP3    H130391   0.550   3.038   0.042  0.4355 -1.8540  0.2456
 2992TIP3    H230392   0.467   2.914   0.018 -0.4076 -1.5132  1.3187
 2993TIP3   OH230393   2.320   0.971   3.403  0.3432 -0.4025 -0.0076
 2993TIP3    H130394   2.257   1.035   3.371 -0.5331 -0.7234  1.0235
 2993TIP3    H230395   2.310   0.973   3.499  1.6368 -0.7266  0.1572
 2994TIP3   OH230396   3.794   2.507   3.699 -0.1034 -0.0929  0.1829
 2994TIP3    H130397   3.887   2.488   3.714  0.1885  0.8490 -0.3602
 2994TIP3    H230398   3.771   2.571   3.766 -0.2048  0.1168 -0.0499
 2995TIP3   OH230399   3.969   5.168  13.468  0.7105  0.5279 -0.0163
 2995TIP3    H130400   3.994   5.258  13.489  0.5453  0.4771  0.4036
 2995TIP3    H230401   4.011   5.115  13.536  2.5407  0.0602 -1.4119
 2996TIP3   OH230402   0.128   6.365   2.798 -0.1331 -0.3702 -0.1954
 2996TIP3    H130403   0.192   6.311   2.751  0.7188  0.7978 -0.4181
 2996TIP3    H230404   0.172   6.387   2.880 -0.8842 -0.8557  0.3506
 2997TIP3   OH230405   1.391   4.588   2.547  0.2241  0.0775 -0.2014
 2997TIP3    H130406   1.379   4.508   2.599 -1.7069  0.0041 -0.6862
 2997TIP3    H230407   1.348   4.570   2.464  0.5780  1.2947 -0.6736
 2998TIP3   OH230408   5.914   5.595   4.880  0.0122  0.0398 -0.0039
 2998TIP3    H130409   5.888   5.631   4.795 -0.8303 -1.5548 -0.4603
 2998TIP3    H230410   5.916   5.670   4.938 -0.9812  0.9332 -1.0701
 2999TIP3   OH230411   4.530   2.391   5.501 -0.1783 -0.0639  0.0817
 2999TIP3    H130412   4.521   2.436   5.585  0.0751 -1.3480  0.8208
 2999TIP3    H230413   4.595   2.323   5.517 -0.9154 -1.0273 -0.8512
 3000TIP3   OH230414   6.446   0.197  12.438  0.8251  0.7681 -0.1808
 3000TIP3    H130415   6.474   0.106  12.426  0.7674  0.4343  1.8903
 3000TIP3    H230416   6.476   0.241  12.359  2.1854 -0.7550 -0.5814
 3001TIP3   OH230417   1.563   2.604   4.910 -0.2648  0.3321  0.3541
 3001TIP3    H130418   1.475   2.590   4.876 -0.5624  2.1530  0.3032
 3001TIP3    H230419   1.595   2.516   4.930 -2.0967 -0.3551  0.4146
 3002TIP3   OH230420   4.321   5.172   3.907 -0.2888 -0.7162  0.0273
 3002TIP3    H130421   4.299   5.154   3.998 -2.8472 -1.3850 -0.6406
 3002TIP3    H230422   4.259   5.239   3.880  0.6651 -0.2713 -1.1365
 3003TIP3   OH230423   5.118   3.787  10.942  0.1154  0.4605 -0.0669
 3003TIP3    H130424   5.146   3.727  11.012  0.1161 -0.5984 -0.9517
 3003TIP3    H230425   5.052   3.842  10.983 -1.7545 -1.8060  0.1563
 3004TIP3   OH230426   4.171   1.137   3.119  0.0204  0.4781 -0.0169
 3004TIP3    H130427   4.134   1.050   3.131 -0.2736  0.1622 -2.5659
 3004TIP3    H230428   4.243   1.123   3.057 -0.6047  2.1152 -1.1894
 3005TIP3   OH230429   6.414   6.522  12.870  0.7841 -0.5591  0.2362
 3005TIP3    H130430   6.413   6.606  12.823 -1.9581  0.2204  1.4822
 3005TIP3    H230431   6.434   6.457  12.802  1.9339  0.9560 -0.9625
 3006TIP3   OH230432   4.650   4.587  12.788 -0.7851 -0.0287  0.1822
 3006TIP3    H130433   4.598   4.585  12.708 -0.9101  1.1171  0.2257
 3006TIP3    H230434   4.740   4.575  12.758 -0.6832  1.7219 -0.2889
 3007TIP3   OH230435   0.936   6.708  11.567  0.6878 -0.0393  0.3543
 3007TIP3    H130436   0.914   6.727  11.476  0.9250  0.3000  0.3657
 3007TIP3    H230437   0.946   6.613  11.570  0.9886 -0.0204 -0.0487
 3008TIP3   OH230438   0.830   1.776  13.554  1.1233  0.3474  0.0422
 3008TIP3    H130439   0.874   1.839  13.612  0.9940  1.0373 -0.5901
 3008TIP3    H230440   0.899   1.743  13.497  1.0679  0.4150 -0.0634
 3009TIP3   OH230441   2.864   5.203  11.604  0.3525  0.1489  0.7152
 3009TIP3    H130442   2.772   5.197  11.630  0.1149 -0.8403 -0.2550
 3009TIP3    H230443   2.903   5.121  11.633  0.1903 -0.7762 -1.4820
 3010TIP3   OH230444   1.138   2.321   1.309  0.3597  0.2180  0.4025
 3010TIP3    H130445   1.056   2.338   1.263  0.0413  1.3968  1.3677
 3010TIP3    H230446   1.181   2.253   1.256 -1.5080 -0.9040  0.2345
 3011TIP3   OH230447   3.415   2.609   5.971  0.1860 -0.2792  0.1907
 3011TIP3    H130448   3.485   2.612   6.036  0.5408 -1.5924 -0.0994
 3011TIP3    H230449   3.339   2.644   6.017  0.1016 -2.2972  1.7823
 3012TIP3   OH230450   2.865   5.640  16.262  0.4301 -0.2915 -0.3959
 3012TIP3    H130451   2.788   5.670  16.311  1.1933 -0.0184  0.6747
 3012TIP3    H230452   2.849   5.669  16.172 -0.5961 -0.0204 -0.1412
 3013TIP3   OH230453   2.822   0.862   3.399 -0.0346  0.2602 -0.1011
 3013TIP3    H130454   2.766   0.853   3.321  0.1631 -1.8361 -0.0765
 3013TIP3    H230455   2.764   0.838   3.472  0.5435 -0.7328  0.0503
 3014TIP3   OH230456   0.443   2.161  15.492 -0.1830  0.4730 -0.2685
 3014TIP3    H130457   0.509   2.230  15.489 -0.2951  0.6095  0.3153
 3014TIP3    H230458   0.444   2.131  15.583 -0.9352  0.4903 -0.2483
 3015TIP3   OH230459   2.670   2.094  12.977  0.3929 -0.1347  0.4404
 3015TIP3    H130460   2.622   2.159  13.029 -0.5216 -0.5068  0.0955
 3015TIP3    H230461   2.609   2.070  12.907 -0.0197 -2.6268  1.5314
 3016TIP3   OH230462   5.993   5.450  14.379 -0.5643 -0.3796 -0.5750
 3016TIP3    H130463   5.918   5.416  14.331 -0.5563 -1.1995 -0.0127
 3016TIP3    H230464   5.981   5.420  14.469  0.5144 -0.6641 -0.5098
 3017TIP3   OH230465   0.715   6.535  16.784 -0.0941 -0.3921 -0.2597
 3017TIP3    H130466   0.771   6.485  16.725  2.3411  1.5071  0.2629
 3017TIP3    H230467   0.672   6.599  16.727  0.1142 -0.3301 -0.3485
 3018TIP3   OH230468   3.772   0.802  12.773  0.4651  0.5488 -0.1656
 3018TIP3    H130469   3.698   0.821  12.716  0.4606 -0.0818 -0.3812
 3018TIP3    H230470   3.799   0.887  12.807  0.6288  0.9660 -1.3038
 3019TIP3   OH230471   5.732   2.827   4.866 -0.1025 -0.0020 -0.1412
 3019TIP3    H130472   5.659   2.865   4.915 -0.6877 -0.1963 -0.8382
 3019TIP3    H230473   5.746   2.741   4.904 -1.2009 -0.5526 -0.9250
 3020TIP3   OH230474   2.254   4.806  16.224 -0.4960 -0.0358  0.4116
 3020TIP3    H130475   2.253   4.830  16.316  0.2379 -0.5448  0.5682
 3020TIP3    H230476   2.304   4.876  16.181 -1.0491  0.3297  0.3531
 3021TIP3   OH230477   4.842   0.043  12.915 -1.0678 -0.4255 -0.2155
 3021TIP3    H130478   4.852  -0.029  12.852  0.1826 -2.5631  2.2544
 3021TIP3    H230479   4.807   0.001  12.994  2.1208  1.0760  2.2090
 3022TIP3   OH230480   5.051   4.389   1.619  0.0714  0.3864 -0.3849
 3022TIP3    H130481   5.144   4.386   1.638  0.1830 -1.0089 -0.9924
 3022TIP3    H230482   5.011   4.334   1.687 -0.3508  1.1921  0.0346
 3023TIP3   OH230483   2.116   3.302  14.091 -0.1681 -0.4127  0.3996
 3023TIP3    H130484   2.055   3.234  14.120  0.5853 -1.7728 -1.0419
 3023TIP3    H230485   2.109   3.371  14.157 -2.2357 -1.1238  0.9915
 3024TIP3   OH230486   1.931   0.517   1.396  0.5186 -0.5975  0.0457
 3024TIP3    H130487   1.956   0.500   1.305 -1.4557 -1.2110 -0.4355
 3024TIP3    H230488   1.841   0.485   1.402  0.9762 -1.6382  2.5315
 3025TIP3   OH230489   2.713   5.572   2.116 -0.1399 -0.0877  0.0553
 3025TIP3    H130490   2.652   5.608   2.181 -0.9798 -1.2499 -0.0469
 3025TIP3    H230491   2.793   5.624   2.126 -0.6025  0.4192  1.3119
 3026TIP3   OH230492   0.260   2.344  13.226  0.4792  0.4490 -0.0718
 3026TIP3    H130493   0.314   2.390  13.290 -0.1460 -0.6715  1.3320
 3026TIP3    H230494   0.283   2.383  13.142  2.7099  0.6897  0.5839
 3027TIP3   OH230495   0.315   1.603   5.068  0.0085 -0.2773  0.4457
 3027TIP3    H130496   0.319   1.699   5.073 -0.5454 -0.2096 -0.3792
 3027TIP3    H230497   0.223   1.583   5.052  0.3008 -0.8809 -0.5709
 3028TIP3   OH230498   2.039   1.938   2.055 -1.0651  0.4736  0.1227
 3028TIP3    H130499   2.057   1.845   2.040 -1.7408  0.6208 -1.9799
 3028TIP3    H230500   2.120   1.982   2.028 -0.7930  0.5117  0.9899
 3029TIP3   OH230501   4.341   4.835   2.615 -0.0875 -0.4890  0.1264
 3029TIP3    H130502   4.393   4.844   2.535 -0.7648  0.6261 -0.2187
 3029TIP3    H230503   4.357   4.746   2.645 -2.4966 -2.2443 -3.1745
 3030TIP3   OH230504   5.979   0.245   2.853 -0.4481 -0.8492  0.3175
 3030TIP3    H130505   5.907   0.308   2.859 -2.1686 -2.7594  0.9706
 3030TIP3    H230506   5.952   0.186   2.783 -0.2781 -2.4603  1.5522
 3031TIP3   OH230507   0.598   2.131  11.423 -0.2023 -0.1100 -0.2594
 3031TIP3    H130508   0.583   2.176  11.340  0.6590  0.0818 -0.3225
 3031TIP3    H230509   0.513   2.134  11.467 -0.2902  1.1840 -0.4631
 3032TIP3   OH230510   0.734   1.899  10.859  0.0806  0.6427  0.0318
 3032TIP3    H130511   0.759   1.938  10.776 -0.7185  1.7042  0.2665
 3032TIP3    H230512   0.668   1.833  10.836  0.2353  0.5750 -0.2182
 3033TIP3   OH230513   3.961   1.539  13.896 -0.0663 -0.0221 -0.0012
 3033TIP3    H130514   4.056   1.532  13.910  0.1075  0.9964 -0.5514
 3033TIP3    H230515   3.950   1.519  13.803 -0.3543  0.1759 -0.0097
 3034TIP3   OH230516   2.671   4.804   3.932  0.4495 -0.4328  0.3969
 3034TIP3    H130517   2.583   4.774   3.956 -0.4770  0.0261 -2.1106
 3034TIP3    H230518   2.690   4.875   3.993 -1.2190 -0.0830  0.5570
 3035TIP3   OH230519   2.289   5.604   5.839  0.0572  0.9043 -0.4720
 3035TIP3    H130520   2.368   5.605   5.892 -0.2794 -1.3721  0.2060
 3035TIP3    H230521   2.303   5.533   5.776 -1.0736  1.0580 -0.9298
 3036TIP3   OH230522   1.004   6.199   0.704  0.2927  0.0000 -0.1683
 3036TIP3    H130523   0.970   6.138   0.639  0.8988  1.7044 -2.1730
 3036TIP3    H230524   0.927   6.242   0.740  0.0266  1.8035 -2.6383
 3037TIP3   OH230525   3.010   2.949   1.265 -0.4151 -0.1896  0.3326
 3037TIP3    H130526   2.929   2.916   1.226 -0.3511 -1.2607  1.0590
 3037TIP3    H230527   3.077   2.885   1.240 -0.1547 -0.2905  1.2304
 3038TIP3   OH230528   2.597   4.558  15.354 -0.0560 -0.1692 -0.4353
 3038TIP3    H130529   2.523   4.607  15.320 -1.5392 -2.0792 -0.0968
 3038TIP3    H230530   2.674   4.610  15.330 -1.4207  1.3163 -1.7317
 3039TIP3   OH230531   4.023   6.581   6.569 -1.0531 -0.7095 -0.3213
 3039TIP3    H130532   4.016   6.591   6.474 -2.2398  1.3212 -0.0637
 3039TIP3    H230533   4.091   6.643   6.594 -0.4955 -1.4879  0.1612
 3040TIP3   OH230534   0.786   0.038  12.642 -0.1907 -0.0665 -0.5011
 3040TIP3    H130535   0.731   0.039  12.720  0.0268  0.2249 -0.3527
 3040TIP3    H230536   0.819  -0.051  12.636  2.0478  0.5676  1.3047
 3041TIP3   OH230537   6.286   4.861   4.067 -0.2977 -0.6037  0.2219
 3041TIP3    H130538   6.368   4.829   4.107 -1.2323 -0.6801  2.2103
 3041TIP3    H230539   6.241   4.782   4.039  0.2274 -0.5710 -0.7448
 3042TIP3   OH230540   5.819   0.757  12.203  0.7753  0.1100  0.4471
 3042TIP3    H130541   5.759   0.823  12.168  1.5103 -0.0516 -1.2086
 3042TIP3    H230542   5.903   0.802  12.211  0.8723 -0.1577  0.9722
 3043TIP3   OH230543   4.909   2.592  13.056 -0.2605 -0.4740  0.0730
 3043TIP3    H130544   5.003   2.603  13.071  0.1169 -1.6407 -1.3062
 3043TIP3    H230545   4.871   2.676  13.081  0.8349 -0.7084  2.8980
 3044TIP3   OH230546   4.365   5.398   5.248  0.2970 -0.4871 -0.1974
 3044TIP3    H130547   4.455   5.418   5.222  0.8637 -0.5245  1.5896
 3044TIP3    H230548   4.366   5.305   5.270 -0.8111 -1.1134 -2.4441
 3045TIP3   OH230549   4.282   4.188  13.429  0.2769 -0.2072 -0.0983
 3045TIP3    H130550   4.270   4.142  13.346 -0.6272  0.3909 -0.3043
 3045TIP3    H230551   4.338   4.129  13.481 -0.2824 -1.2155 -0.6137
 3046TIP3   OH230552   3.181   0.315   3.115  0.1086  0.4689 -0.0475
 3046TIP3    H130553   3.273   0.290   3.126  0.0788  0.3410 -0.0995
 3046TIP3    H230554   3.134   0.262   3.180  0.1409  0.9462  0.3743
 3047TIP3   OH230555   1.704   2.003   5.826 -0.0916  0.1701  0.7523
 3047TIP3    H130556   1.730   1.994   5.918  0.5939  2.0115  0.7795
 3047TIP3    H230557   1.628   2.061   5.828 -1.5790 -1.6527  0.2957
 3048TIP3   OH230558   0.932   5.989  16.009 -0.5497 -0.3031 -0.0128
 3048TIP3    H130559   0.991   5.944  16.069  2.2765  0.2544 -2.1876
 3048TIP3    H230560   0.881   5.919  15.968  0.0447 -0.9976  0.4203
 3049TIP3   OH230561   3.295   3.150  13.760 -0.2400  0.3369  0.5159
 3049TIP3    H130562   3.379   3.181  13.792  0.7786 -1.6221 -0.0873
 3049TIP3    H230563   3.243   3.135  13.839  0.8890 -0.8199  1.0741
 3050TIP3   OH230564   6.111   0.641  11.721  0.3574  0.7830  0.2820
 3050TIP3    H130565   6.031   0.685  11.692 -2.9527 -3.2780  2.1881
 3050TIP3    H230566   6.126   0.574  11.655  1.1381  0.3721  0.8639
 3051TIP3   OH230567   2.425   2.259   3.356  0.0433 -0.4055  0.0009
 3051TIP3    H130568   2.437   2.229   3.266 -2.8099 -1.8995 -0.0047
 3051TIP3    H230569   2.470   2.343   3.360  1.3023 -0.8926 -2.4465
 3052TIP3   OH230570   0.488   6.161  12.393  0.0314  0.4194  0.7407
 3052TIP3    H130571   0.540   6.095  12.438  2.2653  0.9738 -0.8747
 3052TIP3    H230572   0.456   6.117  12.314 -0.2549  0.6697  0.7130
 3053TIP3   OH230573   4.879   0.241  13.853  0.2788 -0.1082 -0.2187
 3053TIP3    H130574   4.824   0.301  13.804 -0.1612  0.0842  0.5013
 3053TIP3    H230575   4.828   0.219  13.931  0.6656 -0.9773 -0.1983
 3054TIP3   OH230576   4.373   3.412  16.067  0.4604  0.2900  0.4754
 3054TIP3    H130577   4.300   3.412  16.006  0.8919 -2.3550 -0.1639
 3054TIP3    H230578   4.394   3.319  16.079  4.1755  0.9268  0.0278
 3055TIP3   OH230579   2.595   0.842  11.285 -0.0115 -0.4054 -0.2938
 3055TIP3    H130580   2.504   0.827  11.310 -1.0522  2.2328 -2.0369
 3055TIP3    H230581   2.592   0.851  11.189  1.8928  0.7074 -0.2951
 3056TIP3   OH230582   1.185   6.780  13.109  0.0763 -0.3399  0.3616
 3056TIP3    H130583   1.144   6.767  13.195  1.8446 -1.9155  1.0340
 3056TIP3    H230584   1.276   6.753  13.122  1.5610  3.4916 -0.9183
 3057TIP3   OH230585   0.635   1.924   2.459  0.3223  0.9509 -0.0894
 3057TIP3    H130586   0.650   1.835   2.426 -0.5507  1.6531 -2.5981
 3057TIP3    H230587   0.578   1.911   2.536 -0.8064 -0.6350 -1.1181
 3058TIP3   OH230588   4.953   4.222   1.071  0.0563  0.0827  0.0962
 3058TIP3    H130589   4.952   4.223   1.166 -0.5561  1.5403  0.1080
 3058TIP3    H230590   4.874   4.175   1.046  1.5480 -2.6839  0.2466
 3059TIP3   OH230591   1.448   5.935   0.754  0.2153 -0.6356 -0.4741
 3059TIP3    H130592   1.480   6.005   0.811 -0.3906 -0.4922 -0.3097
 3059TIP3    H230593   1.491   5.952   0.670  0.7352 -0.5667 -0.2003
 3060TIP3   OH230594   1.272   4.072   4.836 -0.7465 -0.3300 -0.8173
 3060TIP3    H130595   1.204   4.009   4.859 -0.4020 -0.7879 -1.0464
 3060TIP3    H230596   1.339   4.060   4.904 -1.1233  0.5003 -0.2700
 3061TIP3   OH230597   5.669   5.417   0.557  0.4569  0.2687  0.2640
 3061TIP3    H130598   5.612   5.407   0.481 -0.0319 -0.3640  0.7046
 3061TIP3    H230599   5.756   5.428   0.520  0.1655  0.3962 -0.4005
 3062TIP3   OH230600   5.438   6.679  14.376 -0.8593 -0.1821  0.2519
 3062TIP3    H130601   5.495   6.756  14.376  3.0641 -2.7827  1.6163
 3062TIP3    H230602   5.439   6.649  14.467 -1.7490 -2.1599 -0.3382
 3063TIP3   OH230603   4.204   4.102   6.216  0.3887  0.0740  0.1967
 3063TIP3    H130604   4.243   4.181   6.177 -0.2591 -0.4781 -1.6682
 3063TIP3    H230605   4.280   4.052   6.248  0.8251  1.2934  1.1414
 3064TIP3   OH230606   2.378   5.010  13.928  0.3622 -0.2661  0.3639
 3064TIP3    H130607   2.428   4.929  13.936  1.0525  0.2501  1.5021
 3064TIP3    H230608   2.443   5.076  13.902 -0.2295 -0.0977 -0.7753
 3065TIP3   OH230609   4.298   2.424   0.370 -0.7150  0.0364 -0.3777
 3065TIP3    H130610   4.372   2.476   0.340 -1.2301  1.4579  0.6552
 3065TIP3    H230611   4.285   2.357   0.303  0.7517  0.4913 -1.1438
 3066TIP3   OH230612   5.940   3.085  15.554  1.0200  0.6450  0.0100
 3066TIP3    H130613   5.875   3.102  15.486 -1.3419 -1.5241  1.5258
 3066TIP3    H230614   5.951   3.169  15.598 -1.9807  0.8542  0.5935
 3067TIP3   OH230615   6.735   6.077   6.649  0.0351  0.7317 -0.0668
 3067TIP3    H130616   6.820   6.082   6.694  0.4202 -0.6377 -0.5908
 3067TIP3    H230617   6.718   5.983   6.640 -0.2988  0.9478 -2.2435
 3068TIP3   OH230618   6.389   0.942   0.751 -0.1983 -0.5859  0.3059
 3068TIP3    H130619   6.445   1.013   0.782  0.5490 -1.6487  1.4519
 3068TIP3    H230620   6.343   0.910   0.829 -0.3368 -1.5263 -0.1379
 3069TIP3   OH230621   0.042   6.520  12.413  0.0274 -0.4137 -0.6002
 3069TIP3    H130622  -0.032   6.562  12.457  0.8417 -2.1160  2.7144
 3069TIP3    H230623   0.081   6.590  12.360 -2.6310  1.0851 -0.7471
 3070TIP3   OH230624   0.698   3.968  15.124  0.5130  0.2637  0.3512
 3070TIP3    H130625   0.683   4.047  15.073  0.9628  1.3025  1.7585
 3070TIP3    H230626   0.759   3.916  15.071 -1.5015 -0.2501 -1.6412
 3071TIP3   OH230627   6.819   6.303   3.550 -0.0567 -0.2683  0.0739
 3071TIP3    H130628   6.813   6.227   3.491 -0.6725 -0.3074  0.1862
 3071TIP3    H230629   6.743   6.356   3.528  0.2841  0.2452  0.1113
 3072TIP3   OH230630   3.773   1.730  15.893  0.2822 -0.0035 -0.1262
 3072TIP3    H130631   3.693   1.693  15.856 -0.3255 -0.1249  1.2511
 3072TIP3    H230632   3.754   1.823  15.905 -0.4201 -0.3729  2.0392
 3073TIP3   OH230633   5.748   3.302  11.443 -0.1490 -0.2632 -0.0442
 3073TIP3    H130634   5.769   3.281  11.534 -1.3007  1.5139  0.6986
 3073TIP3    H230635   5.819   3.359  11.415  0.2267 -0.8427 -0.2955
 3074TIP3   OH230636   4.511   2.339   2.516  0.3022  0.2690 -0.2171
 3074TIP3    H130637   4.598   2.308   2.492 -0.2399 -1.4330 -0.1357
 3074TIP3    H230638   4.451   2.282   2.468 -0.7800 -1.1272  2.5664
 3075TIP3   OH230639   2.806   5.416  16.397 -0.0827  0.7973  0.2896
 3075TIP3    H130640   2.823   5.331  16.356 -3.0381  0.4544 -0.4992
 3075TIP3    H230641   2.848   5.480  16.340 -1.2595  0.0761 -1.4731
 3076TIP3   OH230642   0.584   3.416  11.369  0.1447  0.6119  0.3345
 3076TIP3    H130643   0.610   3.394  11.280  0.5440 -0.5543  0.7270
 3076TIP3    H230644   0.541   3.337  11.402  0.6522  0.7710  1.4173
 3077TIP3   OH230645   6.398   1.645  16.413 -0.0187 -0.0660 -0.0819
 3077TIP3    H130646   6.306   1.623  16.422  0.3767 -0.9779  2.9775
 3077TIP3    H230647   6.407   1.731  16.454  0.8086 -1.1524  2.2244
 3078TIP3   OH230648   4.495   1.473   1.853  0.3763  0.1916  0.4665
 3078TIP3    H130649   4.422   1.442   1.907  0.3393 -0.2949  0.1488
 3078TIP3    H230650   4.475   1.440   1.765  0.9466  0.1118  0.3651
 3079TIP3   OH230651   6.270   1.581   3.237 -0.1787 -0.3660 -0.1682
 3079TIP3    H130652   6.225   1.571   3.321  1.4976  0.4784  0.9021
 3079TIP3    H230653   6.313   1.497   3.222 -0.9425 -0.7096 -0.4960
 3080TIP3   OH230654   1.910   3.764   0.460  0.3843  0.0307  0.3178
 3080TIP3    H130655   1.971   3.707   0.413 -0.1804  0.8061 -1.4420
 3080TIP3    H230656   1.957   3.788   0.540  1.8504 -0.4340 -0.3686
 3081TIP3   OH230657   3.464   1.743  16.778  0.1950 -0.3552  0.1532
 3081TIP3    H130658   3.493   1.781  16.861  1.8333 -2.0807  0.4550
 3081TIP3    H230659   3.512   1.792  16.712  0.5158 -0.3708  0.3710
 3082TIP3   OH230660   2.160   0.513  16.047 -0.0724 -0.3001 -0.3311
 3082TIP3    H130661   2.092   0.484  16.107 -0.7066 -0.8328 -1.2676
 3082TIP3    H230662   2.240   0.517  16.100 -0.8292  0.3542  0.7805
 3083TIP3   OH230663   5.794   6.468  12.433 -0.0498 -0.0416  0.0410
 3083TIP3    H130664   5.792   6.373  12.421  2.5224 -0.2227  0.4117
 3083TIP3    H230665   5.766   6.481  12.524  2.0554 -0.7449  0.8559
 3084TIP3   OH230666   2.458   2.962  10.355 -0.6910  0.1056 -0.7373
 3084TIP3    H130667   2.385   3.015  10.385 -1.3999 -0.2087 -1.8285
 3084TIP3    H230668   2.420   2.905  10.287  0.5278 -0.1698 -1.2188
 3085TIP3   OH230669   0.181   3.703  11.115  0.2922 -0.2445 -0.1629
 3085TIP3    H130670   0.159   3.750  11.196  1.4827 -0.1518  0.1241
 3085TIP3    H230671   0.265   3.740  11.089  1.1794 -2.0735 -0.0389
 3086TIP3   OH230672   1.316   6.209   5.027 -0.0729 -0.2072 -0.0422
 3086TIP3    H130673   1.311   6.169   4.940 -2.0329  2.1377 -1.1145
 3086TIP3    H230674   1.394   6.264   5.024 -0.2327  0.0010 -0.3794
 3087TIP3   OH230675   3.981   3.659  12.421 -0.3919 -0.5791  0.1075
 3087TIP3    H130676   4.018   3.575  12.393  0.2173 -1.1062  2.2702
 3087TIP3    H230677   3.886   3.646  12.415 -0.3068 -1.5207  0.5651
 3088TIP3   OH230678   5.219   0.633  12.505 -0.3013  0.4907 -0.2531
 3088TIP3    H130679   5.249   0.654  12.416  1.6627  0.2612  0.3144
 3088TIP3    H230680   5.189   0.542  12.499 -0.0000  0.4135 -0.6383
 3089TIP3   OH230681   5.538   5.806  13.904  0.2014  0.3738 -0.0407
 3089TIP3    H130682   5.585   5.771  13.980  0.2506  0.3520 -0.0806
 3089TIP3    H230683   5.492   5.883  13.937 -1.4898 -0.8230  0.5338
 3090TIP3   OH230684   2.060   0.712   4.892 -0.3387  0.3006 -0.3081
 3090TIP3    H130685   2.151   0.716   4.919 -0.2226  1.0910 -0.7719
 3090TIP3    H230686   2.033   0.804   4.886 -0.8197  0.1138 -1.3142
 3091TIP3   OH230687   0.506   6.533   4.987  0.0447  0.9372 -0.0873
 3091TIP3    H130688   0.411   6.533   4.993  0.0609  1.8828  0.4712
 3091TIP3    H230689   0.528   6.620   4.952  0.7507  1.2861  1.1274
 3092TIP3   OH230690   3.668   4.834  14.472  0.3192 -0.5642  0.5559
 3092TIP3    H130691   3.602   4.811  14.538  0.9116  1.0704  1.7820
 3092TIP3    H230692   3.749   4.796  14.507  0.2895 -1.4761 -0.3156
 3093TIP3   OH230693   0.122   2.953   0.150 -0.0629  0.6137 -0.0193
 3093TIP3    H130694   0.064   2.970   0.076 -1.2156  0.9743  0.9404
 3093TIP3    H230695   0.149   2.862   0.138 -1.2055  0.2877 -0.2384
 3094TIP3   OH230696   3.399   2.950   5.018 -0.3347  0.0370  0.5243
 3094TIP3    H130697   3.370   2.859   5.024  0.5335 -0.2829 -0.0259
 3094TIP3    H230698   3.414   2.977   5.108  1.4584 -1.0459  0.5875
 3095TIP3   OH230699   4.231   4.083   3.092 -0.3607 -0.2983 -0.4267
 3095TIP3    H130700   4.233   3.997   3.134 -0.8143 -0.4718 -0.7493
 3095TIP3    H230701   4.315   4.088   3.045 -1.3967 -1.6931 -2.5763
 3096TIP3   OH230702   0.190   6.034   6.663  0.0037  0.1930 -0.2757
 3096TIP3    H130703   0.281   6.049   6.689  0.2497 -1.3822 -0.1184
 3096TIP3    H230704   0.188   5.942   6.636 -1.4577  0.3170 -0.6650
 3097TIP3   OH230705   5.177   1.266  12.289 -0.2854  0.5092 -0.3685
 3097TIP3    H130706   5.271   1.280  12.283 -0.1038 -0.6417 -0.5410
 3097TIP3    H230707   5.166   1.173  12.270 -1.3682  0.4237  0.5655
 3098TIP3   OH230708   0.085   5.096  11.069 -0.6172 -0.4744  0.1818
 3098TIP3    H130709   0.022   5.104  10.997 -1.1565  2.4390  0.8788
 3098TIP3    H230710   0.102   5.186  11.097  4.1983 -1.0277 -0.1774
 3099TIP3   OH230711   0.885   6.166   4.132  0.0760 -0.3114 -1.0296
 3099TIP3    H130712   0.814   6.102   4.124 -0.6499  0.0062  1.6526
 3099TIP3    H230713   0.842   6.246   4.162  1.2658  0.7193 -1.9746
 3100TIP3   OH230714   3.760   5.633   1.330  0.1916  0.1870  0.1849
 3100TIP3    H130715   3.766   5.556   1.387  1.5825  0.1260 -0.0019
 3100TIP3    H230716   3.675   5.625   1.287 -0.9616  0.2921  2.3141
 3101TIP3   OH230717   4.758   3.391   0.815  0.3020 -0.1433 -0.0530
 3101TIP3    H130718   4.763   3.306   0.858  0.6483  1.6082  3.7727
 3101TIP3    H230719   4.664   3.406   0.803  0.2079 -0.7605 -0.1309
 3102TIP3   OH230720   0.197   6.344   1.132  0.3442 -0.3274 -0.2964
 3102TIP3    H130721   0.102   6.355   1.135  0.3190 -0.5315 -0.2948
 3102TIP3    H230722   0.211   6.273   1.069  0.4559 -0.7018  0.1384
 3103TIP3   OH230723   1.302   0.788  10.894  0.1970 -0.0057  0.4522
 3103TIP3    H130724   1.309   0.883  10.885 -0.9814  0.0169 -0.3226
 3103TIP3    H230725   1.300   0.755  10.805  0.1296 -0.7361  0.7142
 3104TIP3   OH230726   0.917   3.448  11.280  0.8937  0.4370  0.1549
 3104TIP3    H130727   0.912   3.353  11.285  0.2137  0.5188  1.3201
 3104TIP3    H230728   0.841   3.473  11.227  0.2533  0.4152  1.0534
 3105TIP3   OH230729   0.051   0.743  12.709  0.4007 -0.5110  0.0374
 3105TIP3    H130730  -0.012   0.815  12.710  0.5521 -0.3222 -1.5296
 3105TIP3    H230731   0.097   0.753  12.625  0.3568 -2.4824 -0.2670
 3106TIP3   OH230732   6.739   5.594   2.085  0.1462 -0.4566  0.8237
 3106TIP3    H130733   6.808   5.576   2.149  0.3679 -0.7546  0.5017
 3106TIP3    H230734   6.693   5.511   2.076 -1.0387  0.0364  1.9485
 3107TIP3   OH230735   4.604   1.042   2.503  0.3764 -0.3482  0.1718
 3107TIP3    H130736   4.622   1.126   2.462 -0.0104  0.6692  1.9853
 3107TIP3    H230737   4.685   1.021   2.551 -0.1489 -0.0925  1.1986
 3108TIP3   OH230738   6.125   2.816   2.460  0.1758  0.0518  0.6281
 3108TIP3    H130739   6.217   2.817   2.486  0.3538  0.7754 -0.0204
 3108TIP3    H230740   6.104   2.907   2.440 -0.1443 -0.3783 -1.1238
 3109TIP3   OH230741   5.779   4.307  11.942 -0.2868 -0.2117  0.4946
 3109TIP3    H130742   5.803   4.324  11.850 -4.2919  1.9155 -0.3900
 3109TIP3    H230743   5.828   4.372  11.992  0.5086 -0.1315 -0.3697
 3110TIP3   OH230744   2.478   5.319  11.451  0.6421  0.3318 -0.4800
 3110TIP3    H130745   2.460   5.409  11.424 -0.6706  0.3584  0.4018
 3110TIP3    H230746   2.552   5.327  11.511  1.1109  0.7007 -1.0852
 3111TIP3   OH230747   1.875   2.990  12.187 -0.2300 -0.2794 -0.1978
 3111TIP3    H130748   1.793   2.976  12.234  0.0234 -0.5924  0.1575
 3111TIP3    H230749   1.930   3.036  12.250  0.7195 -2.2104  0.4582
 3112TIP3   OH230750   0.381   2.467   1.342 -0.0207 -0.8492 -0.0764
 3112TIP3    H130751   0.311   2.414   1.380 -0.4332 -0.8220 -0.7642
 3112TIP3    H230752   0.339   2.513   1.269  0.0505  1.2673  1.1479
 3113TIP3   OH230753   3.779   3.066   5.392  0.5922  0.2469 -0.2223
 3113TIP3    H130754   3.760   3.150   5.352  0.8243  0.5723  0.3454
 3113TIP3    H230755   3.772   3.081   5.487  2.4608  0.1053 -0.0193
 3114TIP3   OH230756   3.925   2.980  16.421 -0.6352  0.1594  0.2034
 3114TIP3    H130757   3.886   2.939  16.344  0.5660 -2.6123  0.9242
 3114TIP3    H230758   3.850   2.998  16.479 -1.4853  1.7760 -1.3116
 3115TIP3   OH230759   2.147   6.399   1.754 -0.0153  0.2995  0.3187
 3115TIP3    H130760   2.198   6.452   1.693 -0.8959 -1.3004 -1.9675
 3115TIP3    H230761   2.061   6.441   1.757 -0.7521 -0.9205 -1.5894
 3116TIP3   OH230762   0.647   3.478   0.359  0.0343  0.6594 -0.4796
 3116TIP3    H130763   0.554   3.458   0.349  0.2493  0.1651 -1.5876
 3116TIP3    H230764   0.687   3.449   0.277  1.3178 -0.0038  0.3563
 3117TIP3   OH230765   5.671   1.678  12.042  0.2849  0.4839 -0.7568
 3117TIP3    H130766   5.653   1.756  12.094 -1.6460  1.5584 -2.8766
 3117TIP3    H230767   5.764   1.685  12.021  0.4325  1.5319  0.1125
 3118TIP3   OH230768   5.134   6.189  16.660  0.4904 -0.4284 -0.2767
 3118TIP3    H130769   5.181   6.258  16.706  0.4902 -0.1833 -0.6409
 3118TIP3    H230770   5.202   6.131  16.626  0.5151 -0.2816 -0.4790
 3119TIP3   OH230771   4.154   4.163   5.078  0.1246  0.5471  0.1343
 3119TIP3    H130772   4.233   4.124   5.040 -0.5588 -0.6671 -0.0830
 3119TIP3    H230773   4.153   4.253   5.045  0.1656 -0.1183 -1.7781
 3120TIP3   OH230774   2.105   4.570   5.164  0.5115  0.1440  0.3610
 3120TIP3    H130775   2.190   4.610   5.143  0.5321 -0.9495 -1.9641
 3120TIP3    H230776   2.107   4.557   5.259  2.3048  1.5401  0.5642
 3121TIP3   OH230777   5.187   4.530  15.831 -0.2812  0.0477 -0.4051
 3121TIP3    H130778   5.146   4.535  15.745 -1.3509  0.5893  0.1184
 3121TIP3    H230779   5.144   4.456  15.874 -0.4491  0.3765  0.0040
 3122TIP3   OH230780   3.061   5.716   4.892 -0.8416  0.0432  0.1421
 3122TIP3    H130781   3.057   5.763   4.809  1.6806  0.9252  0.4300
 3122TIP3    H230782   3.052   5.784   4.958  0.9160 -0.0788  0.5543
 3123TIP3   OH230783   5.871   5.537  16.179 -0.6495 -0.8732  1.0567
 3123TIP3    H130784   5.878   5.443  16.168  1.1890 -0.7770  1.1914
 3123TIP3    H230785   5.896   5.573  16.093 -0.3776 -0.4836  1.2968
 3124TIP3   OH230786   2.923   2.458  15.247 -0.2618  0.8900 -0.2025
 3124TIP3    H130787   2.894   2.534  15.196 -0.2937  1.7326  1.0338
 3124TIP3    H230788   2.923   2.489  15.338 -0.0732 -0.5354  0.2974
 3125TIP3   OH230789   2.530   6.367   1.940  0.0246  0.6454  0.0291
 3125TIP3    H130790   2.458   6.425   1.966 -1.3891 -0.6938 -0.7008
 3125TIP3    H230791   2.607   6.402   1.985 -0.8550  2.7697 -0.0132
 3126TIP3   OH230792   1.981   4.675   1.664  0.1448 -0.3965  0.2238
 3126TIP3    H130793   2.006   4.598   1.613  1.7448 -0.5624  1.1669
 3126TIP3    H230794   2.020   4.749   1.617 -0.6278 -0.2603 -0.2030
 3127TIP3   OH230795   1.235   2.460  11.974  0.6510  0.5021  0.1737
 3127TIP3    H130796   1.167   2.511  11.931  1.2442  0.1259 -1.2664
 3127TIP3    H230797   1.286   2.525  12.022 -0.2884  0.8771  0.6893
 3128TIP3   OH230798   5.106   6.195   6.434 -0.2248 -0.4972 -0.1891
 3128TIP3    H130799   5.084   6.113   6.479 -0.1891  0.9500  2.7113
 3128TIP3    H230800   5.025   6.221   6.390 -1.1185 -0.6993  1.2683
 3129TIP3   OH230801   1.369   1.813  13.525  0.2104  0.3227 -0.3086
 3129TIP3    H130802   1.338   1.736  13.478  0.2672  1.3872 -2.1704
 3129TIP3    H230803   1.377   1.784  13.616 -1.3777 -1.3800 -0.6653
 3130TIP3   OH230804   4.816   1.801   0.783 -0.1445 -0.4224 -0.3441
 3130TIP3    H130805   4.891   1.781   0.727 -0.6822  0.6826 -1.5005
 3130TIP3    H230806   4.855   1.829   0.866  0.7474  0.6989 -1.1210
 3131TIP3   OH230807   6.715   0.760  16.739  0.4214  0.0754  0.0787
 3131TIP3    H130808   6.691   0.784  16.828 -0.0907  0.9596 -0.2786
 3131TIP3    H230809   6.780   0.825  16.713  0.8338 -0.3944 -0.0684
 3132TIP3   OH230810   2.695   5.825  11.134 -0.0214 -0.0915  0.0367
 3132TIP3    H130811   2.693   5.743  11.183 -1.1296  0.3753  0.8251
 3132TIP3    H230812   2.788   5.845  11.124  0.2499 -1.0713  0.4617
 3133TIP3   OH230813   0.528   2.189  16.994 -0.1058  0.4025  0.0394
 3133TIP3    H130814   0.435   2.196  17.015 -0.0660  1.9488 -0.2072
 3133TIP3    H230815   0.573   2.211  17.075  0.0253  2.3591 -0.5123
 3134TIP3   OH230816   6.116   1.880   5.787  0.5109  0.0804  0.6495
 3134TIP3    H130817   6.207   1.898   5.808  0.5142  1.7327 -0.5630
 3134TIP3    H230818   6.066   1.944   5.837  0.0943 -0.0955  0.4697
 3135TIP3   OH230819   3.211   4.373   5.427 -0.2767 -0.2637 -0.3257
 3135TIP3    H130820   3.226   4.455   5.380 -0.7470 -0.8670 -1.5893
 3135TIP3    H230821   3.206   4.307   5.357 -2.2588 -1.0173  0.4870
 3136TIP3   OH230822   0.119   2.418  12.811 -0.5500  0.3138  0.0384
 3136TIP3    H130823   0.111   2.325  12.833 -0.8065  0.4055  0.3196
 3136TIP3    H230824   0.078   2.425  12.725 -0.7099  0.2046  0.1050
 3137TIP3   OH230825   3.983   1.539   2.438 -0.3135 -0.7525 -0.3305
 3137TIP3    H130826   3.973   1.564   2.530  1.4337 -0.9165 -0.0601
 3137TIP3    H230827   4.000   1.445   2.441 -0.0798 -0.7245 -0.8026
 3138TIP3   OH230828   4.978   2.058  11.757 -0.2910  0.4456  0.7196
 3138TIP3    H130829   4.955   2.002  11.830 -0.9282  1.0554  1.0016
 3138TIP3    H230830   4.915   2.036  11.688  0.2331 -0.0447  0.3883
 3139TIP3   OH230831   4.798   3.685   5.309  0.0257 -0.4771 -0.8679
 3139TIP3    H130832   4.870   3.629   5.339 -0.5261 -0.4199  0.6124
 3139TIP3    H230833   4.727   3.668   5.370 -0.4247  1.2655 -0.8557
 3140TIP3   OH230834   1.599   6.046  16.583 -0.6643  0.7311  0.0377
 3140TIP3    H130835   1.611   6.024  16.675 -0.2633  0.2811 -0.1169
 3140TIP3    H230836   1.687   6.045  16.546 -0.8852  0.1978 -0.4997
 3141TIP3   OH230837   0.776   6.463   0.422  0.6674  0.6542 -0.6481
 3141TIP3    H130838   0.682   6.470   0.437  0.3632 -1.6060 -1.1315
 3141TIP3    H230839   0.814   6.536   0.471 -1.3574  1.9855 -0.9316
 3142TIP3   OH230840   1.770   4.793  14.939  0.4742 -0.1598 -0.7811
 3142TIP3    H130841   1.700   4.816  14.879 -0.3026  0.0080  0.1636
 3142TIP3    H230842   1.766   4.697  14.945  0.3008 -0.1467 -0.6940
 3143TIP3   OH230843   0.639   1.960  12.086  0.7610  0.4115  0.6186
 3143TIP3    H130844   0.639   1.882  12.142 -1.4780  0.9575  1.5030
 3143TIP3    H230845   0.721   2.004  12.107  0.7331 -0.2451  2.2864
 3144TIP3   OH230846   4.066   1.397  11.857 -0.2509  0.0846 -0.0940
 3144TIP3    H130847   3.997   1.460  11.837  1.1395  1.8959  0.5769
 3144TIP3    H230848   4.091   1.362  11.771 -3.1459 -2.0025 -0.2271
 3145TIP3   OH230849   6.343   5.493  15.008 -0.1002 -0.3836  0.5244
 3145TIP3    H130850   6.359   5.441  14.930  0.3361 -0.1933  0.4835
 3145TIP3    H230851   6.387   5.576  14.991 -0.9498  0.0678  0.5152
 3146TIP3   OH230852   3.214   0.115  16.689  1.0184 -0.3794 -0.5638
 3146TIP3    H130853   3.181   0.033  16.652  3.2726 -1.8952  0.4935
 3146TIP3    H230854   3.230   0.171  16.614  1.8844 -1.9247 -1.5972
 3147TIP3   OH230855   6.079   0.989  16.448 -0.0004  0.2816 -0.1964
 3147TIP3    H130856   6.141   1.009  16.518  0.0284  0.0820 -0.1651
 3147TIP3    H230857   6.072   0.894  16.449 -0.2159  0.2963 -0.2789
 3148TIP3   OH230858   0.251   5.376  11.695  0.5974  0.1274 -0.3287
 3148TIP3    H130859   0.179   5.348  11.638 -1.0129  2.5818  0.3163
 3148TIP3    H230860   0.210   5.388  11.781  2.0039  0.6387  0.2948
 3149TIP3   OH230861   6.691   3.515  11.327 -0.6727 -0.4655 -0.5144
 3149TIP3    H130862   6.709   3.448  11.393 -0.8736 -0.7308 -0.7273
 3149TIP3    H230863   6.733   3.594  11.361  0.8629 -1.0491 -0.9634
 3150TIP3   OH230864   6.252   6.318  14.825  0.2638 -0.0033  0.4308
 3150TIP3    H130865   6.197   6.394  14.804 -0.5838 -0.1879  1.8712
 3150TIP3    H230866   6.220   6.287  14.910  0.5364 -2.0420 -0.1612
 3151TIP3   OH230867   4.231   1.583  13.298  0.3050 -0.3618 -0.4125
 3151TIP3    H130868   4.213   1.608  13.208 -3.0722 -1.0708 -0.0809
 3151TIP3    H230869   4.191   1.652  13.351 -2.2228 -2.3319  0.4543
 3152TIP3   OH230870   4.830   6.229  17.026 -0.0169  0.0663  0.2461
 3152TIP3    H130871   4.885   6.153  17.004  2.3032  1.3445  1.1954
 3152TIP3    H230872   4.744   6.208  16.991  0.6519 -2.7942  0.0874
 3153TIP3   OH230873   6.796   4.140   1.171 -0.6639  0.4465  0.0297
 3153TIP3    H130874   6.763   4.138   1.260 -0.5064 -1.3921  0.0987
 3153TIP3    H230875   6.831   4.051   1.157 -0.2099  0.8587 -1.6708
 3154TIP3   OH230876   0.838   5.960   6.542  0.3763 -0.6818  0.3392
 3154TIP3    H130877   0.799   5.873   6.546  1.0686 -1.0660 -0.9413
 3154TIP3    H230878   0.926   5.946   6.508  0.4467  0.5290 -0.0192
 3155TIP3   OH230879   2.593   6.565  11.776 -0.3252 -0.5012  0.2863
 3155TIP3    H130880   2.636   6.508  11.840  0.7951 -0.1260 -0.0896
 3155TIP3    H230881   2.666   6.599  11.723 -1.1788 -0.4699 -0.9078
 3156TIP3   OH230882   2.516   5.969   6.244  0.1157 -0.1139  0.5770
 3156TIP3    H130883   2.582   5.904   6.268  0.4606  0.0264  0.0315
 3156TIP3    H230884   2.510   6.026   6.320  1.5244  0.5956  0.1925
 3157TIP3   OH230885   4.592   3.626   5.495  0.2240 -0.1056  0.4608
 3157TIP3    H130886   4.520   3.563   5.496  0.7302 -0.7418 -1.0527
 3157TIP3    H230887   4.608   3.644   5.588 -2.9587  1.3738  0.8815
 3158TIP3   OH230888   3.687   2.970   1.796 -0.8195 -0.1880 -0.0227
 3158TIP3    H130889   3.780   2.976   1.775 -0.4619  1.4983  1.7965
 3158TIP3    H230890   3.656   2.896   1.743  0.8214  1.1095 -3.0728
 3159TIP3   OH230891   1.753   2.205   3.754 -0.5120  0.8292 -0.4544
 3159TIP3    H130892   1.748   2.279   3.814  1.0685 -0.5321  1.5067
 3159TIP3    H230893   1.842   2.208   3.718 -0.2547 -0.3349  0.0280
 3160TIP3   OH230894   5.920   4.296  16.405 -0.8285 -0.3307 -0.4034
 3160TIP3    H130895   5.906   4.227  16.340 -0.8687 -0.9409  0.2452
 3160TIP3    H230896   6.014   4.314  16.401 -1.1801  1.5775 -2.5524
 3161TIP3   OH230897   2.461   0.795   1.112 -0.7534  0.3616 -0.1637
 3161TIP3    H130898   2.552   0.802   1.141 -1.1806  1.4768  0.9922
 3161TIP3    H230899   2.412   0.848   1.175 -2.4113 -1.4359  0.1325
 3162TIP3   OH230900   4.354   2.827  13.751 -0.4749 -0.3885  0.2631
 3162TIP3    H130901   4.325   2.838  13.841  0.7271  0.8994  0.5177
 3162TIP3    H230902   4.361   2.732  13.740  0.2193 -0.5424  1.8139
 3163TIP3   OH230903   6.164   2.804   4.066  0.0643  0.4238 -0.4869
 3163TIP3    H130904   6.186   2.712   4.050  1.0047  0.5751 -0.1266
 3163TIP3    H230905   6.114   2.831   3.989 -0.3530 -0.4333 -0.5199
 3164TIP3   OH230906   3.387   6.443   1.718  0.1823  0.5014  0.2142
 3164TIP3    H130907   3.406   6.355   1.686  2.5048  0.8752  0.4018
 3164TIP3    H230908   3.369   6.431   1.812  0.4317  0.2187  0.2287
 3165TIP3   OH230909   4.629   3.248   0.256 -0.3260 -0.4669 -0.3347
 3165TIP3    H130910   4.698   3.184   0.272 -0.4570 -0.8316 -1.1668
 3165TIP3    H230911   4.647   3.280   0.167 -1.9942 -1.5652 -1.1195
 3166TIP3   OH230912   2.573   0.181   3.087  0.7497 -0.4673  0.4298
 3166TIP3    H130913   2.580   0.253   3.025 -0.7580  1.0669  1.9131
 3166TIP3    H230914   2.513   0.119   3.046 -0.5722  0.7299  0.4764
 3167TIP3   OH230915   4.233   6.717  15.639  0.5027  0.0313 -0.3683
 3167TIP3    H130916   4.288   6.718  15.717 -0.1527  2.3693  0.1674
 3167TIP3    H230917   4.167   6.784  15.656 -1.2687 -1.2364 -1.8536
 3168TIP3   OH230918   5.688   1.943   4.125  0.3703 -0.5148 -0.9367
 3168TIP3    H130919   5.667   1.912   4.037 -1.1320  1.3660 -1.3020
 3168TIP3    H230920   5.674   1.866   4.181 -3.3872 -0.6601 -1.7657
 3169TIP3   OH230921   6.763   5.707  14.271  0.0858 -0.6661  0.2199
 3169TIP3    H130922   6.718   5.626  14.250  0.2165 -0.0700 -2.9384
 3169TIP3    H230923   6.831   5.682  14.334  2.3100 -3.8067 -3.0271
 3170TIP3   OH230924   1.325   3.832  12.362  0.5763 -0.2780  0.2198
 3170TIP3    H130925   1.272   3.824  12.442  1.3352  0.3098  0.8010
 3170TIP3    H230926   1.262   3.848  12.292  0.0697  3.3039  1.2897
 3171TIP3   OH230927   5.463   4.745  14.430 -0.3702 -0.0769 -0.1008
 3171TIP3    H130928   5.422   4.730  14.345 -0.7848  1.8178 -0.2653
 3171TIP3    H230929   5.522   4.819  14.415  0.2188 -0.2957  1.0588
 3172TIP3   OH230930   5.351   3.436  12.704  0.4546 -0.3133 -0.0239
 3172TIP3    H130931   5.418   3.471  12.646  0.8150 -1.4034 -0.2887
 3172TIP3    H230932   5.282   3.503  12.704  1.3131  0.5895 -0.1424
 3173TIP3   OH230933   1.108   5.616   0.638  0.0131  0.2906  0.5419
 3173TIP3    H130934   1.134   5.708   0.631 -1.0398  0.5732  0.1528
 3173TIP3    H230935   1.048   5.602   0.565 -3.6681  0.6406  3.2285
 3174TIP3   OH230936   4.685   3.327  13.975 -0.3413  0.0910 -0.0041
 3174TIP3    H130937   4.716   3.404  14.022  0.6582  0.4976 -1.2628
 3174TIP3    H230938   4.760   3.301  13.920 -1.0538 -1.0754 -0.4656
 3175TIP3   OH230939   6.516   6.452  16.353  0.0688  0.4023  0.4648
 3175TIP3    H130940   6.611   6.448  16.368  0.2270 -0.1975 -0.6222
 3175TIP3    H230941   6.507   6.449  16.258 -1.0510  0.3475  0.5701
 3176TIP3   OH230942   3.354   3.074   1.579 -0.0609  0.3084 -0.1088
 3176TIP3    H130943   3.417   3.089   1.508  1.1663 -1.3843  0.5497
 3176TIP3    H230944   3.297   3.005   1.545  0.2206 -0.1554  0.3566
 3177TIP3   OH230945   1.082   3.383   1.233  0.2623  0.3016  0.3149
 3177TIP3    H130946   1.057   3.461   1.185 -0.8955 -0.0010  0.3963
 3177TIP3    H230947   0.999   3.345   1.262  0.7584 -1.2282 -0.1519
 3178TIP3   OH230948   5.416   6.600  14.635  0.3474  0.0985  0.1904
 3178TIP3    H130949   5.399   6.510  14.663 -2.1337  0.3945 -0.1433
 3178TIP3    H230950   5.506   6.617  14.662  0.3072 -1.8982  1.8094
 3179TIP3   OH230951   4.625   0.977   4.574 -0.1676  0.6295 -0.2582
 3179TIP3    H130952   4.662   1.065   4.580 -0.0037  0.6054 -0.9245
 3179TIP3    H230953   4.534   0.991   4.547 -0.4923  0.6528  0.7878
 3180TIP3   OH230954   3.331   6.089  16.908  0.4848  0.2727 -0.0889
 3180TIP3    H130955   3.382   6.021  16.952  0.9507  0.4891 -0.2853
 3180TIP3    H230956   3.333   6.065  16.816  1.2002  0.8929 -0.2470
 3181TIP3   OH230957   4.847   2.164   4.813 -0.0485  0.7313  0.4795
 3181TIP3    H130958   4.772   2.208   4.772 -0.4851  0.4490  0.9741
 3181TIP3    H230959   4.826   2.071   4.807 -0.0716  0.6853  1.2543
 3182TIP3   OH230960   5.837   3.049  12.702  0.7112 -0.2707 -0.0768
 3182TIP3    H130961   5.825   3.144  12.705  2.4155  0.1447 -2.6752
 3182TIP3    H230962   5.859   3.031  12.611 -1.0930 -3.4148 -0.0197
 3183TIP3   OH230963   0.319   6.443  12.100 -0.0319  0.2010 -0.1810
 3183TIP3    H130964   0.262   6.496  12.157 -0.2384  0.7526 -0.8821
 3183TIP3    H230965   0.265   6.368  12.075  0.1788 -0.2330  0.6215
 3184TIP3   OH230966   3.938   1.365  10.903  0.0085  0.5368  0.2581
 3184TIP3    H130967   4.011   1.427  10.897  0.9076 -0.6045 -1.0020
 3184TIP3    H230968   3.894   1.370  10.818 -1.1342  0.8727  0.8433
 3185TIP3   OH230969   4.418   5.134   5.343 -0.0591  0.7220  0.1254
 3185TIP3    H130970   4.496   5.090   5.311 -0.3624 -1.1015  1.7133
 3185TIP3    H230971   4.346   5.079   5.316 -0.6350  1.3537  0.3463
 3186TIP3   OH230972   4.174   2.296  11.590  0.7974  0.1292  0.5154
 3186TIP3    H130973   4.094   2.317  11.639  1.9384 -0.5271  2.7765
 3186TIP3    H230974   4.156   2.327  11.501 -1.7724  0.4435  1.0658
 3187TIP3   OH230975   5.021   2.321  14.751 -0.0414 -0.4976  0.0519
 3187TIP3    H130976   5.090   2.375  14.713 -0.6712  0.6901  0.5772
 3187TIP3    H230977   5.054   2.297  14.837 -0.6089  0.7539  0.6357
 3188TIP3   OH230978   2.099   4.718   1.121  0.1708 -0.0655  0.3977
 3188TIP3    H130979   2.042   4.736   1.047  0.3163 -0.1277  0.2687
 3188TIP3    H230980   2.188   4.734   1.088  0.1834  0.7304  0.8049
 3189TIP3   OH230981   6.035   3.489  16.198 -0.3581 -0.4115  0.3556
 3189TIP3    H130982   6.088   3.508  16.275 -0.5519 -0.9999  0.6413
 3189TIP3    H230983   6.098   3.454  16.134 -0.3936 -1.1049  0.6928
 3190TIP3   OH230984   4.693   3.415  11.241 -0.0093  0.0758 -0.5101
 3190TIP3    H130985   4.752   3.360  11.292  0.3883 -0.0410 -1.0782
 3190TIP3    H230986   4.696   3.378  11.152 -0.4624  0.4410 -0.6841
 3191TIP3   OH230987   6.076   2.442  15.175  0.1766 -0.3930  0.8590
 3191TIP3    H130988   6.159   2.415  15.212 -0.2058 -1.1434  1.1870
 3191TIP3    H230989   6.093   2.528  15.137  1.0533 -0.4706  1.0698
 3192TIP3   OH230990   3.572   3.402  13.101  0.3506  0.0069 -0.2853
 3192TIP3    H130991   3.620   3.357  13.032 -0.1545  0.0306 -0.6583
 3192TIP3    H230992   3.559   3.335  13.169  0.0003 -0.2869 -0.6407
 3193TIP3   OH230993   5.867   5.212  13.585  0.4450  0.0353  0.1202
 3193TIP3    H130994   5.933   5.156  13.544  0.2669  0.3785 -0.6497
 3193TIP3    H230995   5.909   5.298  13.590 -0.5696  0.7226 -2.0948
 3194TIP3   OH230996   3.558   4.077   5.126 -0.3779 -0.1508  0.1329
 3194TIP3    H130997   3.497   4.014   5.087 -0.1294 -0.8438  0.8537
 3194TIP3    H230998   3.575   4.139   5.055 -1.0425 -0.5816 -0.4286
 3195TIP3   OH230999   4.399   3.861  15.469 -0.0270 -0.5347 -0.3850
 3195TIP3    H131000   4.348   3.882  15.547  0.5542 -0.3429 -0.0466
 3195TIP3    H231001   4.334   3.848  15.400 -0.5212 -0.1368  0.0004
 3196TIP3   OH231002   1.733   5.724   2.639  0.1816  0.1201  0.5501
 3196TIP3    H131003   1.797   5.791   2.661 -0.4219  0.8567  0.0897
 3196TIP3    H231004   1.695   5.699   2.724 -0.5523  1.3460  0.5984
 3197TIP3   OH231005   0.231   3.667  15.110 -0.6097 -0.1866 -0.0669
 3197TIP3    H131006   0.265   3.671  15.021 -0.4087 -3.4629 -0.2662
 3197TIP3    H231007   0.160   3.603  15.106 -1.1121  0.1499  1.9930
 3198TIP3   OH231008   6.221   6.518   0.078  0.4175  0.0791 -0.4099
 3198TIP3    H131009   6.222   6.469  -0.004 -0.6808  0.9388 -0.9635
 3198TIP3    H231010   6.269   6.462   0.140 -0.8709 -1.7531 -0.9738
 3199TIP3   OH231011   2.522   2.704   1.462 -0.5915 -0.5310 -0.9631
 3199TIP3    H131012   2.479   2.723   1.379  1.1667  0.1316 -1.7831
 3199TIP3    H231013   2.587   2.774   1.472 -0.7067 -0.6505  0.9356
 3200TIP3   OH231014   1.971   4.242  11.832  0.2866  0.2316 -0.3437
 3200TIP3    H131015   1.884   4.233  11.793  0.2610  0.5475 -0.3661
 3200TIP3    H231016   1.956   4.295  11.911  0.1674 -1.2743  0.6964
 3201TIP3   OH231017   0.871   6.791   0.834 -0.1709  0.2179  0.0319
 3201TIP3    H131018   0.950   6.839   0.861 -0.2405  0.5786 -0.3909
 3201TIP3    H231019   0.863   6.720   0.898  1.8824 -1.3390 -1.3285
 3202TIP3   OH231020   5.560   2.022  14.174 -0.6132  0.0059  0.2694
 3202TIP3    H131021   5.597   1.939  14.145 -0.4469  0.3169 -0.4309
 3202TIP3    H231022   5.472   2.000  14.204 -0.2574 -0.5616  0.9168
 3203TIP3   OH231023   6.453   0.027  13.518 -0.5664 -0.2072  0.4588
 3203TIP3    H131024   6.478   0.063  13.433 -1.1405 -0.5649  0.1282
 3203TIP3    H231025   6.520  -0.038  13.538  1.7926  2.5468  2.1381
 3204TIP3   OH231026   1.818   2.230  12.002 -0.2055 -0.4373 -0.1539
 3204TIP3    H131027   1.804   2.320  12.031 -1.9249 -0.1420 -1.7208
 3204TIP3    H231028   1.872   2.191  12.071  1.4941  2.0508  0.0803
 3205TIP3   OH231029   4.567   3.391   2.786  0.0962  0.4205 -0.1406
 3205TIP3    H131030   4.602   3.391   2.697 -0.9924 -1.9415 -0.6370
 3205TIP3    H231031   4.633   3.346   2.838 -0.0882  0.1526 -0.1355
 3206TIP3   OH231032   1.601   6.688   1.523 -0.0315 -0.0422 -0.5626
 3206TIP3    H131033   1.562   6.605   1.495  1.3881 -0.2546 -2.0862
 3206TIP3    H231034   1.612   6.738   1.442 -1.5554  2.0031  0.4041
 3207TIP3   OH231035   2.348   3.296  11.308  0.7245 -0.1336  0.0370
 3207TIP3    H131036   2.320   3.299  11.399 -0.0253 -2.1482 -0.0736
 3207TIP3    H231037   2.273   3.327  11.258  0.2703 -1.2386  0.0023
 3208TIP3   OH231038   3.209   0.179  16.031  0.7047  0.6439 -0.1803
 3208TIP3    H131039   3.172   0.161  16.117 -0.3493  0.8031 -0.5812
 3208TIP3    H231040   3.134   0.207  15.978  1.2904  0.3304 -1.2106
 3209TIP3   OH231041   3.472   2.272   2.955  0.5620  0.0918 -0.0393
 3209TIP3    H131042   3.493   2.217   3.031  2.2271  0.8740  0.1034
 3209TIP3    H231043   3.534   2.246   2.888  0.1919  0.5715 -0.5792
 3210TIP3   OH231044   0.784   6.631  15.626  0.2977  0.5734 -0.2036
 3210TIP3    H131045   0.871   6.644  15.588  0.2153 -1.7507 -1.3759
 3210TIP3    H231046   0.801   6.584  15.708  0.2894  3.2459  1.4663
 3211TIP3   OH231047   4.946   5.699  11.821  0.4583 -0.0653  0.4292
 3211TIP3    H131048   5.011   5.663  11.761  1.3471  2.3947 -0.1844
 3211TIP3    H231049   4.871   5.721  11.765 -0.2878 -1.3425  0.8798
 3212TIP3   OH231050   3.601   6.732  11.645  0.2252 -0.6049  0.2966
 3212TIP3    H131051   3.614   6.651  11.694 -0.3697 -1.0869 -0.3185
 3212TIP3    H231052   3.630   6.711  11.556  0.6643  0.0540  0.2727
 3213TIP3   OH231053   1.782   5.590   2.873 -0.1736  0.5271  0.1755
 3213TIP3    H131054   1.776   5.506   2.829  1.8659  1.3294 -1.8112
 3213TIP3    H231055   1.753   5.572   2.963 -0.6662 -2.0613 -0.4259
 3214TIP3   OH231056   0.204   0.080  16.463 -0.1684  0.2191  0.8727
 3214TIP3    H131057   0.291   0.095  16.425 -0.0394 -2.7951 -0.3588
 3214TIP3    H231058   0.191   0.153  16.523  2.4065  1.7805 -0.2831
 3215TIP3   OH231059   0.101   0.110  13.807 -0.0598  0.4438  0.1620
 3215TIP3    H131060   0.132   0.187  13.855 -0.3610  0.9422 -0.4293
 3215TIP3    H231061   0.155   0.108  13.728  2.5600 -2.1047  1.8332
 3216TIP3   OH231062   0.329   1.429   1.200  0.4820 -0.3793  0.0984
 3216TIP3    H131063   0.242   1.407   1.233 -0.2637 -0.0524 -1.5696
 3216TIP3    H231064   0.339   1.376   1.121  1.3880  0.3291 -0.2822
 3217TIP3   OH231065   3.416   6.212  13.626  0.2011  0.1324  0.1783
 3217TIP3    H131066   3.341   6.194  13.568 -0.8933  2.5662  0.7085
 3217TIP3    H231067   3.489   6.166  13.585 -1.2774 -1.1605 -1.1619
 3218TIP3   OH231068   1.087   1.737   0.073 -1.0414 -0.3950 -0.9918
 3218TIP3    H131069   0.994   1.717   0.089 -0.3647 -2.6440  0.6603
 3218TIP3    H231070   1.099   1.721  -0.020 -2.4191  0.6474 -1.4009
 3219TIP3   OH231071   5.360   1.231  16.174 -0.5523 -0.1883  0.3894
 3219TIP3    H131072   5.391   1.318  16.149 -0.2872 -0.4835 -0.3221
 3219TIP3    H231073   5.430   1.196  16.229 -1.1988  0.5163  1.7070
 3220TIP3   OH231074   0.778   5.077   1.549 -0.0741  0.0445  0.1290
 3220TIP3    H131075   0.833   5.151   1.575  0.0408 -0.7405  2.2985
 3220TIP3    H231076   0.834   5.025   1.491  0.1112  1.2260 -0.7801
 3221TIP3   OH231077   0.593   6.151   1.993  0.1608 -0.2266  0.4095
 3221TIP3    H131078   0.580   6.057   1.980 -0.3571 -0.0949 -0.0390
 3221TIP3    H231079   0.688   6.162   1.992  0.2108 -0.6414 -0.3434
 3222TIP3   OH231080   3.316   3.680  11.403 -0.1043  0.4921  0.5018
 3222TIP3    H131081   3.261   3.741  11.354 -0.2866  0.4903  0.6999
 3222TIP3    H231082   3.307   3.597  11.357 -1.8812 -0.0146  1.6703
 3223TIP3   OH231083   0.015   6.742   2.405 -0.5953 -0.7990 -0.4132
 3223TIP3    H131084  -0.024   6.707   2.325  1.5492 -0.8722 -1.4766
 3223TIP3    H231085   0.101   6.774   2.379 -0.5282  0.8472  1.5126
 3224TIP3   OH231086   2.404   5.669  12.739  0.1109 -0.0361  0.1681
 3224TIP3    H131087   2.321   5.634  12.773 -0.2488  0.8360  0.2252
 3224TIP3    H231088   2.458   5.592  12.722 -0.7498 -0.6217  0.0352
 3225TIP3   OH231089   1.221   4.533   2.835 -0.1164 -0.4696  0.4612
 3225TIP3    H131090   1.127   4.531   2.851 -0.0790 -0.4683  0.6842
 3225TIP3    H231091   1.238   4.453   2.785 -0.0768 -1.0167  1.3220
 3226TIP3   OH231092   0.424   1.272  13.955 -0.3303  0.3761  0.8510
 3226TIP3    H131093   0.362   1.245  14.023 -1.1335 -1.2582 -0.4335
 3226TIP3    H231094   0.404   1.214  13.881  0.3255  2.2434 -0.8717
 3227TIP3   OH231095   2.379   1.238  15.784  0.3066  0.0715 -0.2527
 3227TIP3    H131096   2.352   1.306  15.846 -0.7648  1.7717 -2.4715
 3227TIP3    H231097   2.473   1.253  15.771  0.9555 -1.3808  2.1257
 3228TIP3   OH231098   0.777   4.869  12.630  0.2350 -0.3095  0.1966
 3228TIP3    H131099   0.822   4.868  12.546  2.2828  1.2522  1.2027
 3228TIP3    H231100   0.815   4.796  12.679  1.4940  0.8010  0.9230
 3229TIP3   OH231101   6.750   6.317  15.376  0.0025 -0.0661 -0.3353
 3229TIP3    H131102   6.710   6.259  15.441 -1.5394  1.2302 -0.0611
 3229TIP3    H231103   6.834   6.341  15.414  1.6260 -3.5578 -1.3210
 3230TIP3   OH231104   3.708   5.952  11.283 -0.4045  0.4280  0.0035
 3230TIP3    H131105   3.756   5.870  11.267 -1.3397 -0.3801  1.1401
 3230TIP3    H231106   3.733   5.976  11.373 -1.8929  0.1322  0.5189
 3231TIP3   OH231107   0.058   6.190  15.793  0.4345  0.8137  0.5241
 3231TIP3    H131108   0.133   6.184  15.733 -1.5444 -0.2394 -2.0197
 3231TIP3    H231109   0.009   6.266  15.762 -1.2300 -0.4265  0.0210
 3232TIP3   OH231110   5.786   3.984   3.306 -0.4821 -0.2809  0.0312
 3232TIP3    H131111   5.803   3.963   3.214 -0.0136 -0.2537  0.1098
 3232TIP3    H231112   5.691   3.974   3.316 -0.5882  0.1425 -0.5596
 3233TIP3   OH231113   6.687   5.095   1.994 -0.0199 -0.2377  0.0020
 3233TIP3    H131114   6.704   5.176   1.947 -0.7585 -0.5245 -0.7877
 3233TIP3    H231115   6.617   5.118   2.056 -1.3840 -0.6415 -1.3486
 3234TIP3   OH231116   1.976   3.245   3.003  0.4838 -0.1657 -0.1332
 3234TIP3    H131117   1.895   3.259   2.953  0.0833  1.3763  0.8816
 3234TIP3    H231118   2.046   3.263   2.940 -0.0111  1.6916 -0.2164
 3235TIP3   OH231119   5.936   2.235  12.937  0.2495  0.1515  0.3797
 3235TIP3    H131120   5.999   2.302  12.911  0.1790  0.2733  0.5216
 3235TIP3    H231121   5.989   2.158  12.957  0.2870 -0.0248 -0.3718
 3236TIP3   OH231122   0.111   0.502   4.172 -0.7495 -0.1288  0.2276
 3236TIP3    H131123   0.099   0.592   4.201 -0.0377 -0.5218  1.8831
 3236TIP3    H231124   0.202   0.482   4.193 -1.1096 -1.4775  0.6366
 3237TIP3   OH231125   4.570   2.486  12.091  0.1158 -0.4203  0.2183
 3237TIP3    H131126   4.604   2.417  12.034 -1.4434 -0.1254 -1.1408
 3237TIP3    H231127   4.615   2.473  12.174  0.7634 -2.3072 -0.3774
 3238TIP3   OH231128   1.057   5.616  14.039 -0.2443 -0.2112  0.1405
 3238TIP3    H131129   1.027   5.707  14.032  2.6768  0.9909  1.6842
 3238TIP3    H231130   1.056   5.583  13.949  1.8291  2.5146 -1.0062
 3239TIP3   OH231131   2.226   0.625  16.446 -0.0303 -0.6200 -0.2108
 3239TIP3    H131132   2.199   0.537  16.421 -1.6670  0.2404 -1.6810
 3239TIP3    H231133   2.189   0.682  16.378  0.2540  1.2880  1.1499
 3240TIP3   OH231134   4.679   4.583  13.646  0.3062  0.4918  0.6600
 3240TIP3    H131135   4.665   4.677  13.633  2.5062  0.9169  0.9549
 3240TIP3    H231136   4.667   4.569  13.740 -3.0060 -0.1743  0.2610
 3241TIP3   OH231137   3.763   6.570   2.491  0.1298  0.1680  0.1601
 3241TIP3    H131138   3.750   6.663   2.469 -0.2423 -0.1866 -1.2214
 3241TIP3    H231139   3.851   6.550   2.460  0.1863  0.0427  0.4017
 3242TIP3   OH231140   0.047   1.438   2.890  0.2524  0.6872  0.1218
 3242TIP3    H131141  -0.039   1.414   2.925 -0.2000  0.4984 -1.0783
 3242TIP3    H231142   0.090   1.485   2.962 -0.5778  0.1752  0.9760
 3243TIP3   OH231143   2.016   2.698  12.086 -0.3238 -0.0563  0.5301
 3243TIP3    H131144   1.931   2.727  12.118 -0.9168 -2.3229  1.1628
 3243TIP3    H231145   2.080   2.751  12.134 -1.3413  2.2837 -0.5806
 3244TIP3   OH231146   4.688   5.969  16.009 -0.2531 -0.6823  0.2695
 3244TIP3    H131147   4.764   5.985  15.953  0.5109  0.9449  1.6549
 3244TIP3    H231148   4.689   6.042  16.071 -1.8725 -1.6386  1.4952
 3245TIP3   OH231149   0.946   3.504  12.959  0.0360 -0.2315  0.5437
 3245TIP3    H131150   1.037   3.474  12.950 -0.0594 -0.4139  0.1993
 3245TIP3    H231151   0.896   3.449  12.899 -0.6874 -1.8372  2.4899
 3246TIP3   OH231152   0.505   3.728   3.035  0.4001 -0.5390 -0.4163
 3246TIP3    H131153   0.470   3.799   2.981  2.1657  0.5686 -0.2048
 3246TIP3    H231154   0.576   3.691   2.983  1.3494 -0.2323  0.6120
 3247TIP3   OH231155   3.381   2.741  11.767  0.3595 -0.1012  0.0556
 3247TIP3    H131156   3.301   2.794  11.757  0.1087  0.1695  2.7250
 3247TIP3    H231157   3.452   2.803  11.757  0.1572  0.1471  0.1363
 3248TIP3   OH231158   4.640   1.780   4.207  0.2074 -0.3334  0.0486
 3248TIP3    H131159   4.717   1.823   4.244  0.6456  0.8472 -2.0578
 3248TIP3    H231160   4.566   1.812   4.258  0.8542  0.5805  0.4198
 3249TIP3   OH231161   2.727   3.329  15.343 -0.2839 -0.2240  0.5578
 3249TIP3    H131162   2.737   3.408  15.289 -2.5056 -1.1570 -1.4195
 3249TIP3    H231163   2.638   3.336  15.379  0.0855 -1.0616  1.6729
 3250TIP3   OH231164   3.414   0.338   5.371 -0.0433 -0.2574  0.0812
 3250TIP3    H131165   3.394   0.350   5.464 -2.1768  1.0767 -0.4831
 3250TIP3    H231166   3.459   0.253   5.367  1.5185  0.3599  2.4791
 3251TIP3   OH231167   4.934   2.366  14.406  0.0620 -0.2791 -0.3833
 3251TIP3    H131168   4.906   2.280  14.437 -0.5694 -0.5609 -1.6699
 3251TIP3    H231169   4.934   2.421  14.484  0.1564 -1.3576  0.4027
 3252TIP3   OH231170   5.905   0.780  16.312  0.0581 -0.2596  0.9273
 3252TIP3    H131171   5.842   0.723  16.268 -0.3095 -0.3717  1.5757
 3252TIP3    H231172   5.859   0.863  16.322  0.6500  0.2067 -0.1551
 3253TIP3   OH231173   6.064   0.537   0.077  0.4607  0.2691  0.6578
 3253TIP3    H131174   6.064   0.583  -0.007 -0.2965 -0.5595  0.1870
 3253TIP3    H231175   6.065   0.444   0.054 -1.3275 -0.0168  1.5114
 3254TIP3   OH231176   5.073   5.830  14.329 -0.1556 -0.1198  0.1711
 3254TIP3    H131177   5.115   5.903  14.284  0.9141 -1.0618 -0.4124
 3254TIP3    H231178   5.125   5.753  14.304 -0.6486 -0.9420  1.5601
 3255TIP3   OH231179   0.065   0.157  11.615  0.1518 -0.8682  0.6924
 3255TIP3    H131180   0.126   0.156  11.542 -1.0330  0.4531 -0.3906
 3255TIP3    H231181   0.070   0.070  11.652  0.3209 -1.8129 -1.4019
 3256TIP3   OH231182   2.575   1.341  16.049 -0.2245  0.1863 -0.3993
 3256TIP3    H131183   2.638   1.388  15.994 -0.1255 -0.1681 -0.5933
 3256TIP3    H231184   2.600   1.363  16.139  0.1255  0.1181 -0.4780
 3257TIP3   OH231185   2.074   5.125  16.621  0.1047 -0.2066 -0.5925
 3257TIP3    H131186   1.996   5.069  16.613  0.4667 -0.6962 -0.7492
 3257TIP3    H231187   2.108   5.105  16.708 -1.1255  1.5720  0.3587
 3258TIP3   OH231188   0.521   3.703  15.549  0.1472 -0.1804  0.1542
 3258TIP3    H131189   0.546   3.611  15.548  2.3305  0.3426 -0.0956
 3258TIP3    H231190   0.495   3.722  15.458  0.4743 -0.3739  0.0183
 3259TIP3   OH231191   2.586   1.589   2.207  0.9616  0.5718  0.3386
 3259TIP3    H131192   2.612   1.611   2.296  2.1111 -0.5001  0.2922
 3259TIP3    H231193   2.497   1.624   2.198  0.1985 -0.6865  2.4250
 3260TIP3   OH231194   1.656   0.751   4.669 -0.1742 -0.2018  0.3310
 3260TIP3    H131195   1.614   0.811   4.730 -1.4279  0.6426 -1.2882
 3260TIP3    H231196   1.730   0.801   4.633 -2.1637  1.1531 -2.2437
 3261TIP3   OH231197   3.207   6.151  14.591  0.3019 -0.2328  0.4063
 3261TIP3    H131198   3.133   6.106  14.551  0.7969 -1.5692  0.9199
 3261TIP3    H231199   3.279   6.087  14.587  1.6759  1.2925 -0.7868
 3262TIP3   OH231200   0.702   0.391  16.372 -0.3415 -0.3192  0.1636
 3262TIP3    H131201   0.645   0.418  16.444 -2.0054  1.1662 -1.5782
 3262TIP3    H231202   0.641   0.363  16.304  1.2068 -2.4723 -0.4146
 3263TIP3   OH231203   2.313   3.509  16.969  0.6354  0.0292 -0.2066
 3263TIP3    H131204   2.320   3.517  16.874 -3.4107 -1.0664 -0.7964
 3263TIP3    H231205   2.221   3.530  16.988  1.2222 -0.0709  3.4658
 3264TIP3   OH231206   4.773   5.550   1.388 -0.6683  0.4077 -0.4278
 3264TIP3    H131207   4.790   5.598   1.307  0.1898  0.9322  0.0471
 3264TIP3    H231208   4.745   5.617   1.450  0.3590  0.2793  0.1883
 3265TIP3   OH231209   4.314   4.972   1.095 -0.0565  0.4556  0.3325
 3265TIP3    H131210   4.313   4.958   1.000  0.7398  0.7251  0.2797
 3265TIP3    H231211   4.286   5.063   1.106  0.4976  0.6307  0.3118
 3266TIP3   OH231212   2.761   2.964  16.024 -0.1709  0.0108 -0.3247
 3266TIP3    H131213   2.785   3.053  16.050  0.9081 -0.4141  0.2043
 3266TIP3    H231214   2.749   2.917  16.107 -0.2931 -0.4425 -0.5969
 3267TIP3   OH231215   1.251   6.237   3.954  0.7647 -0.2762 -0.5462
 3267TIP3    H131216   1.191   6.187   4.008 -0.2295  1.8164  0.4031
 3267TIP3    H231217   1.259   6.187   3.873 -1.2026 -1.2791 -0.1611
 3268TIP3   OH231218   0.791   3.835   0.537  0.4610  0.1288 -0.6239
 3268TIP3    H131219   0.710   3.835   0.587  1.8898  1.2423  1.9028
 3268TIP3    H231220   0.764   3.826   0.446 -2.3290 -1.7343  0.2779
 3269TIP3   OH231221   0.489   1.668  14.291  0.5329 -0.2161 -0.0762
 3269TIP3    H131222   0.475   1.663  14.196  0.9887 -1.6198 -0.0876
 3269TIP3    H231223   0.523   1.582  14.315 -2.0904 -0.8723  1.7983
 3270TIP3   OH231224   6.376   3.814  16.338  0.3537  0.5590  0.5072
 3270TIP3    H131225   6.460   3.809  16.294 -0.0772  0.7719 -0.3523
 3270TIP3    H231226   6.395   3.789  16.429  1.4126  1.0100  0.4245
 3271TIP3   OH231227   4.584   0.644   5.775 -0.0105  0.1068  0.1906
 3271TIP3    H131228   4.521   0.601   5.717 -1.3132  2.4323 -0.2106
 3271TIP3    H231229   4.603   0.728   5.734  1.8968  0.2878  1.2996
 3272TIP3   OH231230   0.935   5.220   3.889  0.0701  0.3255 -0.3037
 3272TIP3    H131231   0.871   5.149   3.901 -0.4063  0.9406  1.0251
 3272TIP3    H231232   1.007   5.197   3.947  0.4872  0.2911 -0.8323
 3273TIP3   OH231233   0.674   4.691  16.461  0.7728  0.1486 -0.3059
 3273TIP3    H131234   0.713   4.646  16.386  0.7366 -0.0333 -0.2166
 3273TIP3    H231235   0.617   4.625  16.501 -0.2297  0.6470 -0.8862
 3274TIP3   OH231236   6.438   1.434   5.458 -0.5319 -0.0503 -0.0203
 3274TIP3    H131237   6.516   1.408   5.408 -0.3969 -1.0931  0.6786
 3274TIP3    H231238   6.470   1.441   5.548 -0.9366  1.0160  0.0501
 3275TIP3   OH231239   5.278   6.448  10.630 -0.0931 -0.1110  0.0126
 3275TIP3    H131240   5.199   6.467  10.579 -0.0508 -1.6921 -0.6740
 3275TIP3    H231241   5.287   6.524  10.688 -2.1641  0.0767  0.1714
 3276TIP3   OH231242   4.472   2.756  15.724  0.5840  0.3854 -0.1046
 3276TIP3    H131243   4.430   2.674  15.696  0.6440  0.7224 -1.2168
 3276TIP3    H231244   4.536   2.774  15.656  1.1777  0.9130  0.5880
 3277TIP3   OH231245   6.334   3.238   2.352  0.0471 -1.0611 -0.2806
 3277TIP3    H131246   6.406   3.263   2.409 -1.8245  1.4565  1.1401
 3277TIP3    H231247   6.370   3.245   2.264  1.1324  1.9939  0.2819
 3278TIP3   OH231248   3.526   0.424  11.713  0.0946  0.4364 -0.2640
 3278TIP3    H131249   3.598   0.373  11.676 -0.6064 -0.8449  0.0830
 3278TIP3    H231250   3.561   0.513  11.721  1.0670  0.2111 -1.6721
 3279TIP3   OH231251   5.849   2.079   1.154  0.5407  0.5114  0.7117
 3279TIP3    H131252   5.792   2.021   1.205 -0.9607 -0.8758 -2.2759
 3279TIP3    H231253   5.916   2.021   1.118  0.7803  1.1793  0.0584
 3280TIP3   OH231254   5.969   6.067  13.450  0.1304  0.0274 -0.0502
 3280TIP3    H131255   5.920   5.995  13.491  1.2895 -1.2881 -0.8539
 3280TIP3    H231256   6.016   6.109  13.521  0.4961 -0.9061  0.2786
 3281TIP3   OH231257   4.610   3.098   3.149  0.6143  0.0049  0.1786
 3281TIP3    H131258   4.642   3.174   3.198  0.0817 -0.5571  1.4565
 3281TIP3    H231259   4.557   3.136   3.079  0.7425  0.8216  0.5082
 3282TIP3   OH231260   5.909   3.583   2.127 -0.5030 -0.5272 -0.4629
 3282TIP3    H131261   5.961   3.653   2.087  0.7626 -0.7108  0.7873
 3282TIP3    H231262   5.877   3.532   2.053 -0.1294  0.4477 -1.3279
 3283TIP3   OH231263   6.100   5.994  11.715  0.2337 -0.6855 -0.0688
 3283TIP3    H131264   6.035   5.960  11.653  0.1259  1.7840 -1.4644
 3283TIP3    H231265   6.168   5.926  11.718 -1.3552 -2.3715 -0.2352
 3284TIP3   OH231266   3.288   2.411   2.814  0.0138  0.0525 -0.1585
 3284TIP3    H131267   3.321   2.344   2.875 -1.1714  0.2853  0.7725
 3284TIP3    H231268   3.195   2.419   2.836 -0.5421 -0.1241 -2.2647
 3285TIP3   OH231269   3.300   4.665  11.341  0.0462 -0.0027 -0.3202
 3285TIP3    H131270   3.314   4.660  11.246 -1.0154 -0.2250 -0.4809
 3285TIP3    H231271   3.314   4.757  11.362 -2.5685  0.7090 -1.2280
 3286TIP3   OH231272   5.475   5.184   3.234  0.0760 -0.2404 -0.0639
 3286TIP3    H131273   5.384   5.215   3.229  0.2091  0.5772  1.7739
 3286TIP3    H231274   5.508   5.222   3.315  1.9848 -0.7718 -0.5587
 3287TIP3   OH231275   4.307   3.210   1.958 -0.0084  0.3422  0.3161
 3287TIP3    H131276   4.298   3.187   2.051  0.6388 -0.2137  0.2481
 3287TIP3    H231277   4.390   3.258   1.953  1.2069 -1.6735 -0.3184
 3288TIP3   OH231278   5.704   0.589   3.925  0.0232 -0.0845 -0.2622
 3288TIP3    H131279   5.651   0.666   3.905 -0.0180 -0.0733 -0.1091
 3288TIP3    H231280   5.660   0.547   3.999 -0.6953 -0.9863 -1.1768
 3289TIP3   OH231281   0.102   3.404  16.575  0.0543 -0.3205 -0.2388
 3289TIP3    H131282   0.062   3.490  16.588  0.0803  0.1424 -2.7326
 3289TIP3    H231283   0.028   3.344  16.568  0.0311 -0.9872  3.5188
 3290TIP3   OH231284   3.330   0.866  15.106 -0.2586 -0.3364  0.4981
 3290TIP3    H131285   3.382   0.935  15.065  1.0042 -2.3155 -1.4864
 3290TIP3    H231286   3.245   0.906  15.123  0.7959  2.0144  0.5967
 3291TIP3   OH231287   4.246   1.238   3.900 -0.6351 -0.0322  0.5605
 3291TIP3    H131288   4.239   1.319   3.850 -0.6053 -0.4870 -0.1951
 3291TIP3    H231289   4.311   1.186   3.853 -0.4375 -0.3743  1.2029
 3292TIP3   OH231290   5.341   5.848  12.720  0.5219  0.3625  0.0203
 3292TIP3    H131291   5.425   5.893  12.730  0.7287  0.0159 -0.1633
 3292TIP3    H231292   5.364   5.756  12.706  0.0769  0.1032  0.9574
 3293TIP3   OH231293   0.558   2.450  12.129 -0.2221 -0.4183  0.5007
 3293TIP3    H131294   0.597   2.390  12.065 -0.7906 -1.3402  1.0037
 3293TIP3    H231295   0.629   2.511  12.149 -0.0350 -0.0948 -1.0064
 3294TIP3   OH231296   3.171   5.260  14.348  0.3943 -0.5930  0.2548
 3294TIP3    H131297   3.120   5.316  14.405 -1.1100  0.7245 -2.2138
 3294TIP3    H231298   3.109   5.192  14.320  0.3777  0.0702 -1.4722
 3295TIP3   OH231299   6.542   5.015  12.923  0.1476 -0.0084  0.2331
 3295TIP3    H131300   6.584   4.932  12.904 -1.6737 -0.6154 -1.4437
 3295TIP3    H231301   6.614   5.076  12.936  1.5246 -1.3364 -0.9084
 3296TIP3   OH231302   1.229   6.136  13.384 -0.7628 -0.0205 -0.1644
 3296TIP3    H131303   1.191   6.091  13.309 -0.4622 -0.0403 -0.3032
 3296TIP3    H231304   1.178   6.216  13.392 -0.9824 -0.1539 -0.2120
 3297TIP3   OH231305   3.536   0.555   0.321 -0.6242  0.3751  0.1113
 3297TIP3    H131306   3.563   0.641   0.354 -1.3888  0.4329  0.6065
 3297TIP3    H231307   3.499   0.510   0.397  0.7664 -0.8298  0.1242
 3298TIP3   OH231308   3.228   6.133  11.448  0.0705  0.6350  0.2310
 3298TIP3    H131309   3.170   6.143  11.523 -2.1317 -2.6509 -0.8099
 3298TIP3    H231310   3.276   6.052  11.465  0.3909  0.4441 -1.3639
 3299TIP3   OH231311   0.094   6.155   4.204 -0.3524 -0.2434  0.0841
 3299TIP3    H131312   0.152   6.180   4.276  0.8664 -0.7390 -0.6838
 3299TIP3    H231313   0.085   6.234   4.152 -0.1332 -0.2400  0.0519
 3300TIP3   OH231314   4.876   0.515   5.278 -0.2358 -0.0946 -0.2612
 3300TIP3    H131315   4.905   0.426   5.301 -1.7969 -0.0646  2.3383
 3300TIP3    H231316   4.916   0.533   5.193 -0.3444 -3.5139 -1.1873
 3301TIP3   OH231317   0.805   1.555  14.260 -0.0716 -0.2124 -0.4631
 3301TIP3    H131318   0.744   1.513  14.199  1.3563  0.0533 -2.1168
 3301TIP3    H231319   0.751   1.619  14.307 -1.3291 -0.8431 -1.0016
 3302TIP3   OH231320   3.805   0.497  14.117 -0.5507 -0.0489 -0.1804
 3302TIP3    H131321   3.751   0.464  14.188  0.1327 -1.5123 -0.3119
 3302TIP3    H231322   3.845   0.577  14.152  0.4586 -1.2028  1.4075
 3303TIP3   OH231323   1.480   3.351   1.882  0.4922  0.3618  1.0570
 3303TIP3    H131324   1.521   3.369   1.798 -1.5971  1.4609  0.1946
 3303TIP3    H231325   1.464   3.256   1.881  0.0371  0.4366 -0.0359
 3304TIP3   OH231326   5.058   3.253   2.025 -0.0865  0.2125 -0.1320
 3304TIP3    H131327   5.074   3.186   1.959  2.1110 -0.1561  0.6793
 3304TIP3    H231328   4.963   3.254   2.036 -0.3288 -1.2291 -1.7173
 3305TIP3   OH231329   2.715   6.184   5.236  0.1427 -0.0316 -0.3691
 3305TIP3    H131330   2.749   6.113   5.182  0.5069  0.8304 -1.3222
 3305TIP3    H231331   2.622   6.190   5.215 -0.3730 -1.5208  1.2422
 3306TIP3   OH231332   3.635   5.770  14.615 -0.6204  0.3490 -0.4424
 3306TIP3    H131333   3.684   5.688  14.618 -0.1209  0.6573  1.0856
 3306TIP3    H231334   3.574   5.764  14.689 -1.3856  0.8820 -1.0142
 3307TIP3   OH231335   3.874   0.864  14.850  0.6439 -0.1070 -0.1829
 3307TIP3    H131336   3.953   0.817  14.825  0.6874  0.7782 -1.8288
 3307TIP3    H231337   3.816   0.855  14.775 -0.6480 -0.3004  0.7949
 3308TIP3   OH231338   3.857   6.059   1.365  0.4248 -0.2993 -0.2580
 3308TIP3    H131339   3.876   6.103   1.282 -4.0179  3.3527  0.2744
 3308TIP3    H231340   3.764   6.040   1.362  0.1728 -0.5103  3.6882
 3309TIP3   OH231341   5.798   1.124   2.770 -0.0014  0.2064  0.0154
 3309TIP3    H131342   5.825   1.074   2.693  0.0077  0.8991 -0.4352
 3309TIP3    H231343   5.877   1.130   2.823  0.0279 -0.1583  0.0121
 3310TIP3   OH231344   0.407   4.023   4.553 -0.2534 -0.6264 -0.2094
 3310TIP3    H131345   0.407   3.949   4.615 -0.4470  0.9297  1.7637
 3310TIP3    H231346   0.491   4.016   4.508  0.8903 -0.6425  1.7887
 3311TIP3   OH231347   3.907   4.717   0.632 -0.1561  0.2386 -0.1168
 3311TIP3    H131348   3.905   4.657   0.558 -0.4508 -1.0775  0.9188
 3311TIP3    H231349   3.941   4.665   0.704 -3.1412  0.3783  1.5729
 3312TIP3   OH231350   4.960   0.131   0.862  0.0207 -0.1916 -0.0762
 3312TIP3    H131351   4.989   0.209   0.909 -0.3104  0.0933 -0.3394
 3312TIP3    H231352   4.869   0.119   0.890  0.5526 -1.4739  1.2763
 3313TIP3   OH231353   4.725   3.225   1.858  0.0353 -0.7801 -0.0511
 3313TIP3    H131354   4.666   3.282   1.906  1.2958  0.9754 -0.4768
 3313TIP3    H231355   4.707   3.137   1.891 -1.8605 -0.1276  0.7450
 3314TIP3   OH231356   2.868   6.793  13.977  0.2843  0.0038  0.6716
 3314TIP3    H131357   2.852   6.840  13.895  1.0736 -0.0365  0.4848
 3314TIP3    H231358   2.962   6.804  13.993  0.2594 -0.5376  1.2273
 3315TIP3   OH231359   5.326   0.385  16.292  0.0478  0.0981 -0.7805
 3315TIP3    H131360   5.235   0.357  16.278  0.3924 -2.4078  1.4476
 3315TIP3    H231361   5.338   0.456  16.228 -3.5233  0.7232 -0.9823
 3316TIP3   OH231362   6.045   0.278   4.421  0.2367 -0.2433 -0.1513
 3316TIP3    H131363   6.123   0.224   4.408  0.1981 -0.7217  1.3826
 3316TIP3    H231364   6.004   0.282   4.335  0.7946 -1.8342 -0.5328
 3317TIP3   OH231365   3.336   4.200   5.635 -0.2959  0.1160 -0.5231
 3317TIP3    H131366   3.277   4.175   5.564 -1.1160  1.5056 -0.3702
 3317TIP3    H231367   3.419   4.156   5.614 -0.9841 -0.7708 -1.4703
 3318TIP3   OH231368   0.611   1.767  13.778  0.3007 -0.4650  0.4155
 3318TIP3    H131369   0.625   1.859  13.756  0.6433 -1.0794 -2.4246
 3318TIP3    H231370   0.523   1.764  13.816  0.0742  0.9704  0.0599
 3319TIP3   OH231371   4.006   6.539  16.704  0.0986 -0.3901 -0.1140
 3319TIP3    H131372   3.982   6.540  16.797  1.2204  3.6050  0.3178
 3319TIP3    H231373   3.922   6.534  16.658 -0.6832  0.2779  1.1719
 3320TIP3   OH231374   4.526   5.732   0.267 -0.7275 -0.2147 -0.2420
 3320TIP3    H131375   4.515   5.684   0.349  0.0668 -0.9659 -0.5612
 3320TIP3    H231376   4.549   5.665   0.203 -1.8315  0.2845 -1.2093
 3321TIP3   OH231377   6.095   1.652  10.871  0.3811 -0.4945 -0.4411
 3321TIP3    H131378   6.170   1.593  10.871  1.7921  1.1951  0.5546
 3321TIP3    H231379   6.090   1.684  10.781  0.3425 -1.2027 -0.6983
 3322TIP3   OH231380   1.709   3.583   0.541  0.7842  0.2876 -0.2705
 3322TIP3    H131381   1.765   3.646   0.496 -0.6142  3.4539  2.0176
 3322TIP3    H231382   1.621   3.620   0.535  0.0303 -0.9300  1.9594
 3323TIP3   OH231383   1.204   4.374   0.167  0.4228 -0.1103  0.1185
 3323TIP3    H131384   1.190   4.350   0.076  0.5038  1.3024 -0.2896
 3323TIP3    H231385   1.283   4.326   0.193 -0.4424 -1.6874 -0.0759
 3324TIP3   OH231386   3.235   1.468  10.377  0.0753  0.0520 -0.2039
 3324TIP3    H131387   3.312   1.450  10.324 -0.9791 -0.6097 -1.5914
 3324TIP3    H231388   3.222   1.388  10.429  0.0414 -0.0420 -0.3550
 3325TIP3   OH231389   6.332   6.671  14.101 -0.0740  0.5954  0.4024
 3325TIP3    H131390   6.377   6.755  14.092  0.8612  0.2073  1.2445
 3325TIP3    H231391   6.293   6.674  14.189 -1.3654  0.7569 -0.1567
 3326TIP3   OH231392   2.121   4.241   0.348 -0.6589  0.6875 -0.0847
 3326TIP3    H131393   2.081   4.178   0.288  0.0079  0.6750 -0.5292
 3326TIP3    H231394   2.137   4.192   0.428  1.9074 -0.3835 -1.1479
 3327TIP3   OH231395   1.731   5.051  15.548 -0.4159  0.9940 -0.3487
 3327TIP3    H131396   1.757   5.013  15.632 -2.3806  1.5789  0.5884
 3327TIP3    H231397   1.801   5.113  15.527 -1.4301  3.3672  2.6250
 3328TIP3   OH231398   4.509   3.916   3.917 -0.1548 -0.6707  0.1855
 3328TIP3    H131399   4.605   3.915   3.907 -0.2781 -1.1206 -1.0802
 3328TIP3    H231400   4.495   3.931   4.010  1.1563 -0.5533  0.3799
 3329TIP3   OH231401   0.839   4.843   2.838  0.3774  0.1395 -0.0846
 3329TIP3    H131402   0.901   4.839   2.911  1.9118  1.7052 -1.2326
 3329TIP3    H231403   0.754   4.861   2.880  1.0547  0.0428  1.3712
 3330TIP3   OH231404   0.825   3.937  17.013 -0.0460  0.1000  0.1393
 3330TIP3    H131405   0.843   3.961  17.104  2.0732 -0.1540 -0.1593
 3330TIP3    H231406   0.739   3.894  17.016  0.0015  0.0512  2.0159
 3331TIP3   OH231407   3.099   1.379   2.687  0.8260 -0.2450  0.0047
 3331TIP3    H131408   3.160   1.320   2.642 -0.2579  0.6612 -2.8663
 3331TIP3    H231409   3.013   1.358   2.650 -0.5882 -0.8401  3.2767
 3332TIP3   OH231410   4.021   6.783   3.491  0.0018  0.5022  0.0826
 3332TIP3    H131411   4.071   6.757   3.413  0.6212  1.3108  0.2003
 3332TIP3    H231412   4.081   6.770   3.564 -0.3543  0.3842  0.3615
 3333TIP3   OH231413   3.145   2.688  13.275 -0.2571 -0.4878  0.2872
 3333TIP3    H131414   3.105   2.732  13.349  1.2182 -1.5312  1.7896
 3333TIP3    H231415   3.123   2.595  13.287 -1.6997 -0.4879 -1.7486
 3334TIP3   OH231416   2.349   5.945   0.107  0.5242  0.1222 -0.8125
 3334TIP3    H131417   2.326   5.962   0.199  0.6989 -0.4852 -0.6535
 3334TIP3    H231418   2.445   5.953   0.105  0.4314  1.3350 -1.2003
 3335TIP3   OH231419   6.030   4.809   5.314  0.0995 -0.1458 -0.3254
 3335TIP3    H131420   6.061   4.817   5.404  0.6892  2.5994 -0.6957
 3335TIP3    H231421   5.962   4.875   5.305 -2.4960 -2.6931 -0.9954
 3336TIP3   OH231422   4.597   5.985   0.260 -0.2552 -0.5668  0.9073
 3336TIP3    H131423   4.688   5.966   0.283 -0.5759  0.6110  3.5622
 3336TIP3    H231424   4.555   5.899   0.252  1.2709 -1.1631 -1.5460
 3337TIP3   OH231425   2.481   5.195   6.171  0.1034  0.1030 -0.4890
 3337TIP3    H131426   2.447   5.130   6.232 -0.0242  0.0881 -0.5755
 3337TIP3    H231427   2.576   5.190   6.181  0.0823  0.1178 -0.2742
 3338TIP3   OH231428   3.710   5.905  15.316  0.1684 -0.6183  0.7203
 3338TIP3    H131429   3.735   5.911  15.409  1.8082 -0.2898  0.2809
 3338TIP3    H231430   3.740   5.987  15.278 -1.2586 -0.3851  0.0421
 3339TIP3   OH231431   5.739   2.113   3.471 -0.4656 -0.0018  0.7889
 3339TIP3    H131432   5.796   2.146   3.402  0.3693 -0.1607  1.3867
 3339TIP3    H231433   5.694   2.039   3.431  0.0469 -0.1243  0.4219
 3340TIP3   OH231434   0.783   1.236  12.178 -0.9058  0.0794 -0.0035
 3340TIP3    H131435   0.830   1.277  12.251  0.5570 -1.5105 -0.0205
 3340TIP3    H231436   0.834   1.259  12.101 -1.7564  0.7041 -0.3930
 3341TIP3   OH231437   2.765   0.398  14.332 -0.1420  0.5411 -0.2373
 3341TIP3    H131438   2.830   0.461  14.363  0.2743  0.3578 -0.7176
 3341TIP3    H231439   2.772   0.401  14.236  1.3362 -1.6742 -0.2926
 3342TIP3   OH231440   4.654   1.970   0.637 -1.3675  0.1514 -0.1140
 3342TIP3    H131441   4.633   1.933   0.552 -1.2845 -0.7092  0.2274
 3342TIP3    H231442   4.711   1.905   0.678 -1.0492  0.7571  0.4246
 3343TIP3   OH231443   6.363   2.521  12.422  0.2894  0.2961  0.3367
 3343TIP3    H131444   6.378   2.440  12.470  1.8588 -0.0559 -0.6618
 3343TIP3    H231445   6.272   2.515  12.393 -0.4334  0.1378  2.4685
 3344TIP3   OH231446   3.053   3.893   2.346  0.1725  0.1720  0.3787
 3344TIP3    H131447   3.141   3.854   2.345  0.2789  0.4163 -0.2874
 3344TIP3    H231448   3.039   3.917   2.437  0.2795 -1.0238  0.7304
 3345TIP3   OH231449   0.205   2.592   4.702 -0.1166  0.2009  0.0659
 3345TIP3    H131450   0.173   2.536   4.631 -0.4276 -0.1564  0.4774
 3345TIP3    H231451   0.144   2.576   4.774  1.1909 -0.8065  1.0069
 3346TIP3   OH231452   0.465   6.677  16.398 -0.4208  0.2986 -0.4773
 3346TIP3    H131453   0.468   6.772  16.412  0.1364  0.0233  1.5040
 3346TIP3    H231454   0.547   6.644  16.435 -0.7870 -1.0029 -0.7618
 3347TIP3   OH231455   0.218   5.224  13.117 -0.1322  0.1781  0.3182
 3347TIP3    H131456   0.203   5.315  13.142 -0.8943 -0.6406  3.1941
 3347TIP3    H231457   0.306   5.204  13.149 -0.4612 -0.4168  0.9007
 3348TIP3   OH231458   4.691   2.159   2.477  0.1240 -0.2887 -0.0876
 3348TIP3    H131459   4.713   2.068   2.456  0.1430  0.0272 -1.5460
 3348TIP3    H231460   4.766   2.189   2.529 -0.3387 -1.3714  1.2837
 3349TIP3   OH231461   5.481   6.676   3.346 -0.6274 -0.1451  0.0919
 3349TIP3    H131462   5.542   6.602   3.345 -0.7720 -0.2854 -1.3467
 3349TIP3    H231463   5.525   6.744   3.295 -0.3694  0.8955  1.6509
 3350TIP3   OH231464   4.399   3.926   1.914 -0.2823 -0.1326 -0.3397
 3350TIP3    H131465   4.458   4.002   1.915 -1.0494  0.5027 -1.2444
 3350TIP3    H231466   4.369   3.920   1.824 -0.9789 -0.9419 -0.0675
 3351TIP3   OH231467   0.538   6.585   1.395 -0.0383 -0.2304  0.6109
 3351TIP3    H131468   0.472   6.653   1.408 -1.3392 -1.5151  0.9366
 3351TIP3    H231469   0.550   6.546   1.481 -1.2732 -2.1207 -0.0088
 3352TIP3   OH231470   3.296   2.813   0.778  0.1463 -0.4893 -0.3108
 3352TIP3    H131471   3.274   2.745   0.715 -0.7405 -0.6619  0.1663
 3352TIP3    H231472   3.366   2.776   0.831  1.0764 -0.2473 -1.3368
 3353TIP3   OH231473   4.889   2.071  15.813 -0.1448  0.1781 -0.0414
 3353TIP3    H131474   4.848   2.157  15.810 -0.1662  0.1910  0.5205
 3353TIP3    H231475   4.885   2.046  15.905 -0.4859 -0.5912 -0.2530
 3354TIP3   OH231476   3.607   0.720  14.215 -0.0369  0.2999 -0.1446
 3354TIP3    H131477   3.694   0.741  14.250 -0.3475  0.1083  0.7443
 3354TIP3    H231478   3.602   0.625  14.221  0.0121  0.2351 -0.9799
 3355TIP3   OH231479   1.066   2.061   0.589  0.6861  0.8578  0.2677
 3355TIP3    H131480   1.089   1.968   0.588  1.4510  0.9784  2.2528
 3355TIP3    H231481   1.130   2.102   0.531  2.4605  0.5317  1.9014
 3356TIP3   OH231482   3.586   6.764  10.768 -0.0449  0.5847 -0.9838
 3356TIP3    H131483   3.613   6.710  10.693  0.8207  2.0390 -1.7641
 3356TIP3    H231484   3.668   6.797  10.804 -0.2825 -1.4687  1.7633
 3357TIP3   OH231485   6.648   3.749  11.058 -0.6339 -0.5503  0.0101
 3357TIP3    H131486   6.706   3.751  10.982  0.2847 -0.6180  0.6913
 3357TIP3    H231487   6.606   3.663  11.053 -2.2366  0.2730 -1.6002
 3358TIP3   OH231488   6.331   1.812   2.348  0.5142  0.3170  0.1051
 3358TIP3    H131489   6.312   1.790   2.257 -0.5623 -0.0576  0.4078
 3358TIP3    H231490   6.417   1.854   2.345  0.3791  0.5337 -1.1047
 3359TIP3   OH231491   3.086   0.137  16.272 -0.2643  0.0535 -0.1769
 3359TIP3    H131492   3.056   0.199  16.338 -0.7052 -1.7709  1.4007
 3359TIP3    H231493   3.026   0.063  16.278  0.4468 -0.7105 -1.7721
 3360TIP3   OH231494   1.615   6.473  12.308  0.8586  0.4929 -0.0531
 3360TIP3    H131495   1.614   6.456  12.214  0.6588 -0.6625  0.1456
 3360TIP3    H231496   1.676   6.409  12.343 -0.0607  0.0304  0.7544
 3361TIP3   OH231497   5.911   2.940  12.091  0.1380  0.2349 -0.3499
 3361TIP3    H131498   5.972   2.888  12.145  1.6835 -1.3532 -3.3574
 3361TIP3    H231499   5.838   2.881  12.075  0.2073  0.2790 -0.8426
 3362TIP3   OH231500   0.774   0.727  16.817  0.0064  0.8504  0.3137
 3362TIP3    H131501   0.680   0.712  16.832  0.5499 -1.2810  2.1107
 3362TIP3    H231502   0.809   0.639  16.803  2.0069  1.4257  1.4207
 3363TIP3   OH231503   0.094   1.644  10.515 -0.6372  0.0198  0.2560
 3363TIP3    H131504   0.124   1.632  10.425  0.7861  0.5140  0.6344
 3363TIP3    H231505   0.044   1.726  10.513 -0.3131  0.2140 -0.0228
 3364TIP3   OH231506   1.744   6.401  16.851 -0.1169  0.8885  0.1715
 3364TIP3    H131507   1.740   6.393  16.947 -1.2047 -1.0623  0.0069
 3364TIP3    H231508   1.697   6.482  16.832 -1.5166  0.3565  1.1845
 3365TIP3   OH231509   2.804   5.837   4.545 -0.1898  0.1123  0.3605
 3365TIP3    H131510   2.793   5.848   4.451 -0.3644  0.2163  0.3917
 3365TIP3    H231511   2.784   5.745   4.562  0.1167  0.0247  0.2587
 3366TIP3   OH231512   2.999   5.660  11.554  0.2704 -0.0204  0.1380
 3366TIP3    H131513   3.017   5.751  11.529  1.5390 -0.5166 -0.8700
 3366TIP3    H231514   3.066   5.609  11.509 -1.6040 -1.6811 -0.9317
 3367TIP3   OH231515   4.822   3.020  15.713  0.7253  0.0692  0.4002
 3367TIP3    H131516   4.735   3.055  15.728  1.3105  1.4823  0.6579
 3367TIP3    H231517   4.854   2.996  15.800  0.5439 -0.6177  0.2869
 3368TIP3   OH231518   4.440   0.051   1.080  0.1344  0.1047  0.4209
 3368TIP3    H131519   4.394   0.022   1.159 -1.2603  0.6466 -0.1526
 3368TIP3    H231520   4.397   0.134   1.057  1.1959  0.4601 -0.3389
 3369TIP3   OH231521   5.777   6.537  12.139 -0.2626 -0.3043 -0.0670
 3369TIP3    H131522   5.719   6.519  12.065 -0.0316 -1.7006  0.0537
 3369TIP3    H231523   5.783   6.453  12.185  0.1465  0.3606  1.1466
 3370TIP3   OH231524   0.540   5.189   0.528  0.3773  0.5043 -0.3580
 3370TIP3    H131525   0.544   5.178   0.623 -0.9415  1.6659 -0.1416
 3370TIP3    H231526   0.447   5.187   0.507  0.5621  1.6760 -1.4326
 3371TIP3   OH231527   3.177   2.925  13.669 -0.2969 -0.1275  0.1870
 3371TIP3    H131528   3.237   2.894  13.601 -0.2382  0.0682  0.1487
 3371TIP3    H231529   3.224   2.998  13.710 -0.0779 -0.6133  0.8237
 3372TIP3   OH231530   0.392   1.035  13.076 -0.2654 -0.5679  0.0524
 3372TIP3    H131531   0.378   1.125  13.107 -2.4177 -0.9809  0.4441
 3372TIP3    H231532   0.397   1.043  12.981  0.9098  0.1087  0.1593
 3373TIP3   OH231533   2.495   0.088  16.719  0.4977  0.2093 -0.3520
 3373TIP3    H131534   2.508   0.178  16.751  1.8037 -0.2161  0.4013
 3373TIP3    H231535   2.558   0.079  16.648  0.5272 -0.1721 -0.2802
 3374TIP3   OH231536   2.578   3.832   2.985 -0.4281  0.3084 -0.4506
 3374TIP3    H131537   2.565   3.859   2.894  0.0506 -0.4174 -0.7425
 3374TIP3    H231538   2.552   3.909   3.036  0.5030  1.1833 -1.2379
 3375TIP3   OH231539   3.599   1.982   5.985 -0.1191 -0.1450  0.2738
 3375TIP3    H131540   3.648   2.062   6.007  1.1806 -1.2978  1.8239
 3375TIP3    H231541   3.654   1.911   6.017 -1.3635 -1.6824 -0.8360
 3376TIP3   OH231542   2.222   0.047  14.268  0.1356 -0.2649  0.8885
 3376TIP3    H131543   2.147   0.050  14.327  0.5651  0.8924  1.4147
 3376TIP3    H231544   2.262   0.134  14.276  0.3885 -0.1880 -0.8673
 3377TIP3   OH231545   3.488   4.738   2.371 -0.3968 -0.1169  0.4198
 3377TIP3    H131546   3.434   4.766   2.297 -0.5513 -0.3411  0.4466
 3377TIP3    H231547   3.456   4.650   2.393 -0.7685  0.1830  1.1362
 3378TIP3   OH231548   4.976   2.009   6.529  0.5514 -0.4265 -0.2380
 3378TIP3    H131549   4.908   1.950   6.496  0.9457 -0.6605 -0.6523
 3378TIP3    H231550   4.929   2.088   6.555 -0.4045 -1.9197  3.0992
 3379TIP3   OH231551   3.309   4.226   0.126 -0.0045  0.5277 -0.1680
 3379TIP3    H131552   3.363   4.150   0.103  1.1302  1.3779 -0.3953
 3379TIP3    H231553   3.225   4.188   0.149  0.5912 -0.8279 -0.0736
 3380TIP3   OH231554   4.002   0.503   0.318 -0.0308  0.3623  0.2623
 3380TIP3    H131555   3.920   0.500   0.367 -0.7649  1.5758 -0.8564
 3380TIP3    H231556   3.994   0.434   0.253 -0.1295  0.4327  0.2001
 3381TIP3   OH231557   3.915   1.399  14.555 -0.4955  0.0259 -0.1064
 3381TIP3    H131558   3.923   1.459  14.630  0.5543  1.8455 -1.5864
 3381TIP3    H231559   4.001   1.402  14.512 -1.1385 -0.7720 -1.5285
 3382TIP3   OH231560   6.144   5.227  13.202  0.8130  0.5141 -0.9168
 3382TIP3    H131561   6.049   5.217  13.192  0.7242  1.4642 -1.1028
 3382TIP3    H231562   6.167   5.167  13.274 -0.0791  1.0033 -0.2016
 3383TIP3   OH231563   3.943   1.514  14.897  0.1482  0.2137 -0.2948
 3383TIP3    H131564   3.975   1.436  14.940 -0.3917 -0.0977 -0.4527
 3383TIP3    H231565   3.853   1.523  14.926  0.0950  0.5739 -0.5578
 3384TIP3   OH231566   0.130   4.728   2.471  0.1419 -0.1664  0.4514
 3384TIP3    H131567   0.128   4.798   2.537  0.4045 -0.3706  0.6780
 3384TIP3    H231568   0.198   4.668   2.502  0.1499 -0.3511  0.0819
 3385TIP3   OH231569   0.314   6.614  10.823 -0.0988  0.3587 -0.2140
 3385TIP3    H131570   0.220   6.616  10.807 -0.5008 -1.0970  1.5877
 3385TIP3    H231571   0.330   6.529  10.862  2.3468 -0.2494 -2.2876
 3386TIP3   OH231572   0.026   4.386  16.806  0.3773 -0.1263  0.0820
 3386TIP3    H131573  -0.008   4.305  16.769  0.1420 -0.5538  1.1913
 3386TIP3    H231574   0.077   4.425  16.736 -2.4835  0.6394 -1.7179
 3387TIP3   OH231575   5.255   2.936   3.610 -0.5143 -0.0639 -0.4617
 3387TIP3    H131576   5.169   2.910   3.577  0.0977 -1.1677 -1.2474
 3387TIP3    H231577   5.286   2.860   3.659 -0.6301  0.8968  1.1751
 3388TIP3   OH231578   3.360   2.352   4.556  0.4581  0.4357  0.3639
 3388TIP3    H131579   3.337   2.353   4.649 -0.5840 -0.3661  0.1439
 3388TIP3    H231580   3.315   2.428   4.519 -1.4277 -0.7733  0.0518
 3389TIP3   OH231581   0.210   6.147   2.574  0.1299  0.3166 -0.2021
 3389TIP3    H131582   0.239   6.056   2.584 -2.1483 -0.7462 -2.4143
 3389TIP3    H231583   0.242   6.173   2.488 -0.6735  1.0468 -0.2879
 3390TIP3   OH231584   6.688   1.619  16.837 -0.2073  0.3804 -0.0370
 3390TIP3    H131585   6.698   1.683  16.767  2.1311  0.1251 -0.0165
 3390TIP3    H231586   6.736   1.656  16.911 -0.3659 -0.5648  0.5582
 3391TIP3   OH231587   2.282   0.188   0.592  0.1157 -0.4470 -0.1045
 3391TIP3    H131588   2.219   0.124   0.626 -1.0872  2.1579  3.1067
 3391TIP3    H231589   2.367   0.152   0.616 -0.5231 -0.9514  1.5509
 3392TIP3   OH231590   6.707   5.852   1.267  0.1402 -0.6712 -0.0161
 3392TIP3    H131591   6.731   5.859   1.360  2.0079  0.9045 -0.5665
 3392TIP3    H231592   6.615   5.880   1.265  0.0579 -0.7467  1.3448
 3393TIP3   OH231593   3.846   3.473  13.517  0.0879 -0.2655  0.9715
 3393TIP3    H131594   3.911   3.539  13.491  0.5304 -0.1791  2.2286
 3393TIP3    H231595   3.844   3.412  13.444  1.4678 -0.1781  0.8285
 3394TIP3   OH231596   3.978   6.023   0.585 -0.4883 -0.3938 -0.0768
 3394TIP3    H131597   4.037   5.949   0.571  0.0058  0.0493 -0.4008
 3394TIP3    H231598   3.929   6.000   0.664 -0.4816 -1.1452 -0.2797
 3395TIP3   OH231599   1.685   2.569  14.930 -0.8049  0.0894 -0.7342
 3395TIP3    H131600   1.738   2.586  15.007 -0.7132  0.5145 -0.8901
 3395TIP3    H231601   1.709   2.480  14.903 -0.4683  0.1307 -0.5693
 3396TIP3   OH231602   6.308   4.432  13.177  0.2321  0.0906  0.1235
 3396TIP3    H131603   6.279   4.478  13.256 -1.2790 -0.8056  0.1244
 3396TIP3    H231604   6.344   4.500  13.121 -0.4821  1.0396  0.7854
 3397TIP3   OH231605   4.998   2.333  11.717  0.3374  0.6226 -0.1033
 3397TIP3    H131606   4.913   2.366  11.690  0.2464  0.8896  0.4908
 3397TIP3    H231607   4.985   2.239  11.730 -0.5066  1.0023  2.3106
 3398TIP3   OH231608   4.874   1.668   4.561 -0.1877 -0.5088  0.2167
 3398TIP3    H131609   4.936   1.665   4.634  0.6222  1.3601 -0.3156
 3398TIP3    H231610   4.919   1.621   4.490  0.1194 -0.1474  0.1722
 3399TIP3   OH231611   2.010   5.393   1.149  0.4864 -0.2074 -0.8955
 3399TIP3    H131612   2.047   5.363   1.066 -1.5206 -0.9880 -1.5527
 3399TIP3    H231613   1.947   5.326   1.173 -0.0226  0.7374  0.5221
 3400TIP3   OH231614   2.440   1.161  10.893  0.2970 -0.1445 -0.0245
 3400TIP3    H131615   2.375   1.155  10.823 -1.2264  0.2829  1.3092
 3400TIP3    H231616   2.497   1.232  10.866  0.0283 -0.2923 -1.0500
 3401TIP3   OH231617   2.360   0.462  12.434  0.7192 -0.0040 -0.1262
 3401TIP3    H131618   2.324   0.515  12.505  0.1540  0.4600 -0.7506
 3401TIP3    H231619   2.284   0.438  12.381  1.2094  0.2053 -0.9412
 3402TIP3   OH231620   1.271   5.211   5.632 -0.2741  0.2516  0.3058
 3402TIP3    H131621   1.240   5.122   5.615 -0.4014  0.3806 -0.1515
 3402TIP3    H231622   1.318   5.205   5.716  2.1249 -0.8383 -1.0041
 3403TIP3   OH231623   2.780   0.755  12.841  0.0316  0.1773  0.3043
 3403TIP3    H131624   2.723   0.831  12.859  0.7489  0.4559  1.5524
 3403TIP3    H231625   2.743   0.715  12.763 -0.8337  1.3703  0.0700
 3404TIP3   OH231626   5.236   4.684  12.689 -0.1480 -0.3631 -0.0151
 3404TIP3    H131627   5.278   4.691  12.603  0.4935 -0.4463  0.2864
 3404TIP3    H231628   5.188   4.766  12.699 -1.3171 -0.8942 -1.0145
 3405TIP3   OH231629   6.768   5.163   2.342  0.2030  0.0866  1.4479
 3405TIP3    H131630   6.700   5.151   2.275  1.5677 -0.8596  0.1776
 3405TIP3    H231631   6.768   5.080   2.390  1.5556 -0.5731  0.3620
 3406TIP3   OH231632   5.664   0.046  14.294  0.4840 -0.1467 -0.1314
 3406TIP3    H131633   5.756   0.062  14.315  0.1122 -0.8129  2.3066
 3406TIP3    H231634   5.665  -0.027  14.233  1.5940  0.5793 -1.0198
 3407TIP3   OH231635   2.744   5.428   3.283 -0.2250  0.1166  0.0847
 3407TIP3    H131636   2.707   5.515   3.294  1.6140  1.0766 -0.7713
 3407TIP3    H231637   2.694   5.390   3.211 -2.3853 -0.3919  1.7635
 3408TIP3   OH231638   4.309   3.597  11.430  0.8535 -0.8519  0.2235
 3408TIP3    H131639   4.302   3.510  11.391  0.1031 -0.6110 -0.2085
 3408TIP3    H231640   4.258   3.592  11.511 -0.8244 -0.3137 -0.7421
 3409TIP3   OH231641   5.535   4.822   2.352 -0.2041  0.2042  0.1297
 3409TIP3    H131642   5.467   4.889   2.343 -2.2135 -1.6007  0.9295
 3409TIP3    H231643   5.494   4.754   2.404  1.0698 -2.5315 -2.1847
 3410TIP3   OH231644   0.737   4.260  16.950  0.2314  0.0894  0.1011
 3410TIP3    H131645   0.654   4.239  16.992  0.5657 -0.6577  0.3951
 3410TIP3    H231646   0.800   4.201  16.991  1.1180  1.3957  0.6633
 3411TIP3   OH231647   2.533   0.271   5.489 -0.1827  0.5369  0.1078
 3411TIP3    H131648   2.505   0.361   5.472 -2.6246  0.2748  2.1897
 3411TIP3    H231649   2.623   0.280   5.519 -0.7341  2.4503  1.3571
 3412TIP3   OH231650   0.269   4.966   4.551 -0.6874  0.4943  0.4896
 3412TIP3    H131651   0.332   4.979   4.480 -0.6812  1.8922  0.7294
 3412TIP3    H231652   0.183   4.975   4.509 -0.7144 -0.0180  0.4244
 3413TIP3   OH231653   6.588   5.286  13.064  0.3578 -0.5639 -0.1681
 3413TIP3    H131654   6.624   5.293  12.976 -1.3202  1.0312 -0.7959
 3413TIP3    H231655   6.494   5.273  13.051 -0.1740  1.2424  1.3410
 3414TIP3   OH231656   0.265   4.263  15.365 -0.2138  0.8764 -0.0463
 3414TIP3    H131657   0.208   4.340  15.360  0.9557  1.6976 -2.3140
 3414TIP3    H231658   0.346   4.296  15.406 -0.7329  0.0742  1.7521
 3415TIP3   OH231659   5.035   4.444  14.972 -0.2528  0.3347  0.7326
 3415TIP3    H131660   5.049   4.382  15.043 -1.8826 -0.1402  0.6803
 3415TIP3    H231661   5.118   4.444  14.924  0.6677  0.2084  2.2504
 3416TIP3   OH231662   5.260   1.223  14.160 -0.1378 -0.6567 -0.4371
 3416TIP3    H131663   5.333   1.247  14.103  0.2273  0.0142  0.2939
 3416TIP3    H231664   5.198   1.180  14.102 -0.0933  0.6399 -1.5006
 3417TIP3   OH231665   2.733   1.185   1.916 -0.2289 -0.0188  0.2599
 3417TIP3    H131666   2.816   1.205   1.959 -0.7521  1.2579  0.6985
 3417TIP3    H231667   2.677   1.260   1.933 -1.9728 -1.4341  1.1629
 3418TIP3   OH231668   4.983   3.026  12.471 -0.0821 -0.0338 -0.2829
 3418TIP3    H131669   4.918   3.069  12.527  1.0645 -2.2212  3.0163
 3418TIP3    H231670   5.056   3.087  12.469 -1.0633  1.1637 -1.5924
 3419TIP3   OH231671   3.365   6.765  15.582 -0.5057 -1.0474 -0.1612
 3419TIP3    H131672   3.460   6.752  15.580 -0.2313  0.7605 -0.3892
 3419TIP3    H231673   3.341   6.761  15.674 -0.0306 -0.4037 -0.0074
 3420TIP3   OH231674   5.510   0.675  16.699 -0.0058  0.1316 -0.0016
 3420TIP3    H131675   5.592   0.635  16.670  0.0597  0.4289 -0.2254
 3420TIP3    H231676   5.482   0.621  16.773  1.1167  0.8453  0.9862
 3421TIP3   OH231677   4.366   2.711   0.695 -0.5109 -0.2596 -0.4818
 3421TIP3    H131678   4.417   2.747   0.622  1.0851 -0.0085  0.6941
 3421TIP3    H231679   4.406   2.626   0.712  0.5296  0.5406  1.3685
 3422TIP3   OH231680   0.731   4.434   4.665  0.4899 -0.3592  0.8185
 3422TIP3    H131681   0.691   4.509   4.709  0.0159  0.0461 -0.2914
 3422TIP3    H231682   0.814   4.468   4.632  0.7601 -0.6164  1.2188
 3423TIP3   OH231683   4.352   0.232  16.219  0.6897  0.2511 -0.4177
 3423TIP3    H131684   4.338   0.323  16.245 -1.5745  0.0398 -0.7216
 3423TIP3    H231685   4.361   0.235  16.124 -0.8706  0.0568 -0.6012
 3424TIP3   OH231686   1.216   6.649   1.093 -0.0154  0.0696 -0.5241
 3424TIP3    H131687   1.216   6.697   1.010 -0.3341 -1.5345 -1.4952
 3424TIP3    H231688   1.177   6.710   1.156 -1.1574  0.8107 -1.8801
 3425TIP3   OH231689   6.677   0.937   3.153  0.5325  0.1087 -0.9785
 3425TIP3    H131690   6.745   0.980   3.205  0.2268 -0.4961 -0.0420
 3425TIP3    H231691   6.684   0.845   3.177  1.2341 -0.4085 -3.0233
 3426TIP3   OH231692   4.454   3.325   4.497  0.3232  0.2835  0.0219
 3426TIP3    H131693   4.389   3.264   4.463  0.0928  0.3261  0.3830
 3426TIP3    H231694   4.499   3.277   4.566 -1.7094  1.3742  2.2506
 3427TIP3   OH231695   0.814   4.278  14.330 -0.0390 -0.1122  0.1800
 3427TIP3    H131696   0.771   4.196  14.355  1.5244 -1.5145 -1.3765
 3427TIP3    H231697   0.904   4.269  14.362  1.2468 -0.7913 -3.1181
 3428TIP3   OH231698   1.698   2.840  14.103 -0.1724  0.5595  0.1263
 3428TIP3    H131699   1.632   2.786  14.061  1.4544 -1.2237 -0.2720
 3428TIP3    H231700   1.778   2.826  14.051  0.7571  1.9656  1.0778
 3429TIP3   OH231701   3.115   4.661   0.461  0.6772  0.2171  0.0828
 3429TIP3    H131702   3.183   4.721   0.431  2.0387  0.6626  3.5616
 3429TIP3    H231703   3.140   4.576   0.425  2.1965  0.6795 -0.0388
 3430TIP3   OH231704   5.817   5.881   3.554  0.8628  0.0925  0.3812
 3430TIP3    H131705   5.756   5.883   3.480  0.2435  0.8260  0.8980
 3430TIP3    H231706   5.880   5.950   3.535 -0.3093  1.4920  1.3534
 3431TIP3   OH231707   2.770   1.996  13.969 -0.6583 -0.1849  0.0448
 3431TIP3    H131708   2.733   2.014  14.056  1.4777  0.6000  0.8645
 3431TIP3    H231709   2.808   1.908  13.978  1.4993  0.7433  0.6898
 3432TIP3   OH231710   2.591   1.352  11.362  0.3116 -0.2820 -0.0149
 3432TIP3    H131711   2.601   1.316  11.274 -0.5129  0.5193 -0.4498
 3432TIP3    H231712   2.564   1.277  11.416 -1.6839 -0.2990 -0.9636
 3433TIP3   OH231713   3.732   4.697  12.048 -0.2326 -0.4297 -0.6033
 3433TIP3    H131714   3.713   4.781  12.005  0.3794  0.6828  1.2083
 3433TIP3    H231715   3.753   4.720  12.138  1.4377 -2.4076 -0.4252
 3434TIP3   OH231716   2.310   1.398  14.489  0.1758  0.7150 -0.2177
 3434TIP3    H131717   2.392   1.447  14.496 -0.7067  2.2228 -0.0574
 3434TIP3    H231718   2.291   1.371  14.579  0.4004  0.5300 -0.2255
 3435TIP3   OH231719   4.722   2.421  10.862  0.5461 -0.2787  0.1599
 3435TIP3    H131720   4.752   2.353  10.922 -0.9738  1.7473  3.4886
 3435TIP3    H231721   4.792   2.429  10.797  1.9089 -3.1882  1.1290
 3436TIP3   OH231722   3.444   5.775  14.817  0.5392  0.2672  0.6733
 3436TIP3    H131723   3.414   5.762  14.907  0.2991  0.9041  0.6841
 3436TIP3    H231724   3.365   5.768  14.764  1.0067 -3.2897  0.1358
 3437TIP3   OH231725   0.660   5.728  16.854  0.1056 -0.1554  0.1211
 3437TIP3    H131726   0.602   5.789  16.808  0.6268  0.6564  0.5202
 3437TIP3    H231727   0.744   5.774  16.859  0.1816 -0.4142  1.4750
 3438TIP3   OH231728   0.485   0.357   0.488 -0.1298  0.1382 -0.4319
 3438TIP3    H131729   0.565   0.348   0.435  0.7875 -3.1227  1.2285
 3438TIP3    H231730   0.491   0.445   0.525  0.3264  1.6784 -3.7946
 3439TIP3   OH231731   4.666   1.233   1.643  0.4385  0.9050  0.5338
 3439TIP3    H131732   4.676   1.192   1.557 -0.7849  0.1625  0.7208
 3439TIP3    H231733   4.577   1.266   1.645  1.2900  3.4640  0.4957
 3440TIP3   OH231734   5.857   3.678  14.976  0.4900  0.4982 -0.3764
 3440TIP3    H131735   5.813   3.719  15.050 -3.4380  0.4622 -2.4002
 3440TIP3    H231736   5.922   3.621  15.015 -0.1852  1.7467  2.9238
 3441TIP3   OH231737   5.226   4.888  11.749 -0.6588 -0.2472  0.1113
 3441TIP3    H131738   5.146   4.940  11.754 -1.0361 -0.6995 -0.9609
 3441TIP3    H231739   5.296   4.952  11.736 -0.8202  0.1577  1.1633
 3442TIP3   OH231740   0.103   2.476   5.068 -0.6977  0.3615 -0.5552
 3442TIP3    H131741   0.021   2.454   5.022 -0.4230  0.0333 -0.8942
 3442TIP3    H231742   0.075   2.530   5.142 -1.2536  0.0193 -0.5055
 3443TIP3   OH231743   3.096   1.482  11.431 -0.3514  0.2272  0.5986
 3443TIP3    H131744   3.087   1.533  11.512 -0.1825  0.1757  0.6501
 3443TIP3    H231745   3.014   1.434  11.424  0.3555 -1.2033  1.7291
 3444TIP3   OH231746   6.259   0.500  12.938 -0.1562  0.2328 -0.1764
 3444TIP3    H131747   6.232   0.420  12.893 -0.1589  0.5991 -0.8503
 3444TIP3    H231748   6.198   0.566  12.906  0.2288  0.6281 -0.0975
 3445TIP3   OH231749   6.749   0.598  13.145  0.7716 -0.4060  0.1134
 3445TIP3    H131750   6.806   0.632  13.215  0.2147  0.4008  0.1964
 3445TIP3    H231751   6.690   0.537  13.190  1.4145 -1.0743  0.0655
 3446TIP3   OH231752   4.633   3.827  13.394 -0.3810 -0.2956 -0.1658
 3446TIP3    H131753   4.546   3.795  13.414  0.3243 -2.0125  0.2711
 3446TIP3    H231754   4.656   3.882  13.469  0.4864 -3.1301  1.7771
 3447TIP3   OH231755   3.282   4.101   5.338 -0.1826  0.7038 -0.3060
 3447TIP3    H131756   3.275   4.126   5.245 -1.0618  1.4122 -0.0674
 3447TIP3    H231757   3.356   4.041   5.341  0.0904  0.9554 -1.4145
 3448TIP3   OH231758   0.990   1.312  16.695 -0.0258 -0.0893  0.2586
 3448TIP3    H131759   0.922   1.346  16.754 -0.4959  0.2128 -0.4401
 3448TIP3    H231760   1.065   1.296  16.752 -0.1045  1.2251  0.7726
 3449TIP3   OH231761   3.257   5.201   5.583 -0.3573 -0.0488 -0.3929
 3449TIP3    H131762   3.210   5.259   5.643 -1.4743  0.1679 -1.4222
 3449TIP3    H231763   3.338   5.248   5.562 -1.9374  1.9902 -2.4426
 3450TIP3   OH231764   5.203   1.450   5.386  0.3077 -0.1340  0.2452
 3450TIP3    H131765   5.226   1.358   5.396  0.3933  0.0153  1.5465
 3450TIP3    H231766   5.179   1.459   5.294 -0.0235 -1.5183  0.1836
 3451TIP3   OH231767   2.184   5.333   3.340  0.1616  0.1163  0.0489
 3451TIP3    H131768   2.147   5.420   3.321 -0.6626 -0.4770 -1.2325
 3451TIP3    H231769   2.175   5.285   3.257 -0.8933 -1.7219  1.1612
 3452TIP3   OH231770   0.221   4.931  11.262 -0.2570 -0.2380 -0.3445
 3452TIP3    H131771   0.230   4.975  11.177  0.2391 -3.2999 -2.0162
 3452TIP3    H231772   0.133   4.894  11.261  0.3324 -1.6860 -0.2623
 3453TIP3   OH231773   4.750   4.332  15.758  0.4264  0.0942  0.5118
 3453TIP3    H131774   4.803   4.407  15.787 -1.0855  2.2030 -1.7316
 3453TIP3    H231775   4.663   4.351  15.792  0.2098 -1.1719  0.6962
 3454TIP3   OH231776   2.235   5.613   1.441 -0.2318 -0.0017 -0.0357
 3454TIP3    H131777   2.176   5.619   1.366  0.8383 -0.7731 -0.9882
 3454TIP3    H231778   2.262   5.521   1.442  0.1054  0.0942  1.0525
 3455TIP3   OH231779   3.642   1.062  11.176 -0.8390 -0.3210 -0.6085
 3455TIP3    H131780   3.661   1.104  11.093 -1.1342  1.5071  0.2030
 3455TIP3    H231781   3.554   1.093  11.199 -1.0025 -1.2761  0.1005
 3456TIP3   OH231782   4.471   5.466  15.427 -0.3612 -0.8840 -0.0623
 3456TIP3    H131783   4.508   5.442  15.512  2.2163 -0.4458 -0.9820
 3456TIP3    H231784   4.528   5.536  15.395 -2.6774  0.6427 -1.1482
 3457TIP3   OH231785   5.201   1.970  13.063  0.5076  0.4915 -0.6633
 3457TIP3    H131786   5.194   1.899  13.000  2.1495 -1.3430  1.0787
 3457TIP3    H231787   5.119   1.969  13.111 -0.1294  0.8938 -1.7125
 3458TIP3   OH231788   5.087   2.947   3.293 -0.1508  0.1040 -0.2993
 3458TIP3    H131789   5.019   3.000   3.250 -0.4857  0.9772  1.2196
 3458TIP3    H231790   5.148   2.925   3.222 -0.2829  2.1009 -1.1108
 3459TIP3   OH231791   6.335   6.040  14.832  0.0184  0.5205  0.5812
 3459TIP3    H131792   6.257   5.988  14.813  1.1397 -0.3824 -2.0361
 3459TIP3    H231793   6.311   6.129  14.807  0.2009 -0.0007 -1.7061
 3460TIP3   OH231794   2.162   2.482   1.483 -0.1147  0.1836 -0.1135
 3460TIP3    H131795   2.229   2.415   1.500  0.0379  0.1649 -0.7709
 3460TIP3    H231796   2.195   2.560   1.527  1.5705  0.8618 -2.4181
 3461TIP3   OH231797   4.799   4.873   4.004  0.1229 -0.3848 -0.1677
 3461TIP3    H131798   4.841   4.952   3.971 -1.6807  0.6645 -0.0849
 3461TIP3    H231799   4.763   4.830   3.926  0.5295 -0.7813 -0.1408
 3462TIP3   OH231800   6.232   5.089  12.258 -0.1529  0.5889  0.1475
 3462TIP3    H131801   6.175   5.134  12.320  1.8419  0.0353  2.5138
 3462TIP3    H231802   6.249   5.154  12.190 -1.9238  1.4227  0.4627
 3463TIP3   OH231803   6.302   4.319   2.310 -0.1065  0.1442  0.3859
 3463TIP3    H131804   6.263   4.407   2.312  1.0652  0.7031 -0.2470
 3463TIP3    H231805   6.311   4.299   2.217 -0.8511 -0.8996  0.5150
 3464TIP3   OH231806   2.730   3.814   0.578  0.4525  0.0030  0.2050
 3464TIP3    H131807   2.824   3.806   0.595  1.1022 -0.7086 -3.0158
 3464TIP3    H231808   2.713   3.750   0.509 -2.0850  1.2319 -0.4204
 3465TIP3   OH231809   0.237   4.024   3.688 -0.1631 -0.2263 -0.1439
 3465TIP3    H131810   0.330   4.005   3.698  0.0163  0.8449  0.3320
 3465TIP3    H231811   0.193   3.945   3.720  0.5620 -0.3719  0.5380
 3466TIP3   OH231812   6.302   2.315   4.981  0.1942 -0.1159 -0.2268
 3466TIP3    H131813   6.363   2.246   5.008 -1.1700 -1.1292  0.4147
 3466TIP3    H231814   6.275   2.291   4.893 -1.6381 -1.4734  0.6369
 3467TIP3   OH231815   4.452   6.316  15.585  0.0377 -0.5103 -0.2604
 3467TIP3    H131816   4.465   6.280  15.497  2.9926  1.6435 -0.8631
 3467TIP3    H231817   4.509   6.264  15.641 -0.1754 -0.4972 -0.0333
 3468TIP3   OH231818   6.189   4.248  15.816  0.4366 -0.0452  0.6212
 3468TIP3    H131819   6.240   4.167  15.813  1.2075  0.3924  1.5104
 3468TIP3    H231820   6.209   4.293  15.735 -1.1131 -1.3716 -0.5854
 3469TIP3   OH231821   1.221   0.616   4.850  0.3184  0.2661 -0.1378
 3469TIP3    H131822   1.180   0.636   4.766  0.5517 -1.0447 -0.5820
 3469TIP3    H231823   1.268   0.696   4.873  0.1405  0.6864 -1.1816
 3470TIP3   OH231824   2.399   3.719  12.681  0.0493  0.5633  0.1613
 3470TIP3    H131825   2.487   3.742  12.711 -0.0873 -0.7096  1.6758
 3470TIP3    H231826   2.347   3.713  12.761 -1.1101  0.0474 -0.6008
 3471TIP3   OH231827   2.897   6.304   2.513  0.0039 -0.4589 -0.0462
 3471TIP3    H131828   2.843   6.229   2.536  1.8108 -1.2207  2.0104
 3471TIP3    H231829   2.936   6.332   2.596 -0.9303  3.0933 -0.6168
 3472TIP3   OH231830   4.366   4.625  15.017  0.2156  0.2222  0.0212
 3472TIP3    H131831   4.365   4.704  14.963  2.5018 -0.2706 -0.8491
 3472TIP3    H231832   4.363   4.553  14.953 -1.0925 -0.4120  0.7703
 3473TIP3   OH231833   5.345   2.726   5.283 -0.8679 -0.2574  0.3680
 3473TIP3    H131834   5.411   2.662   5.256 -0.0075 -0.0541  1.8610
 3473TIP3    H231835   5.267   2.673   5.301 -1.1401 -0.5054 -1.3804
 3474TIP3   OH231836   1.072   2.811  16.832  0.6958 -0.3328  0.2830
 3474TIP3    H131837   1.087   2.904  16.850 -0.9570 -0.2519  1.4339
 3474TIP3    H231838   0.981   2.806  16.803  0.8828 -1.5593 -0.1833
 3475TIP3   OH231839   3.985   6.696   1.085  0.3342 -0.5605  0.0304
 3475TIP3    H131840   3.931   6.766   1.048  1.5178 -0.4625 -1.6119
 3475TIP3    H231841   4.049   6.676   1.017  1.8322 -1.2848  1.5755
 3476TIP3   OH231842   3.541   3.662   4.100  0.0185 -0.1301 -0.0339
 3476TIP3    H131843   3.542   3.658   4.195  1.5524  1.2543  0.0462
 3476TIP3    H231844   3.454   3.630   4.075 -0.4192 -0.4613  1.8115
 3477TIP3   OH231845   2.291   6.395   0.606  0.9259 -0.2150 -0.5915
 3477TIP3    H131846   2.270   6.404   0.513 -0.6725 -0.1527 -0.2472
 3477TIP3    H231847   2.315   6.303   0.616  0.2703 -0.4250 -0.9187
 3478TIP3   OH231848   2.550   1.085   5.204  0.2323  0.3363  0.7890
 3478TIP3    H131849   2.491   1.132   5.262 -0.9870 -0.9320  0.6451
 3478TIP3    H231850   2.600   1.027   5.261 -0.0480  0.0237  0.7236
 3479TIP3   OH231851   2.123   5.548   1.972  0.1093  0.3618 -0.0279
 3479TIP3    H131852   2.111   5.632   1.927 -1.9518 -0.8690 -1.9429
 3479TIP3    H231853   2.037   5.528   2.008  0.7000 -0.7280  0.8250
 3480TIP3   OH231854   2.103   5.480   4.132 -0.4199 -0.8903 -0.5273
 3480TIP3    H131855   2.183   5.452   4.176 -0.2085 -0.7199 -0.7987
 3480TIP3    H231856   2.131   5.549   4.072 -1.0120  0.2829  0.5035
 3481TIP3   OH231857   5.248   5.229   1.686 -0.3393 -0.3757  0.0977
 3481TIP3    H131858   5.200   5.299   1.731 -0.4440  0.3583 -1.1237
 3481TIP3    H231859   5.320   5.274   1.641 -0.0926 -1.1224 -0.2840
 3482TIP3   OH231860   1.620   0.605   1.617 -0.2313  0.7554  0.2869
 3482TIP3    H131861   1.709   0.635   1.603  0.1891 -0.0800  1.0747
 3482TIP3    H231862   1.625   0.547   1.693 -0.7676 -2.4079 -1.8950
 3483TIP3   OH231863   0.071   2.488  16.570 -0.2630  0.4751  0.5841
 3483TIP3    H131864   0.142   2.447  16.620 -0.7423  0.4057  1.2119
 3483TIP3    H231865   0.097   2.477  16.479  1.7611  2.5845  0.8130
 3484TIP3   OH231866   4.968   4.767   0.095  0.3702  0.0629 -0.0386
 3484TIP3    H131867   4.978   4.672   0.093 -0.8625 -0.0657 -0.5211
 3484TIP3    H231868   5.045   4.797   0.144  0.5193 -1.2111  0.5644
 3485TIP3   OH231869   4.282   4.679   2.185  0.0079 -0.2155 -0.1045
 3485TIP3    H131870   4.211   4.615   2.178 -1.3703  1.3201 -0.9841
 3485TIP3    H231871   4.254   4.738   2.255  1.4519 -0.7326  0.9714
 3486TIP3   OH231872   2.040   4.950  11.355  0.2011  0.0012 -0.0083
 3486TIP3    H131873   2.007   4.882  11.414  0.0920 -0.1489 -0.2435
 3486TIP3    H231874   2.034   5.030  11.406 -0.0219 -0.1082  0.1395
 3487TIP3   OH231875   6.369   0.964   2.027  0.2572  0.3604  0.2052
 3487TIP3    H131876   6.303   0.973   1.958 -0.4946  0.6519  0.9443
 3487TIP3    H231877   6.318   0.959   2.108  1.1446  0.5659  0.7896
 3488TIP3   OH231878   0.973   5.381  13.224 -0.3857 -0.6590 -0.1041
 3488TIP3    H131879   0.997   5.352  13.312  3.1727 -0.6172 -0.9036
 3488TIP3    H231880   0.932   5.467  13.237  1.4786  0.0607  1.4849
 3489TIP3   OH231881   4.376   2.856   4.338 -0.5521 -0.2013 -0.2310
 3489TIP3    H131882   4.449   2.794   4.329  0.0525  0.6269 -1.1598
 3489TIP3    H231883   4.306   2.818   4.285 -0.3981 -0.4001 -0.2920
 3490TIP3   OH231884   1.095   0.375   3.993 -0.1652  0.6314  0.9714
 3490TIP3    H131885   1.172   0.352   4.045  2.3109  2.3246 -1.5656
 3490TIP3    H231886   1.092   0.308   3.925  0.4649  1.6805 -0.1517
 3491TIP3   OH231887   5.313   3.412  14.148  0.4106 -0.1353  0.3832
 3491TIP3    H131888   5.339   3.369  14.230 -1.1647  0.1762  1.1026
 3491TIP3    H231889   5.225   3.377  14.131  1.0413 -0.8385 -1.6692
 3492TIP3   OH231890   1.819   1.108   5.339  0.3050 -0.9324 -0.1717
 3492TIP3    H131891   1.909   1.110   5.306 -0.0871  0.0726 -1.2747
 3492TIP3    H231892   1.803   1.196   5.372 -0.3373 -1.0456 -0.1592
 3493TIP3   OH231893   0.310   1.946   3.124 -0.4493 -0.0413  1.4611
 3493TIP3    H131894   0.355   2.001   3.059 -0.6539 -2.8509 -1.2682
 3493TIP3    H231895   0.219   1.944   3.094 -0.1714 -2.9526  0.5087
 3494TIP3   OH231896   5.771   4.474   5.357 -0.4116 -0.0620  0.4916
 3494TIP3    H131897   5.791   4.512   5.443 -0.1082 -0.6494  0.6862
 3494TIP3    H231898   5.702   4.530   5.321 -2.4678 -1.3290  2.2463
 3495TIP3   OH231899   0.444   2.700   1.523  0.2572 -0.0738 -0.3162
 3495TIP3    H131900   0.363   2.650   1.532  0.7871 -0.5809  2.8747
 3495TIP3    H231901   0.510   2.635   1.498  0.0908 -0.0477 -0.8392
 3496TIP3   OH231902   0.518   4.705  13.737  0.2578 -0.3706  0.1298
 3496TIP3    H131903   0.549   4.740  13.654  0.1044 -1.1775 -0.2796
 3496TIP3    H231904   0.568   4.625  13.750 -0.9516 -1.1876 -0.0754
 3497TIP3   OH231905   3.620   1.357  14.342 -0.0674  0.0321 -0.0870
 3497TIP3    H131906   3.671   1.438  14.337 -0.5036  0.2366 -1.6390
 3497TIP3    H231907   3.684   1.287  14.328  0.2416  0.1138  0.8503
 3498TIP3   OH231908   3.820   6.699   1.318  0.0126 -0.2051 -0.4435
 3498TIP3    H131909   3.849   6.664   1.234 -1.6186 -1.6390 -0.4667
 3498TIP3    H231910   3.812   6.793   1.303  1.0464 -0.2613 -1.4707
 3499TIP3   OH231911   6.739   0.145  14.632  0.1817 -0.1815 -0.0055
 3499TIP3    H131912   6.674   0.104  14.689 -0.0303 -0.4241 -0.4135
 3499TIP3    H231913   6.716   0.238  14.632 -0.1839 -0.2727 -0.1730
 3500TIP3   OH231914   5.128   4.781  10.881  0.2281  0.1200 -0.3897
 3500TIP3    H131915   5.146   4.875  10.878  0.5474  0.2403  2.3715
 3500TIP3    H231916   5.193   4.746  10.942 -1.8938 -1.2738  1.2586
 3501TIP3   OH231917   3.093   6.364  14.451  0.2757  0.3611  0.0796
 3501TIP3    H131918   3.140   6.436  14.409 -0.1344  0.0688 -0.9215
 3501TIP3    H231919   3.162   6.311  14.491  0.6828  0.6853 -0.1866
 3502TIP3   OH231920   0.161   5.282  14.698 -0.0275  0.0750 -0.3390
 3502TIP3    H131921   0.141   5.369  14.663 -0.5083  0.0567 -0.1164
 3502TIP3    H231922   0.197   5.234  14.623  1.0641  0.7298 -0.2465
 3503TIP3   OH231923   5.835   2.959  12.431  0.3208  0.2402  0.3325
 3503TIP3    H131924   5.753   2.918  12.403  0.3900  0.2141  0.1620
 3503TIP3    H231925   5.902   2.915  12.378  0.3979  0.5453  0.1750
 3504TIP3   OH231926   3.652   0.150  13.918  0.0169 -0.0725 -0.6893
 3504TIP3    H131927   3.569   0.102  13.915 -0.5255  0.7279  0.6725
 3504TIP3    H231928   3.635   0.231  13.871 -0.0242  0.1656 -0.2662
 3505TIP3   OH231929   6.265   3.636  12.850  0.6080  0.1758  0.4824
 3505TIP3    H131930   6.330   3.569  12.828 -0.1984 -0.3452 -0.3798
 3505TIP3    H231931   6.206   3.592  12.911 -1.1084 -0.6351 -1.6204
 3506TIP3   OH231932   5.085   4.918   2.660  0.5758  0.4198  0.7915
 3506TIP3    H131933   5.075   5.013   2.666  0.3790  0.3446  1.7670
 3506TIP3    H231934   5.179   4.904   2.654  0.6439  0.6468  1.2896
 3507TIP3   OH231935   2.918   5.209   4.394 -0.1032 -0.3191 -0.1272
 3507TIP3    H131936   2.834   5.196   4.438 -0.4802 -0.6492 -0.9289
 3507TIP3    H231937   2.977   5.241   4.463 -1.3468  1.7262  0.0787
 3508TIP3   OH231938   6.698   4.570  16.614  0.4257 -0.6520  0.4273
 3508TIP3    H131939   6.792   4.584  16.609  0.4286 -1.0545 -1.4822
 3508TIP3    H231940   6.663   4.651  16.652  1.3050  0.6846 -1.4443
 3509TIP3   OH231941   4.049   6.711   4.748 -0.6465  0.0114  0.1551
 3509TIP3    H131942   4.021   6.699   4.658 -2.7356  0.4601  0.6983
 3509TIP3    H231943   4.079   6.624   4.776 -0.8749 -0.3367 -0.6602
 3510TIP3   OH231944   3.066   2.527   1.920  0.2915  0.1728  0.3094
 3510TIP3    H131945   3.065   2.570   1.834  1.3479 -0.2802  0.0509
 3510TIP3    H231946   3.088   2.436   1.900  0.6495  0.0884  1.0639
 3511TIP3   OH231947   0.686   5.756   0.915  0.2858  0.2947 -0.7902
 3511TIP3    H131948   0.655   5.840   0.880 -0.2305  0.2020 -0.5630
 3511TIP3    H231949   0.635   5.744   0.995  0.5974 -0.0785 -0.6458
 3512TIP3   OH231950   3.381   5.435   4.136  0.0501  0.1069  0.3512
 3512TIP3    H131951   3.369   5.360   4.194 -1.0645  0.3125  0.4249
 3512TIP3    H231952   3.292   5.466   4.120  0.4303  0.7962 -0.4939
 3513TIP3   OH231953   3.455   0.971   2.141  0.0583 -0.7527 -0.8150
 3513TIP3    H131954   3.462   0.900   2.077 -3.3777 -2.8678  0.8618
 3513TIP3    H231955   3.364   1.000   2.134  0.0588  0.1312  1.8693
 3514TIP3   OH231956   4.736   6.630  15.851 -0.2219  0.4928 -0.0236
 3514TIP3    H131957   4.672   6.592  15.911 -0.4075  2.2719  0.9968
 3514TIP3    H231958   4.708   6.600  15.764 -0.6567 -1.1622  0.6472
 3515TIP3   OH231959   1.282   0.751  15.130 -0.6607  0.0816  0.2046
 3515TIP3    H131960   1.274   0.842  15.159 -0.4486  0.2031 -0.1162
 3515TIP3    H231961   1.376   0.738  15.115 -0.8533  0.3664 -1.4872
 3516TIP3   OH231962   0.995   2.494   6.127 -0.3040 -0.0518  0.2137
 3516TIP3    H131963   1.079   2.522   6.092 -1.0510  1.1623 -0.7003
 3516TIP3    H231964   0.939   2.571   6.119 -1.3586 -0.6711  1.3058
 3517TIP3   OH231965   5.196   2.847   6.004  1.2570 -0.3225  0.1986
 3517TIP3    H131966   5.281   2.884   5.978  0.5179  0.3273 -1.4021
 3517TIP3    H231967   5.209   2.820   6.095  2.7484  1.1070  0.4647
 3518TIP3   OH231968   1.919   5.243   6.237 -0.6232 -0.1632 -0.1995
 3518TIP3    H131969   1.978   5.279   6.302 -0.0023 -0.9700 -0.3037
 3518TIP3    H231970   1.845   5.208   6.288 -1.2143  1.1849 -0.0978
 3519TIP3   OH231971   4.305   2.762  14.674  0.1207 -0.1753 -0.0974
 3519TIP3    H131972   4.227   2.736  14.624 -0.3517 -1.8754  1.4225
 3519TIP3    H231973   4.378   2.730  14.622 -0.3045 -0.8449 -0.2960
 3520TIP3   OH231974   0.191   3.979  15.817  0.2035  0.4901 -0.0132
 3520TIP3    H131975   0.210   3.909  15.755 -0.5202 -0.4786  0.8276
 3520TIP3    H231976   0.100   4.004  15.798 -0.4226 -0.6031  1.3627
 3521TIP3   OH231977   0.027   3.631   0.596  0.1326 -0.6665  0.0137
 3521TIP3    H131978   0.008   3.556   0.541  1.0348 -0.8099 -0.1076
 3521TIP3    H231979  -0.049   3.637   0.655 -1.5068  0.3023 -2.0762
 3522TIP3   OH231980   6.005   3.255  12.039  0.4068 -0.7711 -0.2666
 3522TIP3    H131981   5.967   3.330  12.085 -0.5242 -0.0605 -2.0866
 3522TIP3    H231982   6.024   3.192  12.108  0.3569  0.7612  1.2233
 3523TIP3   OH231983   0.396   1.104   4.959 -0.0726  0.0551 -0.0581
 3523TIP3    H131984   0.458   1.173   4.983 -0.0678 -0.4772  1.5781
 3523TIP3    H231985   0.449   1.042   4.907  0.5559  0.0419  0.5794
 3524TIP3   OH231986   0.190   0.134  15.598  0.4800 -0.0503 -0.5199
 3524TIP3    H131987   0.146   0.216  15.618  2.0945  0.8952 -0.7114
 3524TIP3    H231988   0.151   0.105  15.515 -4.9727 -3.0930  2.5463
 3525TIP3   OH231989   0.156   6.449   0.214 -0.1448 -0.7632 -0.1947
 3525TIP3    H131990   0.124   6.524   0.264  1.1034  0.2287 -0.8250
 3525TIP3    H231991   0.097   6.443   0.139  0.4436  0.3567 -0.7709
 3526TIP3   OH231992   4.349   0.229  12.209 -0.2740  0.1684 -0.3208
 3526TIP3    H131993   4.441   0.252  12.226 -0.5544  0.1785  1.3266
 3526TIP3    H231994   4.309   0.310  12.180  0.5526 -0.1765 -2.6124
 3527TIP3   OH231995   6.435   2.177  12.965  0.5759  0.0273 -0.0353
 3527TIP3    H131996   6.496   2.114  13.003  0.7212 -0.0795 -0.4404
 3527TIP3    H231997   6.348   2.140  12.981  0.6165  0.1912  0.5636
 3528TIP3   OH231998   2.420   2.348   0.706  0.0451 -0.2150 -0.1951
 3528TIP3    H131999   2.498   2.392   0.672  0.6535 -0.9017  0.2651
 3528TIP3    H232000   2.359   2.419   0.726  0.7099  0.3645 -0.1693
 3529TIP3   OH232001   3.942   2.464  13.556  0.4314 -0.2749 -0.3477
 3529TIP3    H132002   3.875   2.464  13.624 -0.6511 -0.3272 -1.3746
 3529TIP3    H232003   3.992   2.544  13.572 -0.6266  0.3934 -0.2388
 3530TIP3   OH232004   3.662   5.653  15.676 -0.0127  0.4349 -0.2812
 3530TIP3    H132005   3.709   5.686  15.753  1.6069  0.9187 -1.4210
 3530TIP3    H232006   3.637   5.564  15.699  2.0849 -0.0945  0.1531
 3531TIP3   OH232007   5.183   3.439   2.194 -0.2154  0.2193 -0.0349
 3531TIP3    H132008   5.202   3.385   2.271  0.4105 -0.5151 -0.6912
 3531TIP3    H232009   5.146   3.378   2.131  2.7743 -0.0554 -1.7209
 3532TIP3   OH232010   1.809   2.186  16.546 -0.2924  0.0975  0.0794
 3532TIP3    H132011   1.756   2.236  16.609 -0.8264  2.3021 -1.9770
 3532TIP3    H232012   1.745   2.151  16.484  0.3974 -0.2797 -0.4260
 3533TIP3   OH232013   0.224   5.773   4.243 -0.6217  0.1371 -0.6492
 3533TIP3    H132014   0.166   5.699   4.225 -1.3276  0.7534 -1.0130
 3533TIP3    H232015   0.235   5.816   4.158  1.2985 -0.5835 -0.8187
 3534TIP3   OH232016   5.200   1.909   2.825  0.3839 -0.2605 -0.2093
 3534TIP3    H132017   5.204   1.930   2.731  0.8620  0.4247 -0.0452
 3534TIP3    H232018   5.281   1.861   2.841  0.0216 -0.9021 -0.2610
 3535TIP3   OH232019   1.565   4.698   0.108 -0.0658  0.1594  0.0890
 3535TIP3    H132020   1.643   4.652   0.075  0.4721  1.5455 -0.6437
 3535TIP3    H232021   1.597   4.748   0.183  0.1198  1.8642 -1.0709
 3536TIP3   OH232022   5.357   4.482  11.385 -0.6533 -0.3027  0.3866
 3536TIP3    H132023   5.275   4.457  11.428 -0.5752 -0.4818  0.4309
 3536TIP3    H232024   5.426   4.444  11.440 -0.5079  0.6197  0.8556
 3537TIP3   OH232025   5.894   4.842   1.571 -0.4094 -0.0374 -0.6766
 3537TIP3    H132026   5.902   4.937   1.583  0.4459  0.1134 -2.1603
 3537TIP3    H232027   5.820   4.831   1.511 -0.3816 -0.2897 -0.6671
 3538TIP3   OH232028   4.766   1.073   5.256 -0.3865  0.1482 -0.0222
 3538TIP3    H132029   4.820   0.998   5.280 -0.0802  0.6146  0.7921
 3538TIP3    H232030   4.680   1.055   5.294  0.0314  0.7733  1.2757
 3539TIP3   OH232031   3.798   6.479   4.147 -0.4125 -0.0139  0.2263
 3539TIP3    H132032   3.843   6.395   4.138  0.0714  0.4103 -1.8594
 3539TIP3    H232033   3.705   6.457   4.148 -0.3053 -0.5641 -0.7568
 3540TIP3   OH232034   0.055   4.570  14.471  0.8801  0.2342  0.2125
 3540TIP3    H132035   0.112   4.493  14.475  0.2053 -0.2560  0.5802
 3540TIP3    H232036   0.037   4.593  14.562  0.4462  0.3512  0.1029
 3541TIP3   OH232037   2.255   6.471  14.454  0.2737  0.4020 -0.6364
 3541TIP3    H132038   2.262   6.462  14.549 -0.5716 -1.8187 -0.7380
 3541TIP3    H232039   2.345   6.485  14.425  0.6041  0.6338  0.4374
 3542TIP3   OH232040   1.750   4.227  16.073 -0.2123 -0.3882 -0.1637
 3542TIP3    H132041   1.675   4.190  16.120  0.3970 -0.1000  1.0732
 3542TIP3    H232042   1.816   4.242  16.141  0.1336  1.4876 -0.8557
 3543TIP3   OH232043   3.488   0.694  16.046  0.2840 -0.2857 -0.3833
 3543TIP3    H132044   3.495   0.748  15.967 -1.0534 -0.3258 -0.5487
 3543TIP3    H232045   3.514   0.606  16.017  1.2649 -0.0001 -0.4055
 3544TIP3   OH232046   5.015   1.097  12.864 -0.2561  0.6276 -0.4970
 3544TIP3    H132047   5.096   1.143  12.887  0.0987 -0.0240 -0.4227
 3544TIP3    H232048   4.954   1.167  12.840 -0.0494  1.2137  0.6075
 3545TIP3   OH232049   3.670   6.448  16.299 -0.2452 -0.4067  0.2928
 3545TIP3    H132050   3.751   6.400  16.284  0.6040  0.8297  0.7214
 3545TIP3    H232051   3.635   6.463  16.211  2.5595  3.2222 -0.4566
 3546TIP3   OH232052   2.716   4.485  14.718  0.4502 -0.1482  0.5310
 3546TIP3    H132053   2.638   4.456  14.764  0.3648 -0.5752  0.1269
 3546TIP3    H232054   2.789   4.452  14.770  0.3553 -0.4770  0.4593
 3547TIP3   OH232055   6.685   4.500  15.227  0.0748  0.5123 -0.0437
 3547TIP3    H132056   6.676   4.472  15.136 -1.5490 -0.4787  0.3777
 3547TIP3    H232057   6.632   4.580  15.232 -0.4361  0.1687  0.1726
 3548TIP3   OH232058   1.357   4.357   1.280 -0.1332  0.1111 -0.2281
 3548TIP3    H132059   1.338   4.314   1.364 -1.0549 -2.2379 -1.5186
 3548TIP3    H232060   1.270   4.373   1.242  0.2793  0.4488 -1.0449
 3549TIP3   OH232061   5.295   6.143  16.211  0.6352 -0.0979  0.3259
 3549TIP3    H132062   5.367   6.152  16.148  2.5140  0.1351  2.3835
 3549TIP3    H232063   5.274   6.050  16.210  0.8998 -0.1560 -0.3534
 3550TIP3   OH232064   3.339   4.950   5.416  0.3333 -0.5813 -0.3283
 3550TIP3    H132065   3.403   4.879   5.422  1.1049  0.0629 -0.7330
 3550TIP3    H232066   3.365   5.010   5.486 -0.1815 -0.5887 -0.1293
 3551TIP3   OH232067   5.569   3.232  14.073 -0.3187 -0.0838  0.3011
 3551TIP3    H132068   5.483   3.196  14.095  0.3622 -1.7385  0.4750
 3551TIP3    H232069   5.629   3.190  14.135  0.3867  2.6266  1.6128
 3552TIP3   OH232070   2.629   4.973   1.268  0.2740  0.3215  0.2161
 3552TIP3    H132071   2.692   4.946   1.335 -0.5494  2.4712  1.9573
 3552TIP3    H232072   2.544   4.941   1.300 -0.2763  2.2378  0.8067
 3553TIP3   OH232073   5.237   5.457   2.963  0.3141  0.0685 -0.0283
 3553TIP3    H132074   5.226   5.413   2.879 -1.2022 -0.0951  0.2268
 3553TIP3    H232075   5.292   5.398   3.015  2.2830  0.7147 -1.2560
 3554TIP3   OH232076   3.657   5.185   5.695 -0.4602  0.3853 -0.1954
 3554TIP3    H132077   3.662   5.090   5.699  0.1470  0.4308  0.1582
 3554TIP3    H232078   3.563   5.204   5.685 -1.1081 -0.1201  3.6215
 3555TIP3   OH232079   5.064   2.379   0.205 -0.1982  0.1642 -0.3192
 3555TIP3    H132080   5.118   2.456   0.187  1.0373 -1.0915 -2.3775
 3555TIP3    H232081   4.989   2.389   0.146  0.2628 -0.4680 -1.0288
 3556TIP3   OH232082   2.448   3.742   4.887 -0.2107 -0.5511 -0.1687
 3556TIP3    H132083   2.542   3.731   4.907  0.3124 -1.1177 -2.6580
 3556TIP3    H232084   2.439   3.835   4.866 -0.1927 -0.5085  0.0111
 3557TIP3   OH232085   3.900   0.930  11.149 -0.1365  0.0800  0.6833
 3557TIP3    H132086   3.920   0.840  11.122 -2.0512 -0.3689  0.5860
 3557TIP3    H232087   3.807   0.927  11.173 -0.5572  2.3024 -0.4693
 3558TIP3   OH232088   4.503   5.401  14.718  0.3422 -0.6294 -0.5215
 3558TIP3    H132089   4.580   5.442  14.680  0.4483  1.2929  1.5682
 3558TIP3    H232090   4.432   5.463  14.703  0.2758 -0.0526  1.7759
 3559TIP3   OH232091   5.386   0.536   4.012 -0.5015 -0.4935 -0.1946
 3559TIP3    H132092   5.468   0.519   4.060 -0.8682 -1.6615  0.0511
 3559TIP3    H232093   5.319   0.489   4.062 -2.0677  3.4682  1.8167
 3560TIP3   OH232094   2.169   0.245  12.026  0.3639 -0.6738  0.5815
 3560TIP3    H132095   2.092   0.201  11.990  0.6575  0.1461 -1.1773
 3560TIP3    H232096   2.234   0.238  11.957  0.5147  2.2429  0.2963
 3561TIP3   OH232097   4.307   2.554   4.352 -0.2437  0.5833 -0.1743
 3561TIP3    H132098   4.367   2.533   4.424  0.5081 -0.2788 -1.0238
 3561TIP3    H232099   4.329   2.491   4.283 -0.9722  1.3608 -1.1511
 3562TIP3   OH232100   5.063   4.969  16.899 -0.0828 -0.0637 -0.3848
 3562TIP3    H132101   5.143   4.976  16.952  1.0622 -2.8532 -1.5727
 3562TIP3    H232102   5.092   4.988  16.810 -0.9279 -0.2927 -0.7164
 3563TIP3   OH232103   6.123   3.683   0.896 -0.0266 -0.0014 -0.0469
 3563TIP3    H132104   6.076   3.602   0.913 -0.7790  0.7077  1.5208
 3563TIP3    H232105   6.207   3.673   0.941  0.3234 -0.3119 -0.7583
 3564TIP3   OH232106   1.097   4.728   5.678  0.0409 -0.3788  0.5951
 3564TIP3    H132107   1.064   4.643   5.707  0.9476 -0.5311  1.2125
 3564TIP3    H232108   1.155   4.708   5.605 -2.4439  0.0228 -1.6189
 3565TIP3   OH232109   3.207   5.955  15.273 -0.4489  0.2965 -0.5288
 3565TIP3    H132110   3.220   6.045  15.303  1.0943  0.2217 -0.9232
 3565TIP3    H232111   3.293   5.926  15.244 -1.3161 -0.5972 -2.3870
 3566TIP3   OH232112   4.164   0.324  16.915  0.8433 -0.0304  0.4290
 3566TIP3    H132113   4.196   0.343  17.003  3.7910 -0.1221 -0.5251
 3566TIP3    H232114   4.099   0.393  16.898  0.2630  0.0284  2.5922
 3567TIP3   OH232115   1.223   3.833  13.642  0.4685 -0.2319  0.1479
 3567TIP3    H132116   1.260   3.915  13.675  1.0322 -0.6571  0.5694
 3567TIP3    H232117   1.281   3.807  13.571 -0.0716  0.0573 -0.4126
 3568TIP3   OH232118   3.759   2.247   5.987  0.7329 -0.1574  0.1612
 3568TIP3    H132119   3.798   2.314   6.044  0.6844  0.8131 -0.9217
 3568TIP3    H232120   3.697   2.294   5.932  1.5637 -0.8693 -1.4569
 3569TIP3   OH232121   2.275   1.682   3.149 -0.1388  0.2955 -0.2019
 3569TIP3    H132122   2.327   1.605   3.125 -0.4963 -0.1267  0.3662
 3569TIP3    H232123   2.187   1.663   3.116  0.0974  1.0975 -1.3411
 3570TIP3   OH232124   2.623   2.497  13.700  0.9302 -0.7218 -0.7178
 3570TIP3    H132125   2.699   2.503  13.758 -1.2506 -1.8790  2.5139
 3570TIP3    H232126   2.641   2.420  13.645  2.0782 -1.0031  0.0255
 3571TIP3   OH232127   0.827   5.363  15.320 -0.1799 -0.1426  0.4300
 3571TIP3    H132128   0.836   5.321  15.234 -0.7084 -0.4967  0.5438
 3571TIP3    H232129   0.895   5.431  15.321  0.0379 -0.3481 -0.1415
 3572TIP3   OH232130   4.618   1.529   5.825 -0.3628  0.2835  0.4508
 3572TIP3    H132131   4.538   1.547   5.776 -0.1564 -2.0722 -0.8486
 3572TIP3    H232132   4.589   1.518   5.915 -1.6316 -1.0904 -0.0867
 3573TIP3   OH232133   6.182   3.413   2.047  0.3003  0.0297  0.4113
 3573TIP3    H132134   6.269   3.435   2.014  0.3436 -1.3512 -0.4631
 3573TIP3    H232135   6.163   3.480   2.112  1.4882  1.0786 -0.2905
 3574TIP3   OH232136   1.872   0.634   2.433  0.7501 -0.0213 -0.3771
 3574TIP3    H132137   1.823   0.588   2.501  2.4673  0.8849  1.5866
 3574TIP3    H232138   1.820   0.622   2.354 -1.6609 -0.6305  1.1842
 3575TIP3   OH232139   6.284   0.326  16.519 -0.6824  0.2097 -0.0122
 3575TIP3    H132140   6.203   0.303  16.564 -1.0501 -0.4566 -0.9836
 3575TIP3    H232141   6.351   0.318  16.587 -1.2697 -0.4379  0.5139
 3576TIP3   OH232142   5.413   6.022  14.078 -0.0565  0.2617 -0.0468
 3576TIP3    H132143   5.383   6.092  14.020 -0.2905 -0.6565 -1.0860
 3576TIP3    H232144   5.343   6.012  14.142  0.4153  1.6096  0.7091
 3577TIP3   OH232145   2.616   4.328   3.812 -0.3007  0.3024  1.0180
 3577TIP3    H132146   2.532   4.361   3.846  0.1433  0.8770  1.6034
 3577TIP3    H232147   2.603   4.234   3.802 -0.8623  0.3077  1.5915
 3578TIP3   OH232148   5.752   1.609  16.665  0.0334  0.2722 -0.2412
 3578TIP3    H132149   5.814   1.631  16.596 -1.8382  1.5961 -1.6081
 3578TIP3    H232150   5.672   1.583  16.618 -0.9940  0.2466  1.4265
 3579TIP3   OH232151   2.075   0.068   2.407 -0.0824 -0.6760 -0.1323
 3579TIP3    H132152   2.073   0.088   2.314 -2.3023 -0.7543 -0.1483
 3579TIP3    H232153   2.014   0.130   2.447  1.3425 -0.1775  1.4049
 3580TIP3   OH232154   6.086   6.485   0.631 -0.2541 -0.1195  0.3791
 3580TIP3    H132155   6.102   6.406   0.683  1.4306 -0.2926 -0.3432
 3580TIP3    H232156   6.026   6.457   0.562 -0.3697 -0.5538  0.6548
 3581TIP3   OH232157   5.819   4.013   4.717 -0.5702 -0.0898  0.0403
 3581TIP3    H132158   5.891   4.064   4.755 -1.3214  0.6250  0.5245
 3581TIP3    H232159   5.813   3.935   4.772  0.2836 -0.5095 -0.4307
 3582TIP3   OH232160   5.991   3.176  14.531 -0.1380 -0.0399 -1.0938
 3582TIP3    H132161   6.040   3.150  14.453  0.5281 -0.7913 -0.4299
 3582TIP3    H232162   5.924   3.108  14.541  0.6384 -0.6893 -0.2365
 3583TIP3   OH232163   5.062   3.426   4.369 -0.0475  0.0781 -0.2822
 3583TIP3    H132164   4.974   3.457   4.389 -0.7733 -1.5981 -0.7385
 3583TIP3    H232165   5.054   3.331   4.367  2.2642 -0.2722  1.9484
 3584TIP3   OH232166   6.594   5.131  16.660  0.0244 -0.3659  0.6493
 3584TIP3    H132167   6.567   5.084  16.581 -0.2359 -0.0440  0.5376
 3584TIP3    H232168   6.687   5.115  16.668  0.1363 -0.0674  0.0360
 3585TIP3   OH232169   6.594   1.995  13.105 -0.1337  0.1889 -0.2831
 3585TIP3    H132170   6.562   1.905  13.107 -0.7811  0.3561 -1.8216
 3585TIP3    H232171   6.594   2.022  13.197  1.1969 -1.7320  0.3381
 3586TIP3   OH232172   6.509   2.256   1.610 -0.2934 -0.3843  0.0530
 3586TIP3    H132173   6.558   2.263   1.528 -0.2911  1.6621  0.1642
 3586TIP3    H232174   6.538   2.332   1.661 -1.9876 -0.3264  0.9960
 3587TIP3   OH232175   4.030   2.454   1.466 -0.0381  0.7482 -0.0603
 3587TIP3    H132176   4.002   2.372   1.424  0.1299 -0.1130  1.4389
 3587TIP3    H232177   4.123   2.440   1.484 -0.0939  1.1256  0.5319
 3588TIP3   OH232178   0.420   1.344  15.100  0.2455  0.0618  0.5148
 3588TIP3    H132179   0.338   1.319  15.143  0.0132  0.6780  0.4354
 3588TIP3    H232180   0.471   1.263  15.097  0.0495 -0.1069  1.4700
 3589TIP3   OH232181   3.424   5.041   3.628  0.1891  0.2673  0.3745
 3589TIP3    H132182   3.370   5.023   3.705  0.6786 -1.7725  0.3018
 3589TIP3    H232183   3.400   5.130   3.602 -0.4546  0.7738  2.4867
 3590TIP3   OH232184   4.084   1.802  13.053 -0.0816 -0.1429  0.0166
 3590TIP3    H132185   4.095   1.732  12.988  0.2272  0.3668 -0.4876
 3590TIP3    H232186   4.159   1.861  13.038  0.3467 -0.3427  1.2519
 3591TIP3   OH232187   6.415   3.491  13.079 -0.4425 -0.1035  0.2616
 3591TIP3    H132188   6.349   3.421  13.078 -1.3694  0.7279 -0.6081
 3591TIP3    H232189   6.460   3.482  12.995  0.9332 -0.9777  1.0654
 3592TIP3   OH232190   5.562   1.032  14.704  0.2943 -0.3445 -0.1188
 3592TIP3    H132191   5.562   1.127  14.717 -0.0529 -0.2953 -0.4207
 3592TIP3    H232192   5.624   0.998  14.767  0.0294  0.0386  0.3540
 3593TIP3   OH232193   0.633   3.881  10.935 -0.1132 -0.1206  0.6753
 3593TIP3    H132194   0.663   3.812  10.876 -2.9299 -0.4134 -0.5856
 3593TIP3    H232195   0.660   3.852  11.022  1.3212 -1.3241 -0.1302
 3594TIP3   OH232196   1.323   2.366   5.456 -0.6338  0.0869  0.1442
 3594TIP3    H132197   1.290   2.283   5.490  1.1937 -1.4119 -1.4633
 3594TIP3    H232198   1.362   2.409   5.532  1.6016 -2.2434  0.4494
 3595TIP3   OH232199   2.371   1.384   0.384  0.4439  0.8105 -0.1300
 3595TIP3    H132200   2.447   1.424   0.427  1.8852  0.1583 -1.9120
 3595TIP3    H232201   2.342   1.450   0.321 -0.2577  0.9203  0.3042
 3596TIP3   OH232202   4.538   1.588   6.097 -0.2719 -0.3525  0.2683
 3596TIP3    H132203   4.562   1.652   6.165 -0.0703 -2.6387  2.5278
 3596TIP3    H232204   4.443   1.595   6.090 -0.1997  0.5586  0.0724
 3597TIP3   OH232205   6.168   2.892   0.572  0.1059  0.4164  0.0740
 3597TIP3    H132206   6.150   2.977   0.613 -2.2639 -1.3976  3.3051
 3597TIP3    H232207   6.090   2.876   0.518 -1.0922 -0.9715  2.0784
 3598TIP3   OH232208   2.128   3.432  12.956  0.2461 -0.5900  0.3299
 3598TIP3    H132209   2.098   3.501  12.897  1.1852 -1.6758 -1.5095
 3598TIP3    H232210   2.196   3.386  12.907  1.2790 -1.3846  2.3950
 3599TIP3   OH232211   2.158   2.613  13.943 -0.1091  0.1205  0.5294
 3599TIP3    H132212   2.212   2.672  13.996 -0.4828  0.4983  0.4935
 3599TIP3    H232213   2.148   2.659  13.859 -0.6864  0.1596  0.6189
 3600TIP3   OH232214   1.473   4.373   5.235 -0.6027  0.2614 -0.3150
 3600TIP3    H132215   1.563   4.360   5.206 -0.9530  2.1925 -2.6109
 3600TIP3    H232216   1.445   4.453   5.190 -2.8932  0.7355  1.7629
 3601TIP3   OH232217   4.773   6.186  10.724 -0.2697 -0.1114 -0.3629
 3601TIP3    H132218   4.751   6.093  10.736 -0.9226  0.1811  0.8151
 3601TIP3    H232219   4.798   6.193  10.632  1.3849 -1.7867 -0.1137
 3602TIP3   OH232220   3.395   2.575  14.291  0.4088 -0.4802 -0.6627
 3602TIP3    H132221   3.407   2.519  14.368  2.4636  0.0342 -0.5796
 3602TIP3    H232222   3.333   2.526  14.237 -2.5543 -0.0436  2.0370
 3603TIP3   OH232223   3.400   2.950   4.354 -0.7490  0.7845  0.4547
 3603TIP3    H132224   3.431   3.015   4.291 -0.0207 -0.8128 -0.9188
 3603TIP3    H232225   3.479   2.906   4.385 -1.2967 -0.3597  0.2954
 3604TIP3   OH232226   3.254   3.044   3.544 -0.4796 -0.5081  0.1261
 3604TIP3    H132227   3.344   3.075   3.534  0.0662 -1.9702  0.3538
 3604TIP3    H232228   3.205   3.123   3.566  0.8740  0.1951  0.7804
 3605TIP3   OH232229   0.070   5.374  14.163 -0.1143 -0.4865 -0.4222
 3605TIP3    H132230  -0.017   5.333  14.165 -0.0817 -0.5393 -0.0845
 3605TIP3    H232231   0.110   5.350  14.246  0.0385 -0.0579 -0.3707
 3606TIP3   OH232232   3.178   5.804  12.222  0.4061  0.1545 -0.2952
 3606TIP3    H132233   3.199   5.884  12.175 -1.3391  0.6534 -0.2931
 3606TIP3    H232234   3.138   5.833  12.304 -1.2044 -0.6742 -0.7438
 3607TIP3   OH232235   0.066   1.825  10.926  0.2772  0.2823 -0.2636
 3607TIP3    H132236   0.002   1.852  10.860  0.3989 -1.0865 -0.9880
 3607TIP3    H232237   0.143   1.880  10.909  0.2119  0.1276 -1.1062
 3608TIP3   OH232238   2.002   4.770  16.121  0.3891 -0.5981 -0.2140
 3608TIP3    H132239   1.999   4.675  16.129  0.0128 -0.5071  1.0972
 3608TIP3    H232240   2.095   4.791  16.126  0.3912 -0.8082  1.3889
 3609TIP3   OH232241   6.589   4.560   5.156  0.3165  0.5380 -0.0443
 3609TIP3    H132242   6.565   4.525   5.070  2.9645  0.1036 -0.6774
 3609TIP3    H232243   6.505   4.568   5.202 -1.2313  1.1021 -2.7439
 3610TIP3   OH232244   6.690   2.162  15.583  0.1054 -0.2312 -0.2363
 3610TIP3    H132245   6.702   2.214  15.663 -0.5696 -0.9570  0.3518
 3610TIP3    H232246   6.686   2.227  15.513 -0.1514  0.4797  0.4200
 3611TIP3   OH232247   4.849   1.002   2.651 -0.3472 -0.0322 -0.1431
 3611TIP3    H132248   4.897   1.080   2.678 -0.8885  0.6779 -1.1798
 3611TIP3    H232249   4.890   0.931   2.700  2.0764  0.4657 -1.2789
 3612TIP3   OH232250   3.064   5.289  13.034  0.3217 -0.2493  0.0456
 3612TIP3    H132251   3.155   5.277  13.060  0.2841  0.1949  0.3785
 3612TIP3    H232252   3.063   5.373  12.987  0.5885 -1.4550 -2.2974
 3613TIP3   OH232253   1.949   2.677  14.287  0.7323  0.4417 -0.3464
 3613TIP3    H132254   1.982   2.766  14.299 -1.7523  1.2191  1.5658
 3613TIP3    H232255   1.920   2.675  14.195  2.1669  1.0745 -0.8392
 3614TIP3   OH232256   6.765   3.849   2.332 -0.5980  0.0423 -0.3349
 3614TIP3    H132257   6.853   3.850   2.294 -0.6504 -1.1069 -0.5338
 3614TIP3    H232258   6.780   3.854   2.426 -0.3563  0.5612 -0.3981
 3615TIP3   OH232259   5.779   4.747   2.235 -0.1007 -0.2109 -0.2358
 3615TIP3    H132260   5.702   4.788   2.274 -0.8794 -0.5463 -1.3667
 3615TIP3    H232261   5.760   4.653   2.237  0.8101 -0.3908  0.5564
 3616TIP3   OH232262   6.174   0.204   4.020  0.1614 -0.0930  0.7400
 3616TIP3    H132263   6.167   0.185   3.927 -0.9319 -0.0845  0.8111
 3616TIP3    H232264   6.194   0.297   4.024  0.1471 -0.0803  0.5148
 3617TIP3   OH232265   0.509   0.906   5.600 -0.4164 -0.5506  0.3783
 3617TIP3    H132266   0.439   0.952   5.646 -1.3669  1.9149 -3.1531
 3617TIP3    H232267   0.562   0.975   5.562  0.5154 -2.3734 -1.8369
 3618TIP3   OH232268   5.066   6.465  11.518  0.4444  0.1604  0.6096
 3618TIP3    H132269   5.106   6.393  11.566  1.0914 -0.4538 -0.7710
 3618TIP3    H232270   5.012   6.511  11.582  0.3966 -1.2697  1.6353
 3619TIP3   OH232271   3.302   3.846   2.224 -0.1590  0.1417 -0.5186
 3619TIP3    H132272   3.340   3.836   2.137 -0.8386 -0.9242 -0.7100
 3619TIP3    H232273   3.311   3.939   2.244  0.6751  0.2628 -1.4088
 3620TIP3   OH232274   2.988   6.387  16.905 -0.7226  0.6506  0.7156
 3620TIP3    H132275   3.062   6.443  16.924  1.6870 -2.2742  0.6561
 3620TIP3    H232276   2.986   6.382  16.809 -0.7220  0.3672  0.7298
 3621TIP3   OH232277   1.944   4.851   0.914 -0.1453 -1.0155  0.3141
 3621TIP3    H132278   1.856   4.876   0.887 -0.3422 -0.0673  1.7380
 3621TIP3    H232279   2.001   4.888   0.846 -0.6762  0.6321  0.7140
 3622TIP3   OH232280   0.725   4.030  14.430 -0.3687 -0.9128  0.8565
 3622TIP3    H132281   0.658   3.963  14.442 -0.5077 -1.2282 -1.2893
 3622TIP3    H232282   0.790   3.989  14.373  0.6500  0.0755  1.2660
 3623TIP3   OH232283   0.293   2.646  14.654  0.4479  0.3186  0.1971
 3623TIP3    H132284   0.226   2.676  14.593  0.8536  0.4930 -0.1679
 3623TIP3    H232285   0.374   2.688  14.624  0.7932 -0.1862  0.4037
 3624TIP3   OH232286   4.246   1.218   1.193 -0.1482 -0.2437  0.4974
 3624TIP3    H132287   4.210   1.286   1.250  0.6461  1.2833 -0.7440
 3624TIP3    H232288   4.188   1.218   1.117  1.2447  0.8383 -0.6166
 3625TIP3   OH232289   1.939   2.318   4.945  0.4886  0.5028  0.1925
 3625TIP3    H132290   2.028   2.343   4.919  0.2751  1.9681  0.8437
 3625TIP3    H232291   1.882   2.371   4.889  0.0315  1.9946  2.0037
 3626TIP3   OH232292   4.204   6.348   0.771 -0.7011  0.3577 -0.0241
 3626TIP3    H132293   4.246   6.262   0.780  1.4692  0.9670 -2.7581
 3626TIP3    H232294   4.204   6.384   0.859  1.0685 -1.3079  0.7380
 3627TIP3   OH232295   2.309   0.774   5.668 -0.0855 -0.6751 -0.1312
 3627TIP3    H132296   2.230   0.778   5.723 -0.4777 -0.7565 -0.6801
 3627TIP3    H232297   2.381   0.798   5.727 -0.6665  0.6520  0.0827
 3628TIP3   OH232298   1.789   0.072   5.028  0.0072 -0.4497  0.2272
 3628TIP3    H132299   1.716   0.066   4.966 -1.5487  0.9749  1.7979
 3628TIP3    H232300   1.755   0.126   5.100  2.1624 -0.9171  1.7003
 3629TIP3   OH232301   0.931   3.158  15.370  0.7848  0.5254  0.2144
 3629TIP3    H132302   0.869   3.102  15.323 -0.4906  3.2568 -1.6410
 3629TIP3    H232303   0.898   3.160  15.460 -0.3074 -0.1053 -0.1511
 3630TIP3   OH232304   1.808   3.480   3.783 -0.0289  0.0237  0.4874
 3630TIP3    H132305   1.864   3.467   3.860 -1.9975 -3.3703  1.5691
 3630TIP3    H232306   1.748   3.405   3.784 -1.6537  1.0446 -3.1256
 3631TIP3   OH232307   5.637   6.402  14.917  0.1736 -0.2625 -0.3177
 3631TIP3    H132308   5.621   6.370  14.828  1.4457 -1.7227 -0.0448
 3631TIP3    H232309   5.706   6.347  14.951  0.1410  0.6768  1.3898
 3632TIP3   OH232310   2.557   0.359  12.608  0.0837 -0.4043  0.5664
 3632TIP3    H132311   2.476   0.406  12.591  0.7091  0.0598 -1.3482
 3632TIP3    H232312   2.535   0.297  12.677 -2.6991 -2.3405 -1.8763
 3633TIP3   OH232313   0.824   3.435   0.110  0.0030 -0.7088  0.5169
 3633TIP3    H132314   0.786   3.493   0.044 -1.2674 -2.3568 -0.2587
 3633TIP3    H232315   0.914   3.421   0.081  0.2380  0.5800  0.5523
 3634TIP3   OH232316   4.513   5.890  13.731 -0.2268 -0.5286  0.0139
 3634TIP3    H132317   4.514   5.842  13.648 -1.4341 -1.2122  0.3740
 3634TIP3    H232318   4.524   5.823  13.798 -0.4221 -0.1204  0.4604
 3635TIP3   OH232319   5.079   5.129   1.932 -0.2019  0.4111 -0.0331
 3635TIP3    H132320   5.140   5.153   1.862  0.6045 -0.6266  0.2770
 3635TIP3    H232321   5.003   5.185   1.918  1.0426  2.1805 -0.0765
 3636TIP3   OH232322   5.866   1.538   2.716 -0.2689 -0.2943  0.8933
 3636TIP3    H132323   5.783   1.504   2.750 -1.0725  1.8435  1.2392
 3636TIP3    H232324   5.876   1.623   2.757  1.9980 -0.3742  0.6330
 3637TIP3   OH232325   4.917   2.441  16.413  0.6515  0.0978  0.2791
 3637TIP3    H132326   4.874   2.396  16.341 -0.0918 -0.4609  1.0473
 3637TIP3    H232327   4.915   2.378  16.485  0.2038  1.1034  1.1690
 3638TIP3   OH232328   2.806   0.439  13.243  0.3952 -0.2012  0.2191
 3638TIP3    H132329   2.752   0.479  13.311 -2.1809 -1.1801 -1.1141
 3638TIP3    H232330   2.826   0.352  13.276 -0.1715 -0.3902  0.0698
 3639TIP3   OH232331   5.800   1.223  12.252  0.2034  0.2049  0.0986
 3639TIP3    H132332   5.714   1.265  12.249 -0.1105 -0.3050  1.2522
 3639TIP3    H232333   5.784   1.133  12.223 -0.4132 -0.9632  3.5778
 3640TIP3   OH232334   1.851   4.448  16.525  0.1105 -0.1622  0.1300
 3640TIP3    H132335   1.908   4.525  16.527  0.5986 -0.5156  0.1932
 3640TIP3    H232336   1.767   4.479  16.560 -0.2261  0.7385 -1.3881
 3641TIP3   OH232337   2.991   2.147   5.769  0.1644  0.7590  0.1653
 3641TIP3    H132338   2.914   2.175   5.720  0.7593  0.0054 -1.2548
 3641TIP3    H232339   2.956   2.094   5.840 -0.5872 -0.6939 -1.2407
 3642TIP3   OH232340   4.666   6.247  16.460  0.0064  0.0396 -0.4149
 3642TIP3    H132341   4.590   6.253  16.517  0.5205  1.1638  0.1951
 3642TIP3    H232342   4.726   6.188  16.506 -1.0340 -2.0437 -1.5908
 3643TIP3   OH232343   1.007   5.181  14.902 -0.5045 -0.1345 -0.6362
 3643TIP3    H132344   1.100   5.202  14.910  0.1724 -1.2466 -3.9553
 3643TIP3    H232345   0.983   5.214  14.815 -2.3671 -2.5715 -1.1357
 3644TIP3   OH232346   5.864   0.105   3.915  0.0954 -0.3809  0.0008
 3644TIP3    H132347   5.937   0.140   3.966 -0.7831 -2.2725  2.8598
 3644TIP3    H232348   5.898   0.024   3.877  0.1823  0.0475 -0.8602
 3645TIP3   OH232349   5.929   3.264   5.329  0.0579 -0.1458  0.1564
 3645TIP3    H132350   5.929   3.278   5.234  2.8545  1.7125  0.3122
 3645TIP3    H232351   5.999   3.200   5.344  3.2253  3.2170  1.1759
 3646TIP3   OH232352   4.268   6.756   0.541 -0.0730 -0.3805  0.2995
 3646TIP3    H132353   4.328   6.830   0.531  1.0477 -1.2766  0.1418
 3646TIP3    H232354   4.187   6.784   0.499  0.6828  0.3578 -0.7032
 3647TIP3   OH232355   4.141   5.978   4.926 -0.2676 -0.1739  0.0583
 3647TIP3    H132356   4.173   5.963   5.015 -0.6427 -1.4137  0.0052
 3647TIP3    H232357   4.057   6.022   4.939  0.1109  0.4953  0.2820
 3648TIP3   OH232358   0.418   1.431   1.613  0.4950 -0.5865 -0.2333
 3648TIP3    H132359   0.329   1.456   1.638  1.0671  0.3462  0.9716
 3648TIP3    H232360   0.475   1.489   1.663  1.7945  0.7617 -3.0157
 3649TIP3   OH232361   3.363   5.293  11.718  0.5171  0.1605  0.5708
 3649TIP3    H132362   3.403   5.340  11.791 -0.6791 -0.2165  1.4885
 3649TIP3    H232363   3.344   5.206  11.753  1.3559 -0.5463 -0.6684
 3650TIP3   OH232364   0.919   3.192   3.116 -0.6178  0.4294 -0.1170
 3650TIP3    H132365   0.896   3.226   3.029  0.8103 -0.3796 -0.8550
 3650TIP3    H232366   0.871   3.247   3.177 -0.7161  1.8187 -1.3864
 3651TIP3   OH232367   4.248   2.627  11.563  0.0522 -0.1296  0.2082
 3651TIP3    H132368   4.210   2.544  11.534  2.4317 -0.6606 -1.6592
 3651TIP3    H232369   4.342   2.618  11.548  0.7417  1.9313  2.5118
 3652TIP3   OH232370   1.619   3.870  14.064 -0.1782  0.0847  0.1950
 3652TIP3    H132371   1.552   3.905  14.124  0.0375 -0.3870  0.7207
 3652TIP3    H232372   1.606   3.775  14.067  0.1325  0.0299 -0.1580
 3653TIP3   OH232373   6.179   0.454   1.300 -0.3220 -0.0425  0.4468
 3653TIP3    H132374   6.142   0.534   1.338  0.7417  1.1090 -0.8723
 3653TIP3    H232375   6.118   0.431   1.229 -1.1072 -0.9463  1.3751
 3654TIP3   OH232376   2.278   0.227  12.998 -0.5911 -0.5176 -0.9161
 3654TIP3    H132377   2.277   0.159  13.066  0.4808  1.0643  0.7736
 3654TIP3    H232378   2.338   0.193  12.931  0.1604 -1.1199  0.0339
 3655TIP3   OH232379   4.186   1.549   1.980  0.4038 -0.0539  0.0540
 3655TIP3    H132380   4.169   1.559   2.074  0.5723  1.0092 -0.0213
 3655TIP3    H232381   4.238   1.626   1.957  0.7172 -0.5248 -0.8304
 3656TIP3   OH232382   2.313   4.631   6.561  0.5783  0.5313 -0.3971
 3656TIP3    H132383   2.329   4.621   6.655  2.6186 -0.1356 -0.7859
 3656TIP3    H232384   2.398   4.653   6.524  0.1893 -1.0418 -2.3602
 3657TIP3   OH232385   1.333   0.046   6.461  0.1360 -0.6782 -0.3937
 3657TIP3    H132386   1.282  -0.002   6.527  0.2326  0.4089  0.5018
 3657TIP3    H232387   1.380   0.113   6.511  1.8325 -1.1343 -1.2954
 3658TIP3   OH232388   0.064   1.765   4.461 -0.1665  0.4916  0.0358
 3658TIP3    H132389   0.041   1.810   4.543 -1.1372  1.0226 -0.5031
 3658TIP3    H232390   0.155   1.791   4.445 -0.3532  1.3859  0.3187
 3659TIP3   OH232391   6.444   1.558  12.417 -0.7536 -0.4753  0.3132
 3659TIP3    H132392   6.443   1.502  12.494 -1.0199 -0.0035  0.6636
 3659TIP3    H232393   6.425   1.500  12.343 -0.0926 -0.9999  0.5555
 3660TIP3   OH232394   1.551   6.820   4.893 -0.1973 -0.2747 -0.0262
 3660TIP3    H132395   1.583   6.745   4.842  0.7452 -0.2970  0.5744
 3660TIP3    H232396   1.465   6.792   4.924  0.5949 -1.5756  1.1182
 3661TIP3   OH232397   6.212   6.297  14.524 -0.0919  0.4931 -0.0440
 3661TIP3    H132398   6.174   6.224  14.474  0.5354 -0.0628  0.2803
 3661TIP3    H232399   6.222   6.262  14.612 -3.3137  2.1537  1.1557
 3662TIP3   OH232400   5.353   6.435  11.726  0.4531 -0.0488  0.3055
 3662TIP3    H132401   5.313   6.353  11.696  0.4601 -0.4488  1.3531
 3662TIP3    H232402   5.396   6.470  11.648  0.8082 -1.2592 -0.0750
 3663TIP3   OH232403   3.877   0.499   3.844  0.0306  0.3588  0.4105
 3663TIP3    H132404   3.949   0.454   3.800 -0.0011  1.1992 -0.5226
 3663TIP3    H232405   3.919   0.566   3.898  0.0381 -0.3256  1.2748
 3664TIP3   OH232406   3.889   3.321  15.160 -0.8785 -0.7757  0.2195
 3664TIP3    H132407   3.875   3.414  15.142 -0.6357 -0.5674  1.0326
 3664TIP3    H232408   3.854   3.275  15.084  0.0931  0.0384 -0.7504
 3665TIP3   OH232409   2.609   6.211   0.389  0.2530 -0.2024  0.0294
 3665TIP3    H132410   2.554   6.243   0.318  0.2420 -1.5059 -0.5764
 3665TIP3    H232411   2.691   6.186   0.347 -0.0853 -1.8841  0.2670
 3666TIP3   OH232412   6.723   4.094   2.170 -0.0765  0.2561  0.3298
 3666TIP3    H132413   6.778   4.156   2.219 -0.8517  0.2470  1.2342
 3666TIP3    H232414   6.726   4.014   2.221 -0.6517  0.1453  0.1875
 3667TIP3   OH232415   1.564   0.972   1.109 -0.2291  0.4732 -0.2125
 3667TIP3    H132416   1.492   0.910   1.120  0.8416 -1.0866 -1.5089
 3667TIP3    H232417   1.634   0.937   1.164  0.4543  0.3868 -1.1126
 3668TIP3   OH232418   2.518   2.363   1.719  0.0618  0.0925 -0.0036
 3668TIP3    H132419   2.564   2.396   1.642  0.0367 -0.9672 -0.4941
 3668TIP3    H232420   2.555   2.276   1.734 -0.2593  0.1009  0.9061
 3669TIP3   OH232421   4.721   0.815  12.985 -0.4361  0.0458  0.2685
 3669TIP3    H132422   4.655   0.765  13.033 -0.7560 -0.5797 -0.8036
 3669TIP3    H232423   4.790   0.751  12.965 -0.6934  0.0963 -0.8224
 3670TIP3   OH232424   1.340   3.955  14.197 -0.0819  0.3873 -0.1972
 3670TIP3    H132425   1.323   3.896  14.124 -1.3346  1.3278 -0.6912
 3670TIP3    H232426   1.330   4.042  14.160  2.3784  0.9744  0.3582
 3671TIP3   OH232427   0.336   2.156  14.221 -0.5290  0.0211  0.0364
 3671TIP3    H132428   0.393   2.135  14.296  0.6567  0.0733 -0.8110
 3671TIP3    H232429   0.248   2.134  14.250 -0.3276  1.6290  2.0513
 3672TIP3   OH232430   3.541   3.215  13.817  0.4133 -0.1439  0.3131
 3672TIP3    H132431   3.582   3.177  13.895  0.0755  0.4783  0.8031
 3672TIP3    H232432   3.598   3.289  13.794  0.9320 -0.7769 -0.4889
 3673TIP3   OH232433   3.200   3.828   0.842  0.1909 -0.2166  0.5104
 3673TIP3    H132434   3.239   3.898   0.789 -2.1960  0.1034 -0.9448
 3673TIP3    H232435   3.239   3.748   0.806  1.1849  0.1959  0.6232
 3674TIP3   OH232436   4.754   3.766   5.748 -0.6234 -0.0718 -0.1555
 3674TIP3    H132437   4.667   3.738   5.776 -1.7361  2.3154 -0.9847
 3674TIP3    H232438   4.775   3.840   5.806  0.2439  0.2274 -0.8352
 3675TIP3   OH232439   5.174   4.822   6.282 -0.2669 -0.0822  0.2983
 3675TIP3    H132440   5.129   4.738   6.275 -1.2976  0.5870 -3.0727
 3675TIP3    H232441   5.177   4.855   6.192 -1.6946  4.4038  1.6356
 3676TIP3   OH232442   0.288   2.690  15.454 -0.2670 -0.5820 -0.2826
 3676TIP3    H132443   0.220   2.715  15.517 -1.4388 -0.9538 -1.3593
 3676TIP3    H232444   0.333   2.617  15.495  0.6116  0.7290  1.1821
 3677TIP3   OH232445   0.206   2.158  13.428 -0.5671 -0.1473 -0.1839
 3677TIP3    H132446   0.248   2.202  13.501  0.7126 -1.6032  0.0227
 3677TIP3    H232447   0.195   2.226  13.361  2.0352  0.3684 -0.1889
 3678TIP3   OH232448   4.691   2.598  14.984  0.3810 -0.0033 -0.5510
 3678TIP3    H132449   4.767   2.546  15.010 -0.0157 -0.2423  0.1785
 3678TIP3    H232450   4.618   2.536  14.989  0.0690  0.3431 -0.7902
 3679TIP3   OH232451   4.960   1.563  15.803 -0.0788  0.2374  0.1744
 3679TIP3    H132452   4.957   1.628  15.873 -0.0395  1.6813 -1.1217
 3679TIP3    H232453   5.047   1.524  15.809  0.1725  0.8432  0.5055
 3680TIP3   OH232454   3.073   3.951   4.121  0.0007 -0.1580 -0.7256
 3680TIP3    H132455   3.011   3.918   4.185 -0.6590  0.6784 -0.9209
 3680TIP3    H232456   3.152   3.898   4.134  0.2434  0.6709  1.4570
 3681TIP3   OH232457   6.516   2.710  11.468  0.1811 -0.2402 -0.0184
 3681TIP3    H132458   6.605   2.678  11.455  0.2877  0.4923 -1.2978
 3681TIP3    H232459   6.460   2.634  11.451  0.5587 -0.8087  1.2048
 3682TIP3   OH232460   2.350   0.904  12.841  0.1582  0.2879 -0.3307
 3682TIP3    H132461   2.385   0.821  12.873  0.3031  0.9151  1.2053
 3682TIP3    H232462   2.302   0.940  12.916 -0.8954  1.0440 -1.3371
 3683TIP3   OH232463   4.696   3.744   2.833  0.6554 -0.2594  0.4965
 3683TIP3    H132464   4.773   3.743   2.890  0.8504 -2.0741  0.2803
 3683TIP3    H232465   4.710   3.671   2.773 -0.7574  0.0225 -0.2206
 3684TIP3   OH232466   2.755   0.892   2.857  0.5268  0.9139 -0.3757
 3684TIP3    H132467   2.766   0.807   2.814 -1.0133  1.0919 -1.1696
 3684TIP3    H232468   2.738   0.870   2.948 -1.9629  0.2204 -0.9474
 3685TIP3   OH232469   0.316   5.353  16.192 -0.0589 -0.6708 -0.1478
 3685TIP3    H132470   0.234   5.304  16.205 -0.8820  0.9573  1.0209
 3685TIP3    H232471   0.319   5.369  16.097 -1.0552 -0.8154 -0.2148
 3686TIP3   OH232472   2.079   1.745   1.760  0.3316  0.0713  0.4449
 3686TIP3    H132473   2.086   1.725   1.853 -0.2110 -0.2160  0.4277
 3686TIP3    H232474   2.155   1.704   1.720  0.3126 -0.2102  0.6964
 3687TIP3   OH232475   5.178   4.173   1.944 -0.1165  0.1584 -0.2704
 3687TIP3    H132476   5.180   4.092   1.894 -0.8979 -2.1334  3.0952
 3687TIP3    H232477   5.270   4.200   1.950 -0.0599  1.1863 -3.6390
 3688TIP3   OH232478   4.974   1.559   5.480  0.0011  0.4254  0.4638
 3688TIP3    H132479   4.889   1.559   5.438 -0.2019  0.4535  0.8641
 3688TIP3    H232480   5.029   1.503   5.425  0.1066  1.4765 -0.5228
 3689TIP3   OH232481   4.436   4.549   1.492  0.0467 -0.1147  0.1247
 3689TIP3    H132482   4.419   4.635   1.529 -0.3296  0.1814 -0.7118
 3689TIP3    H232483   4.531   4.544   1.485  0.0052  1.3859 -2.4230
 3690TIP3   OH232484   6.332   1.645  16.153  0.1763 -0.5299  0.6344
 3690TIP3    H132485   6.278   1.568  16.140 -1.3416  0.5702  0.1706
 3690TIP3    H232486   6.389   1.622  16.227  0.2364 -2.3078  0.0768
 3691TIP3   OH232487   5.388   4.864   5.944  0.5927  0.2172 -0.4864
 3691TIP3    H132488   5.424   4.934   5.891  0.3437 -1.2433 -2.7052
 3691TIP3    H232489   5.311   4.901   5.985 -0.1223  0.9888 -2.4302
 3692TIP3   OH232490   5.019   6.158  12.623 -0.7230  0.5447 -0.1875
 3692TIP3    H132491   4.991   6.073  12.658  2.2351 -0.6516 -0.4469
 3692TIP3    H232492   5.101   6.177  12.668  0.6812  1.3610 -2.9054
 3693TIP3   OH232493   6.501   6.301  14.493 -0.3368  0.2931  0.5134
 3693TIP3    H132494   6.505   6.334  14.583 -2.4194  3.4581 -0.3636
 3693TIP3    H232495   6.411   6.320  14.465  0.1416 -0.8957 -2.1561
 3694TIP3   OH232496   2.537   4.334  13.548  0.2081 -0.5240  0.3728
 3694TIP3    H132497   2.577   4.418  13.522  0.0918 -0.4583  0.4066
 3694TIP3    H232498   2.553   4.276  13.474  2.6759 -1.2745  1.3850
 3695TIP3   OH232499   0.148   4.605  16.668  0.0137  0.1641 -0.6784
 3695TIP3    H132500   0.213   4.673  16.651 -0.6285  1.1944  0.8549
 3695TIP3    H232501   0.157   4.585  16.761 -1.3189 -0.2580 -0.6251
 3696TIP3   OH232502   3.722   3.520   2.289  0.1213  0.0555  0.4661
 3696TIP3    H132503   3.668   3.443   2.305 -1.2783  1.3888  2.6852
 3696TIP3    H232504   3.660   3.586   2.257  1.1829  0.4974 -0.7841
 3697TIP3   OH232505   2.095   6.098  15.109 -0.4640 -0.6958  0.2056
 3697TIP3    H132506   2.185   6.066  15.107  0.4626  1.7198  0.6893
 3697TIP3    H232507   2.091   6.155  15.186 -1.4350  1.8530 -1.6126
 3698TIP3   OH232508   1.937   0.980   5.007 -0.8604 -0.0259  0.0762
 3698TIP3    H132509   1.937   0.947   5.096 -2.2349 -1.2011 -0.3287
 3698TIP3    H232510   1.932   1.076   5.017 -0.6624 -0.1259  1.2384
 3699TIP3   OH232511   0.163   5.267   3.627 -0.0994  0.2280  0.3036
 3699TIP3    H132512   0.119   5.330   3.684  0.0836  0.0077  0.6869
 3699TIP3    H232513   0.255   5.270   3.654 -0.0617 -0.0923  0.2176
 3700TIP3   OH232514   2.385   0.526   4.850  0.6622 -0.1692  0.0790
 3700TIP3    H132515   2.326   0.562   4.917 -0.1568  0.9613 -1.1925
 3700TIP3    H232516   2.346   0.442   4.827  0.9834 -0.6014  1.0164
 3701TIP3   OH232517   0.749   3.783   1.312  0.3074  0.5513 -0.3167
 3701TIP3    H132518   0.674   3.838   1.334  0.8001  0.5073  1.7626
 3701TIP3    H232519   0.772   3.808   1.223 -3.2510 -0.7334 -1.7644
 3702TIP3   OH232520   4.895   1.424   3.169 -0.0707 -0.3183  0.1017
 3702TIP3    H132521   4.884   1.516   3.144 -1.5047 -0.3040  0.7245
 3702TIP3    H232522   4.907   1.378   3.086  0.8329  0.4419 -0.2036
 3703TIP3   OH232523   6.108   1.993   0.774  0.0539  0.3550 -0.1693
 3703TIP3    H132524   6.181   1.953   0.822 -1.2949 -0.3532  1.3968
 3703TIP3    H232525   6.039   1.927   0.777 -0.6249  0.9466 -1.7750
 3704TIP3   OH232526   1.290   4.656   0.077  0.2588 -0.0707 -0.2956
 3704TIP3    H132527   1.287   4.620   0.166 -0.3319  0.9358  0.1038
 3704TIP3    H232528   1.384   4.664   0.058  0.3953  0.2374  0.4717
 3705TIP3   OH232529   0.404   4.554  11.164 -0.2531 -0.3665  0.1462
 3705TIP3    H132530   0.393   4.514  11.250  1.6379 -0.8794  0.1846
 3705TIP3    H232531   0.315   4.566  11.131 -1.0215  0.1898  2.3177
 3706TIP3   OH232532   0.683   0.435  13.591 -0.2041 -0.1136  0.0421
 3706TIP3    H132533   0.770   0.458  13.624  0.5507  0.0384 -1.9031
 3706TIP3    H232534   0.695   0.349  13.551 -0.5860  0.4990 -1.4512
 3707TIP3   OH232535   0.379   2.418  12.996  0.0548 -0.2276 -0.4167
 3707TIP3    H132536   0.458   2.404  12.944  1.2215 -1.2764  1.5096
 3707TIP3    H232537   0.313   2.449  12.933  1.4425 -1.1517 -2.4162
 3708TIP3   OH232538   2.239   1.686  12.029  0.0947 -0.4164  0.1814
 3708TIP3    H132539   2.310   1.733  11.985 -1.1473 -0.2378 -1.7856
 3708TIP3    H232540   2.218   1.740  12.105  1.6927 -0.2104  0.5158
 3709TIP3   OH232541   4.795   0.846  13.868  0.0576 -0.3985 -0.3823
 3709TIP3    H132542   4.720   0.840  13.808 -0.1263  1.3079 -0.3772
 3709TIP3    H232543   4.823   0.756  13.881 -0.9278 -0.9280 -1.7485
 3710TIP3   OH232544   4.282   2.483   3.918  0.1791 -0.2960 -0.4453
 3710TIP3    H132545   4.363   2.524   3.886  0.4780 -0.0332  0.5991
 3710TIP3    H232546   4.227   2.556   3.946 -0.0908 -0.5155 -0.3985
 3711TIP3   OH232547   4.474   3.104   2.597 -0.1638 -0.2921 -0.1755
 3711TIP3    H132548   4.449   3.016   2.568 -1.9686  0.3926 -0.8867
 3711TIP3    H232549   4.456   3.160   2.521  2.5389  0.5212 -0.3309
 3712TIP3   OH232550   5.585   1.283   4.830  0.2504 -0.1977 -0.3461
 3712TIP3    H132551   5.591   1.270   4.925  1.6657  2.6639  0.0739
 3712TIP3    H232552   5.494   1.307   4.816  0.1030 -0.3077  0.3479
 3713TIP3   OH232553   3.104   5.461   0.578  0.0312  0.5246  0.4471
 3713TIP3    H132554   3.095   5.537   0.635 -0.2185  1.3594 -0.6525
 3713TIP3    H232555   3.018   5.453   0.535  0.3485  0.2168 -0.1520
 3714TIP3   OH232556   0.539   1.208   3.695  0.0426  0.1192  0.3194
 3714TIP3    H132557   0.555   1.154   3.772 -0.8273 -0.3696  0.1688
 3714TIP3    H232558   0.517   1.145   3.625 -0.3977  0.6196 -0.0070
 3715TIP3   OH232559   6.541   0.255   5.976 -0.6949  0.3955 -0.2698
 3715TIP3    H132560   6.633   0.237   5.959 -1.4161 -2.0099 -2.1142
 3715TIP3    H232561   6.525   0.219   6.064 -0.7417 -3.1804 -1.5986
 3716TIP3   OH232562   5.490   6.499  16.552 -0.2683 -0.4360  0.4984
 3716TIP3    H132563   5.540   6.540  16.481  1.0957  0.1917  1.7683
 3716TIP3    H232564   5.415   6.458  16.508  1.0661 -0.9466 -1.4201
 3717TIP3   OH232565   4.699   0.149   0.909 -0.1851 -0.1460  0.0683
 3717TIP3    H132566   4.625   0.136   0.969  0.5493 -2.1745  0.6404
 3717TIP3    H232567   4.677   0.229   0.861 -2.2466 -0.1102  0.9331
 3718TIP3   OH232568   4.710   1.261   2.383  0.1544  0.3708 -0.0914
 3718TIP3    H132569   4.774   1.280   2.314  0.1880  1.0717  0.1330
 3718TIP3    H232570   4.626   1.286   2.345 -0.3093 -2.4105 -1.1640
 3719TIP3   OH232571   4.820   6.488  16.929 -0.3426 -0.0852  0.5851
 3719TIP3    H132572   4.850   6.408  16.970 -0.1840 -0.5231 -0.3591
 3719TIP3    H232573   4.769   6.459  16.853  0.9957  0.6865 -0.6643
 3720TIP3   OH232574   2.951   1.221  15.492  0.4930 -0.1837 -0.2243
 3720TIP3    H132575   2.957   1.209  15.587 -1.3301  0.9295  0.0736
 3720TIP3    H232576   3.040   1.207  15.461  0.4642 -5.1885  1.0304
 3721TIP3   OH232577   0.903   3.606   2.230 -0.2327 -0.5338  0.8252
 3721TIP3    H132578   0.856   3.598   2.313  0.1924  0.0076  1.1223
 3721TIP3    H232579   0.960   3.529   2.228 -0.3451 -0.6220  0.9705
 3722TIP3   OH232580   3.394   6.334  12.755 -0.4316 -0.0303 -0.0741
 3722TIP3    H132581   3.318   6.392  12.756 -0.7071 -0.3906 -0.0124
 3722TIP3    H232582   3.359   6.249  12.728 -0.0530 -0.1991 -0.0350
 3723TIP3   OH232583   3.960   2.682   1.080 -0.0918  0.0679  0.1092
 3723TIP3    H132584   4.042   2.667   1.129  1.6659  2.7278 -1.7134
 3723TIP3    H232585   3.986   2.673   0.988 -1.8960  0.8600 -0.5069
 3724TIP3   OH232586   0.467   4.281   5.410 -0.0600 -0.1211 -0.1772
 3724TIP3    H132587   0.376   4.297   5.436 -0.0022 -0.9035  0.5665
 3724TIP3    H232588   0.484   4.191   5.438  0.8250 -0.1171 -0.6654
 3725TIP3   OH232589   2.577   0.578  11.654  0.1820 -0.0814 -0.0426
 3725TIP3    H132590   2.569   0.528  11.736  1.0202  2.9048  2.0568
 3725TIP3    H232591   2.487   0.598  11.630 -0.1324 -1.9053 -0.5473
 3726TIP3   OH232592   1.648   3.976   0.748  0.7082  0.1691  0.3109
 3726TIP3    H132593   1.644   4.054   0.802 -0.0511 -0.0496  0.5822
 3726TIP3    H232594   1.628   3.904   0.807  0.7517 -0.1618 -0.0693
 3727TIP3   OH232595   2.154   3.203   0.535  0.2348 -0.6831  0.1424
 3727TIP3    H132596   2.114   3.281   0.574  1.2251 -1.2624  2.4640
 3727TIP3    H232597   2.127   3.131   0.591  0.2684 -1.8773 -1.3088
 3728TIP3   OH232598   2.657   2.317  16.438 -0.2737 -0.2802  0.0816
 3728TIP3    H132599   2.600   2.253  16.481  0.3400  0.2463  1.7759
 3728TIP3    H232600   2.746   2.289  16.461  0.1990 -0.9534 -2.3231
 3729TIP3   OH232601   1.363   3.314  11.527  0.0958  0.1839  0.1500
 3729TIP3    H132602   1.387   3.339  11.617  0.9997 -0.2113  0.0402
 3729TIP3    H232603   1.445   3.320  11.478 -0.0308 -1.1442 -0.2843
 3730TIP3   OH232604   2.132   4.692  13.790  0.1362 -0.5260 -0.2742
 3730TIP3    H132605   2.099   4.678  13.702 -1.2562  0.9004 -0.0320
 3730TIP3    H232606   2.116   4.785  13.807  2.5768 -0.1930  0.6040
 3731TIP3   OH232607   1.036   1.287   1.851 -0.0467 -0.3210  0.3312
 3731TIP3    H132608   1.031   1.194   1.874 -2.0507 -0.5246 -0.6641
 3731TIP3    H232609   0.946   1.310   1.826  0.5387  1.7215 -0.0783
 3732TIP3   OH232610   5.309   6.719   1.904 -0.1229 -0.4572 -0.0363
 3732TIP3    H132611   5.303   6.733   1.998 -1.3653  0.6894 -0.2616
 3732TIP3    H232612   5.319   6.806   1.867  0.9633 -0.9391 -0.9559
 3733TIP3   OH232613   2.260   1.825   5.833 -0.3087 -0.4120  0.3400
 3733TIP3    H132614   2.185   1.793   5.883 -0.1995 -1.2068  0.0003
 3733TIP3    H232615   2.275   1.914   5.866 -1.4187 -0.2342  0.3840
 3734TIP3   OH232616   4.495   6.372   2.642  0.0176 -0.3431 -0.0684
 3734TIP3    H132617   4.522   6.281   2.653 -1.3690 -0.8946 -0.9624
 3734TIP3    H232618   4.400   6.367   2.628  0.0616  1.1592 -1.1067
 3735TIP3   OH232619   1.427   0.182  12.257 -0.4813  0.1578  0.2404
 3735TIP3    H132620   1.492   0.247  12.231 -1.8261  0.9719 -1.2059
 3735TIP3    H232621   1.448   0.163  12.349  2.2464 -0.1969 -0.3686
 3736TIP3   OH232622   1.912   3.415  10.908 -0.1859 -0.8091  0.6561
 3736TIP3    H132623   1.929   3.326  10.937  0.1890 -0.7100  0.7456
 3736TIP3    H232624   1.821   3.413  10.876 -0.6719 -0.8659  1.9964
 3737TIP3   OH232625   5.304   4.821   5.262  0.2273 -0.3156 -0.1609
 3737TIP3    H132626   5.254   4.897   5.294 -0.2081 -0.4188 -0.5876
 3737TIP3    H232627   5.239   4.765   5.220  0.8792  0.2167 -2.0048
 3738TIP3   OH232628   1.284   2.884  12.884  0.1971  0.2437  0.4102
 3738TIP3    H132629   1.289   2.974  12.916  0.3991  0.1957  0.5112
 3738TIP3    H232630   1.354   2.838  12.929 -1.3732 -0.5484  2.1870
 3739TIP3   OH232631   3.610   5.469   3.790  0.0993 -0.2420  0.1861
 3739TIP3    H132632   3.516   5.465   3.771 -0.3812  1.0190  2.0709
 3739TIP3    H232633   3.619   5.422   3.873  1.0941 -0.0414  0.1976
 3740TIP3   OH232634   2.596   0.320  14.091  0.1709 -0.5972 -0.9084
 3740TIP3    H132635   2.678   0.347  14.051 -0.5781  0.6481 -1.6733
 3740TIP3    H232636   2.555   0.402  14.121  0.7227 -1.4183  2.5799
 3741TIP3   OH232637   5.364   5.425   1.507 -0.0808  0.2988 -0.1906
 3741TIP3    H132638   5.334   5.419   1.416  1.6030  2.8377 -1.0490
 3741TIP3    H232639   5.446   5.475   1.501  0.3103  0.1583  2.7091
 3742TIP3   OH232640   4.754   4.070  13.202  0.3857 -0.5686  0.4673
 3742TIP3    H132641   4.837   4.024  13.190 -0.1044 -1.1879 -0.6740
 3742TIP3    H232642   4.696   4.005  13.241  0.2485 -0.3238  0.6712
 3743TIP3   OH232643   1.053   3.631   2.770 -0.3962  0.6497 -0.1631
 3743TIP3    H132644   1.007   3.579   2.836 -0.7928 -0.0191 -0.9611
 3743TIP3    H232645   0.991   3.700   2.747 -0.7520  0.1475 -0.7402
 3744TIP3   OH232646   5.119   5.802  12.032 -0.3022 -0.0885  0.1815
 3744TIP3    H132647   5.082   5.889  12.045  1.4619  0.9174 -1.0432
 3744TIP3    H232648   5.098   5.779  11.942  0.9525 -0.0026 -0.1603
 3745TIP3   OH232649   0.301   3.926   2.651  0.6963 -0.1869  0.6654
 3745TIP3    H132650   0.250   3.987   2.598  1.1611  1.8032  2.3674
 3745TIP3    H232651   0.371   3.896   2.593  0.2268  0.6195 -0.3470
 3746TIP3   OH232652   6.009   2.300   2.497  0.7003  0.3198 -0.1538
 3746TIP3    H132653   5.969   2.251   2.425  0.0318  0.2027  0.2831
 3746TIP3    H232654   5.938   2.353   2.532  0.6585 -0.5975  1.2420
 3747TIP3   OH232655   4.584   2.918  15.312 -0.2139 -0.2839  0.6627
 3747TIP3    H132656   4.560   2.929  15.220 -1.6812 -3.0499  0.6041
 3747TIP3    H232657   4.679   2.902  15.311 -0.4483 -1.7569 -0.5603
 3748TIP3   OH232658   1.421   6.791  14.016 -0.4069  0.0636  0.9888
 3748TIP3    H132659   1.365   6.811  14.091 -0.4229 -2.2633  1.6539
 3748TIP3    H232660   1.378   6.717  13.973  0.6935  0.0381 -0.1188
 3749TIP3   OH232661   2.906   0.389   4.309 -0.0020  0.2285  0.0395
 3749TIP3    H132662   2.894   0.304   4.267  1.4267  0.7881 -1.5978
 3749TIP3    H232663   2.988   0.423   4.273  0.6184  1.3542  2.3085
 3750TIP3   OH232664   1.438   2.559  15.055 -0.2115 -0.0505  0.4757
 3750TIP3    H132665   1.402   2.508  14.982  0.5543 -0.4504  0.3664
 3750TIP3    H232666   1.524   2.588  15.024  0.0156 -0.0180  1.1268
 3751TIP3   OH232667   1.318   6.383   1.132  0.3439 -0.0834  0.0011
 3751TIP3    H132668   1.284   6.349   1.049 -0.5511 -0.6157  0.5684
 3751TIP3    H232669   1.284   6.472   1.137  0.6947  0.0759 -0.3611
 3752TIP3   OH232670   1.045   1.724  11.874  0.1629  0.0671  0.3692
 3752TIP3    H132671   1.138   1.743  11.887  0.2624 -0.5083  0.5132
 3752TIP3    H232672   1.030   1.746  11.782  0.8706 -1.4902 -0.1607
 3753TIP3   OH232673   2.804   4.395  13.143  0.4743  0.1756  0.1092
 3753TIP3    H132674   2.745   4.340  13.091  0.1466 -0.0307  0.6919
 3753TIP3    H232675   2.854   4.444  13.078 -1.0198  1.0851 -0.4252
 3754TIP3   OH232676   6.235   2.070  14.044  0.0583 -0.7723 -0.0016
 3754TIP3    H132677   6.200   2.099  13.960  0.7467  1.1228  0.3180
 3754TIP3    H232678   6.242   1.975  14.035  0.7194 -0.5817 -2.3496
 3755TIP3   OH232679   5.651   1.777  14.099 -0.6432  0.2839  0.1896
 3755TIP3    H132680   5.598   1.698  14.085  1.7782 -1.1226 -1.8830
 3755TIP3    H232681   5.692   1.763  14.184  1.0319 -1.6301 -0.8291
 3756TIP3   OH232682   6.010   6.475  14.855 -0.2759  0.1487 -0.2577
 3756TIP3    H132683   6.055   6.492  14.938  1.1303  2.2188 -1.3608
 3756TIP3    H232684   5.917   6.480  14.877  0.0693  0.8277  1.1464
 3757TIP3   OH232685   6.574   5.138   0.330 -0.2114 -0.3167  0.4414
 3757TIP3    H132686   6.511   5.156   0.401 -0.3709 -0.5644  0.3646
 3757TIP3    H232687   6.589   5.224   0.290 -0.1122 -0.1707  0.7782
 3758TIP3   OH232688   1.198   3.458  14.288 -0.2699  0.1499  0.0209
 3758TIP3    H132689   1.257   3.518  14.333 -1.1838  0.7397  0.4690
 3758TIP3    H232690   1.254   3.388  14.256  0.5831  0.3975  0.9444
 3759TIP3   OH232691   3.925   2.287   2.081  0.4641  0.7314 -0.0427
 3759TIP3    H132692   3.942   2.360   2.140  0.5964  1.9245 -1.4902
 3759TIP3    H232693   4.011   2.265   2.044  0.1377  1.3122 -1.2217
 3760TIP3   OH232694   6.726   3.569   6.342 -0.0875 -0.5436  0.0682
 3760TIP3    H132695   6.730   3.627   6.417 -0.6763 -0.7073  0.2294
 3760TIP3    H232696   6.635   3.573   6.312 -0.0294 -1.0320 -0.1946
 3761TIP3   OH232697   4.744   0.267  14.850 -0.0231  0.1927  0.1522
 3761TIP3    H132698   4.663   0.244  14.896 -0.0918  1.1130  0.5190
 3761TIP3    H232699   4.808   0.203  14.881 -1.3498 -2.8407 -2.7571
 3762TIP3   OH232700   0.060   4.742  15.963 -0.7322  0.1427 -0.1293
 3762TIP3    H132701   0.085   4.835  15.957  0.0159 -0.1663 -3.0896
 3762TIP3    H232702   0.058   4.725  16.057  0.6036  2.7782  0.4863
 3763TIP3   OH232703   0.915   5.454  11.344  0.2642 -0.3667  0.1409
 3763TIP3    H132704   0.950   5.464  11.255  2.0930 -1.3615  0.6825
 3763TIP3    H232705   0.930   5.539  11.385  0.4610 -0.2406 -0.1890
 3764TIP3   OH232706   2.850   3.690   3.992  0.8702 -0.1132 -0.8574
 3764TIP3    H132707   2.941   3.678   3.962  1.1356  0.2182 -0.2054
 3764TIP3    H232708   2.797   3.675   3.913  1.2817 -3.0463 -0.7199
 3765TIP3   OH232709   5.778   3.865  11.526  0.2279 -0.0098 -0.3874
 3765TIP3    H132710   5.709   3.864  11.460  0.4343  1.1129 -0.6277
 3765TIP3    H232711   5.855   3.900  11.481  1.3204 -2.2718 -0.4383
 3766TIP3   OH232712   4.516   2.316   5.224 -0.3312  0.1701 -0.3374
 3766TIP3    H132713   4.471   2.308   5.308  0.0129 -0.2120 -0.1895
 3766TIP3    H232714   4.550   2.406   5.223  0.7247 -0.2024  0.4670
 3767TIP3   OH232715   2.604   2.639   5.381  0.0262  0.0759  0.2509
 3767TIP3    H132716   2.683   2.673   5.339  0.1799  1.8408  1.8475
 3767TIP3    H232717   2.604   2.545   5.360  1.2807  0.4616 -1.6897
 3768TIP3   OH232718   2.634   0.436   4.341 -0.2416 -0.3359  0.0573
 3768TIP3    H132719   2.597   0.421   4.429  2.5810  1.3883  1.6895
 3768TIP3    H232720   2.725   0.407   4.349 -0.1167 -0.8841 -2.6197
 3769TIP3   OH232721   4.998   3.226  12.729  0.4439  0.5078 -0.3172
 3769TIP3    H132722   5.062   3.169  12.687 -1.2924 -1.8456 -0.0014
 3769TIP3    H232723   4.968   3.285  12.660  1.3595  0.1922 -0.9989
 3770TIP3   OH232724   2.043   0.099   0.318  0.4699  0.3598 -0.7525
 3770TIP3    H132725   2.041   0.055   0.404  3.0765  0.7105 -0.4166
 3770TIP3    H232726   2.098   0.042   0.264 -0.0805  0.8011 -1.7961
 3771TIP3   OH232727   1.458   0.608  15.357  0.6725 -0.0535 -0.2206
 3771TIP3    H132728   1.546   0.570  15.359  1.6426  2.0085  1.0913
 3771TIP3    H232729   1.450   0.653  15.442 -1.5050  0.1451 -0.4780
 3772TIP3   OH232730   5.779   5.296   3.296 -0.0920 -0.3726  0.0591
 3772TIP3    H132731   5.738   5.324   3.215 -3.4855 -0.8412  1.4336
 3772TIP3    H232732   5.808   5.377   3.337  1.3997 -0.1121 -1.4124
 3773TIP3   OH232733   0.447   0.885  13.968  0.0365 -0.5673  0.1613
 3773TIP3    H132734   0.451   0.907  13.875  2.5186  1.4507  0.6334
 3773TIP3    H232735   0.503   0.808  13.977 -0.8424 -1.2527 -0.0887
 3774TIP3   OH232736   0.599   1.123   2.768  0.1948 -0.0048  0.2186
 3774TIP3    H132737   0.522   1.108   2.822  0.1436  1.3135  0.5540
 3774TIP3    H232738   0.672   1.119   2.830  0.2633  0.1740  0.1477
 3775TIP3   OH232739   2.465   5.670  15.791 -0.5110  0.2415 -0.0813
 3775TIP3    H132740   2.373   5.695  15.800 -0.7044 -0.8367  1.4114
 3775TIP3    H232741   2.513   5.745  15.828 -0.8735  0.2359  0.4225
 3776TIP3   OH232742   2.159   2.827   5.561 -0.1153  0.0516 -0.2465
 3776TIP3    H132743   2.098   2.776   5.507 -0.1813  1.0744 -1.1627
 3776TIP3    H232744   2.130   2.811   5.651 -1.6711  0.4258 -0.6564
 3777TIP3   OH232745   3.024   4.410   3.486 -0.3065 -0.2494 -0.0430
 3777TIP3    H132746   3.084   4.484   3.498 -0.0776 -0.2964 -0.8240
 3777TIP3    H232747   2.940   4.443   3.518  0.2559 -0.4130  1.7177
 3778TIP3   OH232748   5.647   0.991  16.684  0.0702 -0.3867  0.3889
 3778TIP3    H132749   5.592   1.012  16.760  1.8516  0.0348  1.6375
 3778TIP3    H232750   5.703   0.919  16.715  0.9889 -0.0442 -0.4350
 3779TIP3   OH232751   2.339   4.949  11.515 -0.4505 -0.3946 -0.1524
 3779TIP3    H132752   2.310   4.998  11.592  0.0295 -0.1699 -0.1180
 3779TIP3    H232753   2.272   4.968  11.448 -1.7756 -1.8673  0.6737
 3780TIP3   OH232754   3.901   2.820  12.339 -0.2339  0.1264 -0.4067
 3780TIP3    H132755   3.870   2.782  12.421  1.0771  0.3086  0.2034
 3780TIP3    H232756   3.979   2.768  12.317 -0.0181  0.6999 -1.0198
 3781TIP3   OH232757   0.946   0.152   4.176 -0.0356 -0.0616 -0.4130
 3781TIP3    H132758   1.027   0.162   4.126  0.4968 -1.9988 -0.0365
 3781TIP3    H232759   0.942   0.231   4.230  2.2286 -0.3827  0.3759
 3782TIP3   OH232760   0.879   5.263  16.845  0.2192 -0.4530 -0.1394
 3782TIP3    H132761   0.934   5.186  16.826  1.9393  0.6998 -0.0900
 3782TIP3    H232762   0.880   5.270  16.940  0.1477 -0.3329 -0.1473
 3783TIP3   OH232763   6.055   2.796   4.629  0.2421 -0.6048  0.3123
 3783TIP3    H132764   6.086   2.834   4.547 -1.8801  0.0546 -0.2625
 3783TIP3    H232765   6.057   2.702   4.615  0.0574 -0.4994 -0.4357
 3784TIP3   OH232766   1.869   5.777   5.591  0.6862  0.2431  0.0375
 3784TIP3    H132767   1.810   5.721   5.640 -0.3700 -1.4969 -2.9638
 3784TIP3    H232768   1.845   5.866   5.617 -1.4838 -0.5045  0.8040
 3785TIP3   OH232769   6.652   3.732  12.481  0.0325 -0.2435  0.4664
 3785TIP3    H132770   6.658   3.761  12.390  2.7436 -0.0800  0.6022
 3785TIP3    H232771   6.579   3.670  12.482 -1.3600  1.2267 -1.3429
 3786TIP3   OH232772   5.239   1.596  14.136 -1.1830 -0.1179 -0.4951
 3786TIP3    H132773   5.333   1.584  14.118 -1.2121 -0.1045 -0.6550
 3786TIP3    H232774   5.195   1.550  14.064 -1.2972  0.2168 -0.6388
 3787TIP3   OH232775   3.978   0.763   1.110  0.1668 -0.2212 -0.5216
 3787TIP3    H132776   3.939   0.838   1.065  0.1972  0.2495  0.2236
 3787TIP3    H232777   4.052   0.738   1.056  0.6665  0.8305 -0.3337
 3788TIP3   OH232778   5.597   6.797   4.908 -0.0409  0.2254 -0.3003
 3788TIP3    H132779   5.655   6.852   4.855  0.3247 -0.2841 -0.4402
 3788TIP3    H232780   5.640   6.791   4.993  1.3998 -2.0995 -1.0922
 3789TIP3   OH232781   4.318   6.052   4.572  0.0012  0.4318 -0.5706
 3789TIP3    H132782   4.260   6.106   4.519 -0.5023 -0.2621 -0.7486
 3789TIP3    H232783   4.345   5.980   4.514 -0.7358 -0.4636  0.1570
 3790TIP3   OH232784   1.202   0.801  11.373  0.0805  0.6186  0.1835
 3790TIP3    H132785   1.194   0.709  11.347  2.6237 -0.0589  1.4350
 3790TIP3    H232786   1.179   0.850  11.294 -1.7910 -1.0347 -0.3726
 3791TIP3   OH232787   4.351   4.032   1.625 -0.0007 -0.5624  0.7074
 3791TIP3    H132788   4.282   4.020   1.560 -0.6199 -1.5461  1.5057
 3791TIP3    H232789   4.315   4.093   1.688  0.6427  0.4792  0.0960
 3792TIP3   OH232790   1.561   2.931   0.332 -0.0353 -0.9204 -0.0107
 3792TIP3    H132791   1.635   2.871   0.328 -0.7726 -1.8138 -1.2112
 3792TIP3    H232792   1.597   3.015   0.305  0.8397 -1.0039  0.8616
 3793TIP3   OH232793   2.491   2.663   6.271 -1.0607  0.4088  0.4300
 3793TIP3    H132794   2.516   2.571   6.266  3.3280  1.1826  2.8520
 3793TIP3    H232795   2.455   2.672   6.359 -0.9883  1.0724  0.3947
 3794TIP3   OH232796   4.995   5.694  16.680 -0.4021  0.1713 -0.1563
 3794TIP3    H132797   5.077   5.691  16.630  0.3092  0.5728  0.9393
 3794TIP3    H232798   5.022   5.674  16.770 -1.5253  0.2439  0.2075
 3795TIP3   OH232799   1.455   4.642  12.459  0.3937 -0.3061 -0.5640
 3795TIP3    H132800   1.507   4.562  12.471  2.0255  0.7059 -0.5318
 3795TIP3    H232801   1.499   4.689  12.388 -0.0564  0.9396 -0.0423
 3796TIP3   OH232802   2.067   3.552   3.738 -0.3183 -0.4519  0.1733
 3796TIP3    H132803   1.986   3.513   3.707 -0.0521 -0.2745 -0.7937
 3796TIP3    H232804   2.106   3.592   3.660 -0.5812  1.7649  1.1210
 3797TIP3   OH232805   3.700   2.784   2.468  0.0318  0.1513  0.3615
 3797TIP3    H132806   3.717   2.825   2.553  0.6002 -0.9085  0.7832
 3797TIP3    H232807   3.729   2.693   2.479 -3.4626 -1.1049  0.2606
 3798TIP3   OH232808   4.647   5.409   1.185  0.1754 -0.3007  0.6567
 3798TIP3    H132809   4.699   5.438   1.259  0.7185  0.6821 -0.0844
 3798TIP3    H232810   4.680   5.459   1.111 -1.1954 -0.3250 -0.0148
 3799TIP3   OH232811   1.824   6.744  10.891 -0.2451 -0.0158 -0.0271
 3799TIP3    H132812   1.828   6.837  10.910 -1.4881  0.1337 -0.4407
 3799TIP3    H232813   1.879   6.734  10.813 -1.3264  0.6357 -0.8938
 3800TIP3   OH232814   0.070   0.498  12.214 -0.7848  0.0144  0.0485
 3800TIP3    H132815   0.060   0.419  12.161 -1.7081 -0.4670  0.8883
 3800TIP3    H232816   0.127   0.470  12.286 -0.0283  0.4936 -0.3566
 3801TIP3   OH232817   1.686   4.061   5.726  0.5312 -0.4040 -0.4228
 3801TIP3    H132818   1.695   4.132   5.663  1.7767  0.0595  0.2536
 3801TIP3    H232819   1.597   4.071   5.760  0.9714  1.3905  0.2851
 3802TIP3   OH232820   4.090   4.358  14.522 -0.7257 -0.5185  0.2202
 3802TIP3    H132821   4.001   4.384  14.495 -0.8185 -0.0041  1.0032
 3802TIP3    H232822   4.147   4.399  14.457 -0.9228  1.1005  1.0178
 3803TIP3   OH232823   3.197   3.355   3.806  0.2226  0.1618  0.0385
 3803TIP3    H132824   3.159   3.349   3.718 -1.2472  1.0525  0.5688
 3803TIP3    H232825   3.291   3.347   3.792  0.0125  0.1664 -1.5995
 3804TIP3   OH232826   4.523   5.127   2.727 -0.2630  0.2553  0.3863
 3804TIP3    H132827   4.571   5.140   2.645  0.9147  0.4079  1.0836
 3804TIP3    H232828   4.566   5.185   2.790 -1.2119  0.2106  1.1057
 3805TIP3   OH232829   5.038   5.982   4.568 -0.8739  0.0641  0.0457
 3805TIP3    H132830   5.121   5.950   4.532 -0.2724  0.4222  1.0436
 3805TIP3    H232831   5.011   6.051   4.508  0.8049  1.5905  0.9034
 3806TIP3   OH232832   4.830   2.035   2.890  0.0371 -0.0243 -0.5074
 3806TIP3    H132833   4.880   1.975   2.945  0.4270 -2.4610 -3.2399
 3806TIP3    H232834   4.739   2.018   2.913  0.2256 -0.1177  0.1953
 3807TIP3   OH232835   0.492   5.104   6.052 -0.2257 -0.5525 -0.3219
 3807TIP3    H132836   0.554   5.060   6.110  1.4345  0.2376 -1.3998
 3807TIP3    H232837   0.527   5.088   5.964 -1.8272 -0.4549 -0.9998
 3808TIP3   OH232838   3.653   0.914  11.418  0.4607 -0.3460 -0.8452
 3808TIP3    H132839   3.671   1.003  11.446  2.8075 -0.6960 -1.0790
 3808TIP3    H232840   3.638   0.921  11.323 -0.7347 -0.0650 -0.6584
 3809TIP3   OH232841   5.367   3.903   6.175 -0.4178  0.6172 -0.0916
 3809TIP3    H132842   5.381   3.817   6.135  2.4315  1.6005 -1.4733
 3809TIP3    H232843   5.418   3.901   6.256 -1.3824  0.6211  0.5320
 3810TIP3   OH232844   4.232   6.039  10.917  0.2676 -0.1992  0.1908
 3810TIP3    H132845   4.327   6.054  10.910  0.1526  0.7349  0.4189
 3810TIP3    H232846   4.211   6.065  11.007  0.2225 -3.0347  1.0772
 3811TIP3   OH232847   6.446   1.745  13.183 -0.1378 -0.4586 -0.1517
 3811TIP3    H132848   6.403   1.695  13.114 -1.8051 -0.3537  0.7765
 3811TIP3    H232849   6.468   1.680  13.250 -0.9820 -0.1920  0.4017
 3812TIP3   OH232850   5.126   4.918   6.022 -0.3560 -0.3909  0.7273
 3812TIP3    H132851   5.136   5.012   6.005  2.7978 -0.9759 -1.5768
 3812TIP3    H232852   5.036   4.898   5.995 -0.6925  1.7223  0.0860
 3813TIP3   OH232853   0.238   3.267   3.760 -0.5309  0.1695  0.1569
 3813TIP3    H132854   0.179   3.327   3.714 -0.4639 -1.3781 -2.0909
 3813TIP3    H232855   0.180   3.202   3.800 -0.4918 -1.2292 -1.8760
 3814TIP3   OH232856   0.958   0.690   1.102 -0.0421  0.4861 -0.6305
 3814TIP3    H132857   0.924   0.695   1.013 -0.9752 -0.6719 -0.3662
 3814TIP3    H232858   0.884   0.662   1.155  0.9109 -0.5822  0.2143
 3815TIP3   OH232859   3.280   4.740  14.287 -0.2526  0.2900  0.0834
 3815TIP3    H132860   3.331   4.760  14.365  1.6272 -0.0103 -1.0254
 3815TIP3    H232861   3.314   4.656  14.256 -1.0997  0.3004 -0.9444
 3816TIP3   OH232862   1.607   5.132   0.796  0.0870 -0.8333 -0.6286
 3816TIP3    H132863   1.676   5.184   0.838 -1.6109  2.6578 -1.7921
 3816TIP3    H232864   1.526   5.174   0.823 -1.4552 -2.8889 -1.7801
 3817TIP3   OH232865   1.277   0.152   3.079  0.3959 -0.0019 -0.3788
 3817TIP3    H132866   1.252   0.242   3.100 -0.7778  0.3390 -2.8337
 3817TIP3    H232867   1.194   0.105   3.071  0.9953 -1.8658  2.5747
 3818TIP3   OH232868   4.068   6.708   5.158 -0.0354 -0.2072 -0.0510
 3818TIP3    H132869   4.140   6.680   5.102 -1.7154 -3.8613 -0.6944
 3818TIP3    H232870   4.005   6.747   5.097 -0.8956 -2.1508 -0.5002
 3819TIP3   OH232871   4.191   1.064  14.583  0.4049 -0.3112  0.4802
 3819TIP3    H132872   4.269   1.092  14.535  0.1978  2.6833  1.6307
 3819TIP3    H232873   4.224   1.003  14.649  1.5130 -0.4217 -0.1500
 3820TIP3   OH232874   2.653   0.777   2.157 -0.4158  0.8921  0.1444
 3820TIP3    H132875   2.687   0.828   2.231 -1.7051 -0.9158  2.0994
 3820TIP3    H232876   2.708   0.698   2.156 -0.4802  0.8538 -0.7817
 3821TIP3   OH232877   3.907   2.066  14.936  0.3688 -0.5332 -0.2823
 3821TIP3    H132878   3.989   2.034  14.975  0.4665  0.9068  0.8207
 3821TIP3    H232879   3.867   2.118  15.006 -0.3388  0.6934 -1.5438
 3822TIP3   OH232880   1.003   0.778  11.602 -0.8742  0.1329 -0.6126
 3822TIP3    H132881   1.005   0.687  11.628 -0.0758  0.3327  0.0637
 3822TIP3    H232882   1.062   0.783  11.526 -0.2326  0.2279 -0.1224
 3823TIP3   OH232883   1.693   2.127   1.724 -0.3807  0.1967  0.1357
 3823TIP3    H132884   1.786   2.109   1.741 -0.7463 -1.2521  0.7393
 3823TIP3    H232885   1.656   2.146   1.810 -1.4220 -3.2433  0.6200
 3824TIP3   OH232886   1.848   2.551   4.324  0.4211 -0.3425  0.4471
 3824TIP3    H132887   1.762   2.583   4.297  0.1382 -1.1535  0.3927
 3824TIP3    H232888   1.898   2.631   4.343 -0.3710  0.1266  0.5807
 3825TIP3   OH232889   0.117   1.232   4.912  0.1031 -0.5935 -0.3229
 3825TIP3    H132890   0.120   1.321   4.948 -1.1557 -1.4340  2.1123
 3825TIP3    H232891   0.209   1.209   4.898  0.4534  1.0208 -0.8688
 3826TIP3   OH232892   6.455   4.697   3.362  0.5525 -0.1310 -0.3420
 3826TIP3    H132893   6.543   4.733   3.365  0.7097 -0.5219  1.6689
 3826TIP3    H232894   6.454   4.631   3.431 -0.6398 -1.8038 -1.8710
 3827TIP3   OH232895   1.011   3.300   5.024  0.1389  0.1254  0.2941
 3827TIP3    H132896   0.962   3.221   5.001 -1.0841  0.7819  0.5920
 3827TIP3    H232897   1.102   3.277   5.004  0.0394 -1.8854  1.7382
 3828TIP3   OH232898   5.901   3.938  14.253  0.0425 -0.5863 -0.3174
 3828TIP3    H132899   5.880   3.986  14.173 -0.6557  0.5531  0.5128
 3828TIP3    H232900   5.829   3.876  14.263 -0.9028  0.5770  0.4035
 3829TIP3   OH232901   1.675   2.756  16.796  0.8279 -0.4168 -0.0425
 3829TIP3    H132902   1.631   2.768  16.880 -0.2801  1.1679 -0.8148
 3829TIP3    H232903   1.746   2.820  16.796  1.4733 -1.1059  0.0650
 3830TIP3   OH232904   4.453   5.170  11.743  0.9208 -0.1626 -0.3174
 3830TIP3    H132905   4.412   5.243  11.789  1.8607 -0.4066  0.9771
 3830TIP3    H232906   4.410   5.168  11.658  0.9915  2.0034 -0.4622
 3831TIP3   OH232907   4.190   6.522  15.411 -0.6117  0.3673 -0.4753
 3831TIP3    H132908   4.107   6.567  15.402 -1.1094  0.1542  2.1541
 3831TIP3    H232909   4.213   6.532  15.503  0.6667 -2.2961 -0.3913
 3832TIP3   OH232910   1.171   6.086   6.639 -0.2612 -0.5008 -0.3523
 3832TIP3    H132911   1.120   6.041   6.571 -2.2277  1.1190 -0.0615
 3832TIP3    H232912   1.238   6.134   6.590 -0.1050 -1.2850 -0.9225
 3833TIP3   OH232913   5.733   1.339   2.509  0.2070 -0.1750  0.8723
 3833TIP3    H132914   5.815   1.387   2.520 -1.0586  2.3570  0.1214
 3833TIP3    H232915   5.687   1.351   2.592  1.1865 -3.0768  1.9692
 3834TIP3   OH232916   0.580   6.011   3.624  0.3814 -0.2246 -0.3028
 3834TIP3    H132917   0.558   6.103   3.612  2.4077  0.3099 -0.2907
 3834TIP3    H232918   0.520   5.980   3.692 -0.8946  0.8297 -0.9071
 3835TIP3   OH232919   3.649   4.121   5.379 -0.2387 -0.0427  0.2371
 3835TIP3    H132920   3.733   4.088   5.413 -0.5372  1.0141  2.1625
 3835TIP3    H232921   3.631   4.066   5.303  2.2713 -0.1839 -0.3522
 3836TIP3   OH232922   2.980   2.559  14.902 -0.2987  0.0283  0.2058
 3836TIP3    H132923   3.019   2.577  14.816  0.7586 -0.6165  0.5397
 3836TIP3    H232924   3.023   2.620  14.962  0.7994 -1.2030  0.7155
 3837TIP3   OH232925   3.289   1.587   1.627 -0.5910 -0.3870 -0.0264
 3837TIP3    H132926   3.216   1.638   1.592  0.6854  0.9662 -0.8142
 3837TIP3    H232927   3.300   1.620   1.716  0.6333  1.2530 -0.7373
 3838TIP3   OH232928   6.127   5.045  15.985 -0.0767 -0.4329  0.2905
 3838TIP3    H132929   6.116   4.992  15.906 -0.6932  1.1603 -0.7482
 3838TIP3    H232930   6.058   5.016  16.044 -0.3129 -0.8793 -0.1978
 3839TIP3   OH232931   1.803   2.314   5.199  0.0590  0.0859 -0.0640
 3839TIP3    H132932   1.810   2.278   5.111  0.5488  1.3977 -0.5906
 3839TIP3    H232933   1.709   2.332   5.210 -0.2789 -1.7831  0.4248
 3840TIP3   OH232934   0.365   0.136  15.054  0.5593 -0.6395  0.0755
 3840TIP3    H132935   0.404   0.116  15.139  2.9401 -1.3714 -1.0983
 3840TIP3    H232936   0.396   0.066  14.996  0.2266  0.6270 -1.7217
 3841TIP3   OH232937   3.577   5.262  12.141  0.2414  0.1071  0.1972
 3841TIP3    H132938   3.495   5.229  12.178  0.0155  0.5723  0.1228
 3841TIP3    H232939   3.635   5.186  12.138  0.4460  0.1314  1.9965
 3842TIP3   OH232940   3.960   1.539  13.614 -0.5763  0.1206 -0.0580
 3842TIP3    H132941   4.031   1.481  13.588 -0.8455  1.3405 -4.1633
 3842TIP3    H232942   3.980   1.622  13.571 -2.5955  1.6684  1.7571
 3843TIP3   OH232943   2.660   2.596   3.838 -0.4220 -0.2417  0.1746
 3843TIP3    H132944   2.657   2.532   3.767  0.0920  0.3099 -0.3541
 3843TIP3    H232945   2.712   2.555   3.906 -2.0470 -1.3368  0.8177
 3844TIP3   OH232946   6.691   2.644   0.010 -0.4267 -0.6771 -0.0662
 3844TIP3    H132947   6.704   2.558   0.051 -0.5677  0.1777  1.9051
 3844TIP3    H232948   6.628   2.688   0.068  1.5850  1.6801  0.4943
 3845TIP3   OH232949   3.516   2.441   1.211  0.1843  0.0863 -0.3134
 3845TIP3    H132950   3.551   2.473   1.127 -2.5137  2.2659 -0.7603
 3845TIP3    H232951   3.445   2.381   1.186 -0.1868  0.2058  0.4225
 3846TIP3   OH232952   2.348   4.326   3.938  0.3142  0.2560 -0.2683
 3846TIP3    H132953   2.277   4.356   3.995  0.8035 -0.4906  0.7585
 3846TIP3    H232954   2.372   4.240   3.972  0.5438 -0.2680 -1.6856
 3847TIP3   OH232955   1.514   0.838  16.090  0.1477 -0.1808 -0.3623
 3847TIP3    H132956   1.551   0.913  16.136 -0.0321 -0.3976  0.1534
 3847TIP3    H232957   1.439   0.811  16.145  0.4738 -0.9990 -0.3002
 3848TIP3   OH232958   2.106   6.294  16.080 -0.0337 -0.0194 -0.6695
 3848TIP3    H132959   2.121   6.366  16.142  1.1296 -0.6378 -0.2089
 3848TIP3    H232960   2.073   6.223  16.134  1.1862 -0.6313 -0.7134
 3849TIP3   OH232961   4.238   0.439  11.320 -0.0931 -0.8124 -0.0684
 3849TIP3    H132962   4.199   0.498  11.385 -2.2655  0.6149 -2.4868
 3849TIP3    H232963   4.195   0.355  11.335 -1.3476 -0.2304 -0.2590
 3850TIP3   OH232964   6.476   3.272   4.193  0.8241  0.1929  0.2637
 3850TIP3    H132965   6.527   3.348   4.221  1.7498 -0.6881  1.0462
 3850TIP3    H232966   6.529   3.196   4.219 -0.1116 -0.7288 -0.4181
 3851TIP3   OH232967   1.008   4.171   3.785 -0.3694  0.1780  0.3400
 3851TIP3    H132968   1.055   4.173   3.868 -0.1798  1.2193  0.2158
 3851TIP3    H232969   1.020   4.258   3.748 -0.2133 -0.3548 -0.9157
 3852TIP3   OH232970   0.351   3.670  16.168  0.2237 -0.6546  0.1158
 3852TIP3    H132971   0.369   3.697  16.079  1.8562  1.1494  0.9314
 3852TIP3    H232972   0.435   3.636  16.201 -0.0252 -0.1513  1.3378
 3853TIP3   OH232973   2.670   3.766  15.844  0.3135  0.3224  0.3577
 3853TIP3    H132974   2.762   3.791  15.859  0.2685  0.4586  0.4080
 3853TIP3    H232975   2.637   3.832  15.783  0.2395  0.2942  0.3676
 3854TIP3   OH232976   6.251   5.632   3.272 -0.3584 -0.5753  0.0689
 3854TIP3    H132977   6.217   5.692   3.206  0.3645  0.0736  0.2671
 3854TIP3    H232978   6.216   5.664   3.355  0.8767  0.2475  0.3041
 3855TIP3   OH232979   1.012   1.263   0.956 -0.2264 -0.0734  0.0145
 3855TIP3    H132980   1.005   1.233   1.047 -0.8282 -0.5268 -0.1721
 3855TIP3    H232981   1.103   1.290   0.946  0.4183 -2.0199  0.1539
 3856TIP3   OH232982   5.977   0.031   0.310 -0.2536 -0.2039 -0.4891
 3856TIP3    H132983   5.942   0.118   0.329  0.6379 -0.2120  1.3735
 3856TIP3    H232984   6.072   0.041   0.319 -0.1370 -1.3565 -0.2981
 3857TIP3   OH232985   2.300   2.054  15.887  0.5922  0.1658 -0.0821
 3857TIP3    H132986   2.326   1.966  15.913 -1.4943 -0.2392  0.8314
 3857TIP3    H232987   2.217   2.069  15.932 -0.9259  1.2343 -2.9411
 3858TIP3   OH232988   3.028   0.597  12.713 -0.0336 -0.1828 -0.4604
 3858TIP3    H132989   3.095   0.606  12.781 -0.4097 -1.9820  0.1894
 3858TIP3    H232990   2.958   0.547  12.754 -0.6750 -0.5263 -1.9029
 3859TIP3   OH232991   2.346   6.494  13.949 -0.1033  0.0750  0.1615
 3859TIP3    H132992   2.299   6.435  14.008  0.6370  0.1497  0.8460
 3859TIP3    H232993   2.282   6.561  13.926 -1.4417 -1.7602 -1.8376
 3860TIP3   OH232994   3.359   3.769  14.306  0.6077  0.4197  0.8482
 3860TIP3    H132995   3.417   3.697  14.332 -0.2550 -0.5949  0.0390
 3860TIP3    H232996   3.279   3.726  14.276  0.2232  1.7002 -0.0453
 3861TIP3   OH232997   0.703   5.053   0.087  0.2843 -0.3120 -0.1187
 3861TIP3    H132998   0.631   5.008   0.131 -0.3954  1.6965  0.9789
 3861TIP3    H232999   0.668   5.141   0.071  1.8438  0.1205 -1.3412
 3862TIP3   OH233000   2.123   2.593   5.421 -0.1307  0.2480 -0.7194
 3862TIP3    H133001   2.110   2.531   5.349  1.1004 -1.0478  0.1263
 3862TIP3    H233002   2.194   2.555   5.473 -1.1844  0.9728  1.3626
 3863TIP3   OH233003   6.191   0.693   2.007 -0.0770  0.3842 -0.7968
 3863TIP3    H133004   6.241   0.698   2.089  0.1566  0.3074 -0.9335
 3863TIP3    H233005   6.257   0.684   1.939 -0.3146 -0.6731 -0.9004
 3864TIP3   OH233006   5.078   3.350   1.304 -0.0871  0.2586  0.4484
 3864TIP3    H133007   5.078   3.434   1.258  0.6431  1.1120  1.9662
 3864TIP3    H233008   5.025   3.293   1.248 -1.4931  2.0095 -0.0959
 3865TIP3   OH233009   5.293   1.209   2.671 -0.5819  0.0054  0.4795
 3865TIP3    H133010   5.295   1.301   2.645 -0.3879  0.0834  0.7660
 3865TIP3    H233011   5.384   1.181   2.666 -0.4226  0.2265  1.7893
 3866TIP3   OH233012   2.991   3.384  11.871 -0.3634  0.2717  0.2009
 3866TIP3    H133013   3.082   3.413  11.875 -0.7896  1.8726 -0.9827
 3866TIP3    H233014   2.943   3.446  11.926 -1.0497  0.7878 -0.9631
 3867TIP3   OH233015   2.971   2.384   6.365 -0.5121  0.5881 -0.4904
 3867TIP3    H133016   2.963   2.302   6.413  0.3581  0.3611 -0.7138
 3867TIP3    H233017   2.898   2.437   6.396 -1.5170 -0.5371 -0.8809
 3868TIP3   OH233018   3.097   2.547  16.935  0.5273  0.2050  0.0461
 3868TIP3    H133019   3.182   2.581  16.963  1.0911 -1.6810  0.7641
 3868TIP3    H233020   3.072   2.485  17.003 -0.3472 -0.9655 -1.2934
 3869TIP3   OH233021   3.093   0.080   0.546  0.0313  0.6364 -0.5028
 3869TIP3    H133022   3.167   0.049   0.598  0.3741  0.0710 -1.3029
 3869TIP3    H233023   3.017   0.041   0.588  0.3870 -0.6577 -0.9954
 3870TIP3   OH233024   0.329   5.320   6.039  0.7788 -0.5826  0.3816
 3870TIP3    H133025   0.382   5.241   6.031  4.1256  1.3837  1.3020
 3870TIP3    H233026   0.308   5.326   6.132  2.2332  0.5132  0.6819
 3871TIP3   OH233027   3.847   0.465   2.022  0.1712 -0.4157  0.2777
 3871TIP3    H133028   3.762   0.444   1.985  0.0104  0.3758  0.1901
 3871TIP3    H233029   3.870   0.550   1.985  1.2973 -0.9027 -0.2061
 3872TIP3   OH233030   4.042   4.068  15.065 -0.1449 -0.2699 -0.2913
 3872TIP3    H133031   4.088   4.040  14.986  1.3835 -1.0257  0.8146
 3872TIP3    H233032   4.055   4.163  15.067 -1.5845 -0.0026 -1.7568
 3873TIP3   OH233033   2.695   4.904  12.997 -0.4609 -0.1644 -0.0512
 3873TIP3    H133034   2.764   4.967  12.980 -1.0553  0.9336  1.3906
 3873TIP3    H233035   2.614   4.956  12.994 -1.2267 -1.3736 -1.4994
 3874TIP3   OH233036   3.802   4.906   5.138  0.1009  0.5255 -0.0236
 3874TIP3    H133037   3.742   4.835   5.160  0.1447  0.8609  1.2623
 3874TIP3    H233038   3.753   4.959   5.075 -0.1967 -0.2625 -0.4701
 3875TIP3   OH233039   2.946   2.346   2.706 -0.3021  0.5797  0.2600
 3875TIP3    H133040   2.902   2.264   2.726 -3.1125  1.9372  0.1566
 3875TIP3    H233041   3.011   2.323   2.640 -1.4610 -1.4755 -0.2514
 3876TIP3   OH233042   5.281   6.488  12.651 -0.4731  0.0148  0.4273
 3876TIP3    H133043   5.302   6.579  12.631  0.2847  0.1836  1.8579
 3876TIP3    H233044   5.189   6.489  12.676 -0.5270  0.3411  0.2226
 3877TIP3   OH233045   2.285   6.202   1.874  0.3391 -0.0912  0.3698
 3877TIP3    H133046   2.241   6.285   1.856  1.5574  0.2408 -1.3821
 3877TIP3    H233047   2.378   6.224   1.874  0.6398 -1.2492  1.2265
 3878TIP3   OH233048   6.062   6.094  14.386  0.1049  0.2671  0.1158
 3878TIP3    H133049   6.112   6.018  14.358 -2.3242 -1.8818  1.1851
 3878TIP3    H233050   5.991   6.101  14.322 -0.2699  1.0361  0.5958
 3879TIP3   OH233051   1.458   6.591   0.572  0.2541  0.3562  0.3329
 3879TIP3    H133052   1.468   6.624   0.662  0.0046  2.5235 -0.3724
 3879TIP3    H233053   1.506   6.653   0.518  1.9721 -1.9218 -0.9394
 3880TIP3   OH233054   4.595   5.424   0.837 -0.4100  0.2214  0.2009
 3880TIP3    H133055   4.580   5.336   0.872 -1.6390  0.1454 -0.4778
 3880TIP3    H233056   4.649   5.409   0.759 -1.2310 -0.0231 -0.3370
 3881TIP3   OH233057   1.745   5.824  15.927 -0.3140  0.1813 -0.0206
 3881TIP3    H133058   1.699   5.803  15.846 -1.7615 -0.0095  0.8161
 3881TIP3    H233059   1.710   5.762  15.992  2.8366 -1.5793  0.1711
 3882TIP3   OH233060   6.697   2.325  14.583  0.3075  0.4240  0.1831
 3882TIP3    H133061   6.617   2.331  14.530  0.7963 -0.6801 -0.7353
 3882TIP3    H233062   6.768   2.329  14.519  0.9149 -1.2704  0.6843
 3883TIP3   OH233063   4.729   5.043  10.450 -0.5949  0.2922  0.4375
 3883TIP3    H133064   4.756   5.121  10.401 -0.5182  0.7647  1.2058
 3883TIP3    H233065   4.745   5.066  10.541 -0.7925 -0.5469  0.6918
 3884TIP3   OH233066   0.431   5.490  14.440 -0.3413  0.5180  0.0703
 3884TIP3    H133067   0.384   5.413  14.469  1.8570 -1.1728 -0.5913
 3884TIP3    H233068   0.452   5.474  14.348  1.4062  1.1893  0.2946
 3885TIP3   OH233069   4.439   2.144  14.511 -0.3081 -0.2172 -0.2273
 3885TIP3    H133070   4.461   2.073  14.451  1.1405 -0.2058  0.2368
 3885TIP3    H233071   4.432   2.101  14.597  0.5767  0.1769  0.0566
 3886TIP3   OH233072   0.823   0.983  10.910 -0.0940  0.1907  0.3735
 3886TIP3    H133073   0.844   0.971  10.817 -0.4212  1.8841  0.0483
 3886TIP3    H233074   0.894   1.036  10.945 -0.1909 -0.0827  1.0083
 3887TIP3   OH233075   6.677   2.453  13.728 -0.4084 -0.4544 -1.1312
 3887TIP3    H133076   6.754   2.400  13.750 -0.6643 -1.0999 -1.7407
 3887TIP3    H233077   6.689   2.535  13.776 -0.1513 -1.1721  0.0822
 3888TIP3   OH233078   0.650   0.824   2.706 -0.3706 -0.0965 -0.1298
 3888TIP3    H133079   0.585   0.760   2.734 -1.2095  1.0306  0.6137
 3888TIP3    H233080   0.657   0.886   2.780 -1.9379  2.4471 -1.9436
 3889TIP3   OH233081   4.926   3.139  15.462  0.1619  0.7033  0.0603
 3889TIP3    H133082   4.890   3.113  15.547 -0.2443  0.3191 -0.2207
 3889TIP3    H233083   4.867   3.209  15.432 -1.4373 -1.0699 -1.1673
 3890TIP3   OH233084   1.860   2.587  16.254 -0.4867  0.0754  0.3801
 3890TIP3    H133085   1.946   2.629  16.243 -1.7000  2.6779  0.0785
 3890TIP3    H233086   1.842   2.594  16.347 -0.7232  0.3548  0.3164
 3891TIP3   OH233087   6.770   6.587   0.028 -0.4953 -0.0054 -0.7283
 3891TIP3    H133088   6.696   6.561  -0.026 -1.2614  1.5135 -0.4402
 3891TIP3    H233089   6.836   6.618  -0.034 -2.0484  3.4909 -0.8489
 3892TIP3   OH233090   4.607   1.321   4.634 -0.5847 -0.0110  0.1873
 3892TIP3    H133091   4.590   1.415   4.625 -0.7972 -0.0726 -0.0583
 3892TIP3    H233092   4.701   1.315   4.651 -0.9242  0.3950  2.5549
 3893TIP3   OH233093   2.780   2.180   3.995 -0.1157  0.4609  0.3895
 3893TIP3    H133094   2.859   2.135   3.964  0.8091  0.1897  2.9501
 3893TIP3    H233095   2.801   2.273   3.987 -0.7001  0.4754 -1.6161
 3894TIP3   OH233096   0.574   1.004  12.797 -0.5262 -0.2907  0.1183
 3894TIP3    H133097   0.607   0.971  12.714 -0.6890 -0.3652  0.0823
 3894TIP3    H233098   0.598   0.937  12.861 -1.0862 -0.6123  0.0043
 3895TIP3   OH233099   6.290   6.339  13.534 -0.5904  0.3020 -0.3177
 3895TIP3    H133100   6.342   6.335  13.614  0.3433 -1.1961 -0.9543
 3895TIP3    H233101   6.210   6.290  13.554  0.0305 -0.8314 -0.5502
 3896TIP3   OH233102   6.652   1.389   2.325  0.2729 -0.2055  0.6829
 3896TIP3    H133103   6.572   1.341   2.349 -2.1751  2.8475 -0.7150
 3896TIP3    H233104   6.677   1.353   2.240  0.3029 -1.0428  1.0330
 3897TIP3   OH233105   3.528   1.789   6.288  0.0342  0.2021  0.3962
 3897TIP3    H133106   3.466   1.725   6.254 -1.8989  3.1196 -2.1035
 3897TIP3    H233107   3.609   1.774   6.239 -1.1310  1.0426 -1.9108
 3898TIP3   OH233108   0.459   4.208   3.326  0.2007  0.5304  0.3284
 3898TIP3    H133109   0.438   4.218   3.419  0.3095  1.8057  0.2374
 3898TIP3    H233110   0.376   4.224   3.281 -0.5483 -2.8232  0.2510
 3899TIP3   OH233111   3.968   2.248  13.924 -0.0501  0.1380  0.0989
 3899TIP3    H133112   3.930   2.191  13.991  2.3322 -0.3976  1.1129
 3899TIP3    H233113   4.002   2.323  13.973  0.0168  0.7017 -0.7819
 3900TIP3   OH233114   3.230   6.581   3.977  0.3482 -0.2930 -0.0452
 3900TIP3    H133115   3.264   6.583   3.888  0.2239  2.1655 -0.1167
 3900TIP3    H233116   3.300   6.540   4.028  0.3615 -1.8687 -1.2455
 3901TIP3   OH233117   5.445   2.309  11.924 -0.0938 -0.1362 -0.2308
 3901TIP3    H133118   5.447   2.405  11.917  1.0666 -0.0440  0.9777
 3901TIP3    H233119   5.360   2.290  11.963 -0.3647  0.3920 -0.5495
 3902TIP3   OH233120   4.236   4.961   5.252  0.1401  0.2655  0.5146
 3902TIP3    H133121   4.216   4.868   5.260  1.1774 -0.2269 -1.7964
 3902TIP3    H233122   4.155   5.005   5.278 -0.8996 -1.3419  0.1548
 3903TIP3   OH233123   4.223   2.254   0.170  0.2982 -0.1551  0.0942
 3903TIP3    H133124   4.184   2.303   0.098  2.4693 -2.4155 -2.8903
 3903TIP3    H233125   4.168   2.176   0.178  0.8802 -0.6042 -0.1823
 3904TIP3   OH233126   2.699   2.528  14.196  0.0332  0.0814 -0.0376
 3904TIP3    H133127   2.738   2.582  14.128  3.4300 -0.3777  1.3335
 3904TIP3    H233128   2.700   2.584  14.274 -1.9602 -0.0575  0.1478
 3905TIP3   OH233129   2.864   0.375  15.548 -0.1787 -0.2886  0.0034
 3905TIP3    H133130   2.874   0.466  15.520 -0.8613 -0.7808 -2.0655
 3905TIP3    H233131   2.953   0.340  15.549  0.1279  0.4770  1.1948
 3906TIP3   OH233132   1.682   4.277   2.760  0.0217 -0.6321 -0.1357
 3906TIP3    H133133   1.682   4.363   2.717  0.5897 -0.4689  0.1920
 3906TIP3    H233134   1.595   4.270   2.799  0.1687  0.0355  0.3213
 3907TIP3   OH233135   0.172   6.201   5.008 -0.0476 -0.3424 -0.1487
 3907TIP3    H133136   0.106   6.213   4.940  1.1328 -2.1833 -1.7219
 3907TIP3    H233137   0.141   6.253   5.081 -1.2196  2.0204 -2.1910
 3908TIP3   OH233138   0.639   1.389   2.630 -0.1118  0.4211 -0.1239
 3908TIP3    H133139   0.670   1.457   2.570  1.0559  0.4180  0.4444
 3908TIP3    H233140   0.600   1.437   2.702  2.3484  0.6406  1.1823
 3909TIP3   OH233141   1.786   1.873   1.533  0.5711 -0.2535  0.3753
 3909TIP3    H133142   1.828   1.900   1.614  1.6813  1.5333 -0.7072
 3909TIP3    H233143   1.729   1.947   1.510 -2.5633 -2.1985  1.2961
 3910TIP3   OH233144   2.888   4.130   4.394 -1.0120 -0.7349 -0.0430
 3910TIP3    H133145   2.889   4.034   4.388  0.1802 -0.7850  0.7904
 3910TIP3    H233146   2.866   4.159   4.305 -0.2292 -1.7542 -0.5879
 3911TIP3   OH233147   6.714   4.354   1.508  0.3699 -0.9309  0.1064
 3911TIP3    H133148   6.708   4.427   1.571  0.7193 -1.5816  0.9186
 3911TIP3    H233149   6.627   4.315   1.509  0.3177 -0.8135  0.0464
 3912TIP3   OH233150   3.560   2.893  13.140  0.1517  0.2775 -0.2744
 3912TIP3    H133151   3.600   2.806  13.136  0.9304  0.4816  1.7560
 3912TIP3    H233152   3.466   2.876  13.144  0.3143 -0.5209  0.4784
 3913TIP3   OH233153   0.598   3.089   0.517 -0.7633  0.3267 -0.6160
 3913TIP3    H133154   0.616   3.051   0.603 -0.5339 -0.7591 -1.1319
 3913TIP3    H233155   0.637   3.176   0.521 -1.1168  0.4468  0.5224
 3914TIP3   OH233156   0.782   3.626   5.023 -0.3828  0.2938 -0.0188
 3914TIP3    H133157   0.828   3.672   5.094 -0.6896  0.6961 -0.0769
 3914TIP3    H233158   0.781   3.534   5.051  2.7848 -0.2467 -1.2117
 3915TIP3   OH233159   1.438   0.272  11.180  0.4673 -0.3308  0.7249
 3915TIP3    H133160   1.460   0.189  11.137 -0.8494 -0.3631  0.0370
 3915TIP3    H233161   1.349   0.258  11.213  0.2376  0.7986  0.6283
 3916TIP3   OH233162   1.273   1.026  12.255  0.0338 -0.5125 -0.6085
 3916TIP3    H133163   1.279   1.011  12.349 -1.3258  0.6294 -0.3012
 3916TIP3    H233164   1.300   1.117  12.243 -2.3309  0.2254 -0.9146
 3917TIP3   OH233165   0.925   5.722  11.223  0.0987 -0.1243 -0.6814
 3917TIP3    H133166   0.906   5.757  11.310 -0.9434  0.4010 -1.1000
 3917TIP3    H233167   0.921   5.799  11.165 -2.2660 -0.8887 -1.6283
 3918TIP3   OH233168   2.836   2.481  13.880 -0.4055  0.1974 -0.1359
 3918TIP3    H133169   2.927   2.450  13.880 -0.7308 -0.8028  0.9849
 3918TIP3    H233170   2.838   2.560  13.934  0.0522  1.0672 -1.3639
 3919TIP3   OH233171   3.816   6.275  14.696  0.3098  0.1419 -0.1273
 3919TIP3    H133172   3.820   6.368  14.675  0.5337  0.2225  0.2700
 3919TIP3    H233173   3.728   6.261  14.728  0.0277  0.0592 -0.9077
 3920TIP3   OH233174   1.018   6.088  13.674 -0.0961 -0.2390 -0.2132
 3920TIP3    H133175   1.108   6.120  13.675 -0.2193  0.0880  0.6357
 3920TIP3    H233176   0.968   6.154  13.722 -0.5680 -1.0740  0.4590
 3921TIP3   OH233177   0.442   0.881  11.299  0.5579  0.5745 -0.1551
 3921TIP3    H133178   0.522   0.933  11.299  0.9250  0.0244  0.1206
 3921TIP3    H233179   0.446   0.832  11.217 -1.2162  3.0881 -1.8600
 3922TIP3   OH233180   6.464   4.269   0.420 -1.0388 -0.3822  0.0075
 3922TIP3    H133181   6.505   4.352   0.444 -1.1052 -0.3725  0.0908
 3922TIP3    H233182   6.386   4.294   0.371 -0.8935 -0.4026 -0.2329
 3923TIP3   OH233183   1.299   1.293   4.375  0.3614  0.2399 -0.2276
 3923TIP3    H133184   1.341   1.362   4.325 -2.0842  0.2943 -2.4454
 3923TIP3    H233185   1.205   1.306   4.360 -0.4281 -0.8134  3.0799
 3924TIP3   OH233186   6.286   2.281  16.158  0.6385  0.2328  0.3329
 3924TIP3    H133187   6.319   2.205  16.207  0.2688  0.0195  0.2599
 3924TIP3    H233188   6.213   2.246  16.107  2.3938 -0.0387 -2.1212
 3925TIP3   OH233189   5.757   2.982  16.050  0.3823  0.2091 -0.3686
 3925TIP3    H133190   5.728   2.991  15.960 -0.5357  0.6088 -0.0438
 3925TIP3    H233191   5.822   3.052  16.062  0.5555  0.1108 -0.7344
 3926TIP3   OH233192   2.517   4.133   2.517  0.5082 -0.1052 -0.1447
 3926TIP3    H133193   2.521   4.159   2.609 -1.4069  2.3873 -0.6427
 3926TIP3    H233194   2.441   4.180   2.482  2.5089  0.9973 -3.5750
 3927TIP3   OH233195   0.269   2.163   4.968 -0.4413 -0.3813  0.1673
 3927TIP3    H133196   0.348   2.128   4.928  0.0840  2.4354 -1.5734
 3927TIP3    H233197   0.300   2.236   5.022 -1.8357  1.1985 -1.0684
 3928TIP3   OH233198   3.204   0.971  16.503  0.6817 -0.0881  0.2198
 3928TIP3    H133199   3.179   0.967  16.595  0.7114  0.3260  0.2524
 3928TIP3    H233200   3.159   1.049  16.470 -3.8741 -3.0445 -1.5274
 3929TIP3   OH233201   0.717   5.354  14.243 -0.0777 -0.6224  0.0487
 3929TIP3    H133202   0.744   5.441  14.272 -0.6521 -0.4962  0.2310
 3929TIP3    H233203   0.668   5.371  14.162  2.0118 -1.0200 -1.3619
 3930TIP3   OH233204   4.671   3.273  16.080  0.3967 -0.1960 -0.0536
 3930TIP3    H133205   4.671   3.278  15.985  1.2532  1.6014  0.0154
 3930TIP3    H233206   4.579   3.257  16.103  0.1115 -0.2047 -1.1535
 3931TIP3   OH233207   4.615   1.657   5.393 -0.2047 -0.0041  0.3706
 3931TIP3    H133208   4.678   1.611   5.338  0.5975  1.0055  0.4216
 3931TIP3    H233209   4.600   1.597   5.467  0.8759 -0.1705  0.4699
 3932TIP3   OH233210   6.569   3.307   1.792 -0.3879  0.5927 -0.8420
 3932TIP3    H133211   6.509   3.241   1.756 -0.7954  0.7574 -0.4688
 3932TIP3    H233212   6.519   3.389   1.789 -1.5502  0.2008  2.6348
 3933TIP3   OH233213   3.988   0.394   5.888  0.1538 -0.0326 -0.1872
 3933TIP3    H133214   3.934   0.472   5.904 -0.8221 -1.0102  1.5240
 3933TIP3    H233215   3.928   0.330   5.850  0.2912 -0.8344  0.9057
 3934TIP3   OH233216   2.289   4.627   1.504  0.0305 -0.7758  0.3271
 3934TIP3    H133217   2.318   4.672   1.424 -1.5055 -0.7906 -0.2662
 3934TIP3    H233218   2.324   4.681   1.575 -1.1476  1.0199 -0.3678
 3935TIP3   OH233219   1.983   1.728  12.329 -0.1479 -0.1863  0.5304
 3935TIP3    H133220   2.009   1.636  12.324  0.5336 -0.0079  0.7722
 3935TIP3    H233221   2.059   1.777  12.298 -0.9731  0.2425 -0.8859
 3936TIP3   OH233222   5.889   3.097   2.503  0.1335 -0.2920  0.1348
 3936TIP3    H133223   5.869   3.181   2.461 -2.1076 -1.7524 -2.0421
 3936TIP3    H233224   5.982   3.082   2.485  0.3049  1.2420 -0.3374
 3937TIP3   OH233225   1.147   3.720   0.339  0.5408 -0.0965 -0.6266
 3937TIP3    H133226   1.210   3.785   0.307 -0.7452  1.1333 -0.8125
 3937TIP3    H233227   1.140   3.656   0.269  0.3194  0.6976 -1.3464
 3938TIP3   OH233228   6.091   1.977   1.884  0.2878 -0.3962  0.1844
 3938TIP3    H133229   6.165   2.003   1.829  0.8785 -0.2861  1.0082
 3938TIP3    H233230   6.118   2.002   1.972 -1.4456  1.1932  0.3133
 3939TIP3   OH233231   6.060   5.737   1.764 -0.4212  0.1236 -0.4382
 3939TIP3    H133232   6.036   5.823   1.798 -0.9272  0.7767 -2.3315
 3939TIP3    H233233   6.155   5.733   1.775 -0.6267 -0.0803  1.7699
 3940TIP3   OH233234   3.595   4.783  13.581  0.5618  0.3464  0.2707
 3940TIP3    H133235   3.604   4.775  13.486 -2.7306  0.9297 -0.2180
 3940TIP3    H233236   3.541   4.708  13.607  0.0208  1.0869  1.3781
 3941TIP3   OH233237   0.216   6.806   4.264 -0.3622  0.4262  0.4175
 3941TIP3    H133238   0.194   6.718   4.297  2.8427 -1.4444 -1.8395
 3941TIP3    H233239   0.161   6.816   4.186  1.3962 -1.0412 -1.0876
 3942TIP3   OH233240   2.259   6.101  16.895 -0.1303  0.0092  0.1687
 3942TIP3    H133241   2.306   6.032  16.942  0.0428 -0.6361 -0.9177
 3942TIP3    H233242   2.327   6.157  16.859 -0.2752  0.9065  1.2461
 3943TIP3   OH233243   5.404   6.513  15.003 -0.1299 -0.5270 -0.2837
 3943TIP3    H133244   5.470   6.463  14.955  0.3663  0.1948 -0.3643
 3943TIP3    H233245   5.393   6.594  14.953 -1.0074 -0.5982 -0.2149
 3944TIP3   OH233246   3.749   6.684   1.904 -0.0781  0.1267 -0.3023
 3944TIP3    H133247   3.658   6.675   1.876 -0.5458  0.7904  0.9334
 3944TIP3    H233248   3.747   6.668   1.998  0.9371  1.0650 -0.1035
 3945TIP3   OH233249   4.353   5.099  10.107  0.2968 -0.1973  0.4408
 3945TIP3    H133250   4.384   5.009  10.117 -2.8145 -1.5123 -0.6309
 3945TIP3    H233251   4.299   5.114  10.185  0.4101  0.5637  0.3762
 3946TIP3   OH233252   1.791   5.588   4.917  0.2457 -0.2470  0.3333
 3946TIP3    H133253   1.803   5.654   4.848 -0.0845 -2.0158 -1.5125
 3946TIP3    H233254   1.725   5.625   4.975 -0.5846  0.6780 -1.1457
 3947TIP3   OH233255   6.640   0.228   6.252 -0.3811  0.2396 -0.2631
 3947TIP3    H133256   6.728   0.195   6.235 -0.1725  1.1712 -1.0226
 3947TIP3    H233257   6.596   0.156   6.298  1.1082  0.1893  1.1465
 3948TIP3   OH233258   6.048   2.403  11.334  0.6575 -0.2203  0.7537
 3948TIP3    H133259   6.044   2.476  11.272  1.3726 -1.5258 -0.8879
 3948TIP3    H233260   5.975   2.419  11.395  0.4673  1.5514  0.1033
 3949TIP3   OH233261   2.807   2.260   0.814  0.2552 -0.2549 -0.7501
 3949TIP3    H133262   2.731   2.229   0.863 -0.2510  0.6127 -0.9781
 3949TIP3    H233263   2.866   2.184   0.812  0.1632 -0.4071  0.9173
 3950TIP3   OH233264   1.810   5.418   6.082  0.0263  0.4516  0.7713
 3950TIP3    H133265   1.851   5.358   6.144 -1.1510 -0.4489  0.7057
 3950TIP3    H233266   1.728   5.444   6.125 -2.0144 -2.0450 -1.2938
 3951TIP3   OH233267   6.590   5.408  16.721 -0.1723  0.2228  0.3578
 3951TIP3    H133268   6.576   5.317  16.695  0.1229  0.8489 -2.3342
 3951TIP3    H233269   6.508   5.452  16.700  0.4938  0.9926 -0.7748
 3952TIP3   OH233270   5.623   4.892  12.112  0.2277  0.0035 -0.3143
 3952TIP3    H133271   5.691   4.895  12.045  1.1629  2.4428  0.6570
 3952TIP3    H233272   5.550   4.940  12.073 -0.0780 -0.5414 -0.4267
 3953TIP3   OH233273   1.761   6.441  10.360  0.4690 -0.4610 -0.0880
 3953TIP3    H133274   1.810   6.471  10.284 -0.1610 -1.0204 -0.7382
 3953TIP3    H233275   1.756   6.517  10.418  0.3345  0.1918 -0.9400
 3954TIP3   OH233276   4.084   2.654   4.020  0.0731 -0.0387 -0.2755
 3954TIP3    H133277   3.998   2.653   3.979 -0.2510  1.5703  0.2812
 3954TIP3    H233278   4.103   2.747   4.034  2.2222 -0.2928 -1.0356
 3955TIP3   OH233279   4.409   1.972  13.640  0.5327  0.4852  0.2227
 3955TIP3    H133280   4.422   1.894  13.586  1.4677  0.3841  0.5856
 3955TIP3    H233281   4.453   2.042  13.591 -0.5384  0.8680 -0.2424
 3956TIP3   OH233282   1.261   4.149   2.416 -0.1950 -0.6868  0.4221
 3956TIP3    H133283   1.193   4.142   2.349  0.2127 -0.7466  0.0156
 3956TIP3    H233284   1.338   4.109   2.378 -0.2296 -1.6426  1.3107
 3957TIP3   OH233285   4.997   3.630   0.637  0.1415 -0.2953  0.0066
 3957TIP3    H133286   5.024   3.543   0.666  1.9475  0.1114 -0.3059
 3957TIP3    H233287   5.010   3.629   0.542  0.5365  0.4121  0.0429
 3958TIP3   OH233288   2.762   6.020  11.907 -0.2165  0.0860  0.1336
 3958TIP3    H133289   2.851   6.023  11.940  0.1788 -1.2246 -0.7557
 3958TIP3    H233290   2.764   5.957  11.835 -1.7450  0.4161 -0.2502
 3959TIP3   OH233291   3.388   0.634   0.557  0.1202  0.7783 -0.0359
 3959TIP3    H133292   3.385   0.574   0.632 -1.5738  0.9437  0.0669
 3959TIP3    H233293   3.464   0.690   0.575 -0.1903  0.7470  1.5053
 3960TIP3   OH233294   3.255   6.659  11.870  0.0376 -0.3259 -0.5184
 3960TIP3    H133295   3.265   6.604  11.792  0.7247  0.7565 -1.2293
 3960TIP3    H233296   3.316   6.732  11.855 -0.3268  0.2500  0.7195
 3961TIP3   OH233297   5.418   4.634   4.272 -0.4682 -0.0255 -0.1223
 3961TIP3    H133298   5.416   4.726   4.299  1.0240 -0.2380  0.8507
 3961TIP3    H233299   5.461   4.635   4.186 -1.4599  0.2686 -0.6302
 3962TIP3   OH233300   2.562   6.422  15.791  0.1280  0.1506  0.5009
 3962TIP3    H133301   2.601   6.372  15.719 -0.1660  1.3049 -0.4941
 3962TIP3    H233302   2.490   6.367  15.822  1.2922 -1.1157  1.0628
 3963TIP3   OH233303   4.200   3.824   5.469  0.0189  0.1212  0.1349
 3963TIP3    H133304   4.224   3.754   5.529 -1.0236  1.7867  2.6322
 3963TIP3    H233305   4.119   3.793   5.427  0.1932 -0.6326  0.3543
 3964TIP3   OH233306   5.512   6.730   1.596 -0.2977  0.4990  0.0201
 3964TIP3    H133307   5.508   6.649   1.544  3.8063  0.3297 -0.4126
 3964TIP3    H233308   5.527   6.700   1.686 -0.5701  0.7850  0.1616
 3965TIP3   OH233309   2.114   5.837   2.431  0.0113 -0.4914 -0.2381
 3965TIP3    H133310   2.186   5.871   2.484  0.8974 -1.8061 -0.5355
 3965TIP3    H233311   2.156   5.806   2.351 -0.9035 -1.2073 -0.4608
 3966TIP3   OH233312   1.916   3.380   5.699  0.3683  0.3133  0.0976
 3966TIP3    H133313   1.922   3.293   5.738  1.6961 -0.0959 -0.9356
 3966TIP3    H233314   1.848   3.371   5.632  1.2856 -0.2663 -0.7793
 3967TIP3   OH233315   5.289   0.669  12.230  0.1227  0.2121 -0.1958
 3967TIP3    H133316   5.348   0.594  12.229 -0.2383 -0.1179 -2.1856
 3967TIP3    H233317   5.345   0.743  12.208  0.7829  0.8819  3.2501
 3968TIP3   OH233318   4.014   3.531   5.084  0.1962 -0.0667 -0.3730
 3968TIP3    H133319   4.040   3.511   4.995 -1.0769  0.4370 -0.8783
 3968TIP3    H233320   4.019   3.448   5.131 -2.8738 -1.2066 -1.8727
 3969TIP3   OH233321   3.283   0.851   6.222  0.0770  0.0829 -0.6929
 3969TIP3    H133322   3.311   0.878   6.310  0.6284 -2.8820  0.1633
 3969TIP3    H233323   3.350   0.790   6.194 -0.5535  0.3166 -2.8655
 3970TIP3   OH233324   5.927   0.534   3.433 -0.2032 -0.3748 -0.0929
 3970TIP3    H133325   5.835   0.551   3.414 -0.2633 -2.0572 -1.6136
 3970TIP3    H233326   5.975   0.585   3.368 -0.0252  0.7605  0.9076
 3971TIP3   OH233327   3.892   2.414  12.255  0.0782 -0.3162  0.2901
 3971TIP3    H133328   3.857   2.494  12.215 -0.4616 -0.5067  0.3719
 3971TIP3    H233329   3.826   2.347  12.236  0.9878 -0.9827 -0.6339
 3972TIP3   OH233330   4.300   4.917  12.032 -0.2324  0.5341  0.2901
 3972TIP3    H133331   4.374   4.870  11.995 -0.8606  0.6014 -1.0832
 3972TIP3    H233332   4.277   4.867  12.111  0.8098  0.1199  0.3523
 3973TIP3   OH233333   4.661   2.146  14.801 -0.4709  0.1966  0.0249
 3973TIP3    H133334   4.666   2.073  14.740 -0.6772 -0.1100  0.3728
 3973TIP3    H233335   4.736   2.133  14.860 -0.1632  0.5942 -0.2729
 3974TIP3   OH233336   2.590   6.195  15.004  0.0537  0.1092 -0.0528
 3974TIP3    H133337   2.628   6.220  14.919 -0.1404  1.9072  0.3524
 3974TIP3    H233338   2.497   6.217  14.995 -0.2414 -0.9868  0.1753
 3975TIP3   OH233339   4.275   1.811   0.411  0.1925 -0.0226  0.3811
 3975TIP3    H133340   4.227   1.800   0.330 -0.5982  3.0134  0.3374
 3975TIP3    H233341   4.300   1.722   0.436 -1.0465 -1.2049 -2.2262
 3976TIP3   OH233342   4.317   1.870  13.881 -0.4220  0.4331  0.1914
 3976TIP3    H133343   4.349   1.923  13.808 -2.0950  1.7401  0.3420
 3976TIP3    H233344   4.278   1.933  13.942 -0.0908 -0.7444  1.6693
 3977TIP3   OH233345   2.018   1.205  12.567  0.5355  0.1642  0.0820
 3977TIP3    H133346   2.055   1.290  12.545  1.7958 -0.3818 -0.0089
 3977TIP3    H233347   2.044   1.148  12.494  3.2028 -1.2502  1.9861
 3978TIP3   OH233348   3.413   1.647   1.358 -0.2213  0.3434 -0.0045
 3978TIP3    H133349   3.508   1.638   1.365 -0.1733  1.2465  0.7019
 3978TIP3    H233350   3.380   1.611   1.441 -0.3849  1.3694  0.3878
 3979TIP3   OH233351   3.477   5.593   5.830  0.4423  0.4373  0.0695
 3979TIP3    H133352   3.441   5.575   5.917 -1.1642 -0.8262 -0.8159
 3979TIP3    H233353   3.405   5.635   5.782  1.5352  1.7871 -0.4685
 3980TIP3   OH233354   5.191   0.998   2.811  0.4273  0.4912 -0.0412
 3980TIP3    H133355   5.249   1.051   2.757  1.9514  0.7462  1.7385
 3980TIP3    H233356   5.110   1.048   2.818  1.0578  1.5416 -0.1908
 3981TIP3   OH233357   5.000   5.249   3.094  0.5111 -0.2068 -0.0247
 3981TIP3    H133358   4.929   5.309   3.115  0.1184  0.3461 -2.6485
 3981TIP3    H233359   5.068   5.304   3.056  0.5818 -1.2531 -1.4920
 3982TIP3   OH233360   0.405   4.358  11.636  0.3736 -0.0520 -0.2123
 3982TIP3    H133361   0.396   4.272  11.594 -0.0959  0.0728 -0.3795
 3982TIP3    H233362   0.454   4.410  11.573 -0.6036  0.2285 -0.7658
 3983TIP3   OH233363   2.793   3.919   1.821 -0.6134 -0.1202  0.6128
 3983TIP3    H133364   2.802   4.011   1.795 -2.6340  0.2539  1.1033
 3983TIP3    H233365   2.762   3.923   1.911 -1.4295 -1.2696  0.3947
 3984TIP3   OH233366   5.233   6.665   1.181 -0.3347  0.1628 -0.5450
 3984TIP3    H133367   5.304   6.729   1.192 -0.4555  0.0468  1.1812
 3984TIP3    H233368   5.205   6.676   1.090  1.5897  0.5180 -1.1418
 3985TIP3   OH233369   4.687   3.542   4.679 -0.4576  0.2768  0.5879
 3985TIP3    H133370   4.732   3.603   4.738 -3.3134  0.8051  2.4436
 3985TIP3    H233371   4.702   3.456   4.718 -0.6754  0.3968  0.9424
 3986TIP3   OH233372   0.269   5.237   1.335  0.4777 -0.1081  0.1720
 3986TIP3    H133373   0.340   5.285   1.293 -0.4540  0.8276 -0.4005
 3986TIP3    H233374   0.266   5.271   1.424 -0.3658  1.1863 -0.3086
 3987TIP3   OH233375   6.484   5.981  12.258  0.3131  0.3266  0.6303
 3987TIP3    H133376   6.468   6.072  12.285  1.5962  0.1021  2.2949
 3987TIP3    H233377   6.438   5.929  12.323  0.0079 -0.2326 -0.0265
 3988TIP3   OH233378   0.383   4.989   1.101 -0.8911  0.1777  0.5888
 3988TIP3    H133379   0.295   5.012   1.071 -0.7522 -1.0744 -0.8744
 3988TIP3    H233380   0.379   4.895   1.115  0.7934 -0.2808 -1.6415
 3989TIP3   OH233381   1.002   2.183  12.928 -0.6337  0.2450  0.0668
 3989TIP3    H133382   0.925   2.229  12.961 -2.0111  0.8839 -3.5186
 3989TIP3    H233383   0.980   2.090  12.937 -1.4077  0.4106 -0.0200
 3990TIP3   OH233384   3.252   1.539   2.286  0.4070 -0.1339  0.6141
 3990TIP3    H133385   3.226   1.603   2.219  0.4997 -1.8981 -1.2054
 3990TIP3    H233386   3.298   1.591   2.352 -1.6435  2.0349  0.4959
 3991TIP3   OH233387   0.981   1.191  13.863 -0.3884 -0.0778 -0.3803
 3991TIP3    H133388   0.903   1.186  13.809 -0.7453  0.7048  0.0457
 3991TIP3    H233389   1.024   1.107  13.850 -1.5247 -0.6948 -0.2790
 3992TIP3   OH233390   0.534   3.372   1.583  0.1703 -0.0133  0.6916
 3992TIP3    H133391   0.540   3.432   1.508 -2.3622  2.9956  2.6469
 3992TIP3    H233392   0.601   3.306   1.566  2.3493  2.6346 -2.2950
 3993TIP3   OH233393   3.032   3.072   4.643  0.2651 -0.8950  0.0326
 3993TIP3    H133394   3.059   3.092   4.553 -0.1913  1.7527  0.3922
 3993TIP3    H233395   3.110   3.035   4.684  0.0405 -3.7143 -1.7897
 3994TIP3   OH233396   5.117   3.424  10.346  0.2777 -0.2037 -0.3209
 3994TIP3    H133397   5.022   3.422  10.350  0.2336 -2.4549 -0.9300
 3994TIP3    H233398   5.142   3.335  10.319  2.5758  0.0970  0.5277
 3995TIP3   OH233399   1.608   6.796   0.066 -0.1490 -0.1220 -0.0695
 3995TIP3    H133400   1.581   6.719   0.114 -1.7720  0.0729 -0.5783
 3995TIP3    H233401   1.526   6.834   0.034  0.7203  0.8449 -1.2870
 3996TIP3   OH233402   5.934   2.525  15.520 -0.0346  0.1694 -0.3529
 3996TIP3    H133403   6.006   2.485  15.569  0.1101 -1.1500 -1.5904
 3996TIP3    H233404   5.955   2.618  15.517  1.5068 -0.1699 -0.5074
 3997TIP3   OH233405   2.755   6.357   4.117  0.1051 -0.0959  0.6577
 3997TIP3    H133406   2.722   6.290   4.176  0.1752 -1.0998 -0.4024
 3997TIP3    H233407   2.848   6.364   4.139 -0.2290  0.8277  1.8510
 3998TIP3   OH233408   3.524   6.102   5.170 -0.0572 -0.1309  0.4602
 3998TIP3    H133409   3.490   6.168   5.231  1.0246  0.2346  0.6863
 3998TIP3    H233410   3.451   6.087   5.110 -1.7634 -1.6941  2.7408
 3999TIP3   OH233411   3.718   5.049  14.276 -0.6263  0.1566 -0.3166
 3999TIP3    H133412   3.704   4.991  14.351 -1.5450  1.1601  0.3305
 3999TIP3    H233413   3.633   5.052  14.232 -0.3732  0.3953 -0.7870
 4000TIP3   OH233414   6.430   0.233   2.910 -0.6515 -0.1518  0.1290
 4000TIP3    H133415   6.448   0.222   2.816 -1.8264 -2.9723  0.1226
 4000TIP3    H233416   6.514   0.253   2.949  0.4612 -1.9458 -1.1984
 4001TIP3   OH233417   6.332   2.028  12.314 -0.2252 -0.2860  0.4165
 4001TIP3    H133418   6.335   1.963  12.384  0.6311 -0.0263  0.6337
 4001TIP3    H233419   6.264   1.997  12.254 -2.0731  0.2490  2.1203
 4002TIP3   OH233420   3.596   4.453  12.671 -0.7910 -0.1256 -0.5813
 4002TIP3    H133421   3.648   4.394  12.725 -0.6614  1.2452  0.8688
 4002TIP3    H233422   3.660   4.496  12.614 -0.1359  1.8150  1.4364
 4003TIP3   OH233423   6.528   2.769  10.673 -0.9101  0.0799  0.0567
 4003TIP3    H133424   6.518   2.695  10.732 -1.4486 -2.2555 -2.7439
 4003TIP3    H233425   6.442   2.779  10.631 -1.2117  3.1110  1.1355
 4004TIP3   OH233426   6.775   3.039   4.379  0.7515  0.2815 -0.0186
 4004TIP3    H133427   6.820   3.033   4.294  1.4901 -0.4225  0.4085
 4004TIP3    H233428   6.797   3.126   4.411  0.6621  0.4655 -0.4401
 4005TIP3   OH233429   3.716   1.456   4.557  0.1276  0.9910  0.0408
 4005TIP3    H133430   3.646   1.500   4.606 -0.1153  2.3781 -1.4802
 4005TIP3    H233431   3.796   1.501   4.585 -0.0187  1.8304 -0.8332
 4006TIP3   OH233432   1.042   2.221   3.138  0.0062  0.3135 -0.0772
 4006TIP3    H133433   0.968   2.278   3.118 -0.3022 -0.1022 -0.1472
 4006TIP3    H233434   1.004   2.151   3.191  0.7634  1.2865  1.8394
 4007TIP3   OH233435   2.022   5.114   5.437  0.1129  0.7299  0.0982
 4007TIP3    H133436   2.015   5.168   5.358  0.9611 -0.2642 -0.6726
 4007TIP3    H233437   1.959   5.043   5.423 -1.4245  1.7635  1.3660
 4008TIP3   OH233438   3.200   2.457  14.102 -0.1946  0.3688 -0.1317
 4008TIP3    H133439   3.114   2.416  14.109 -0.3510  0.3805 -1.5361
 4008TIP3    H233440   3.204   2.486  14.010  0.6414  1.8420  0.3350
 4009TIP3   OH233441   1.512   4.077  12.193  0.2557  0.2753  0.1454
 4009TIP3    H133442   1.469   3.995  12.216  2.5818 -1.1346 -0.2045
 4009TIP3    H233443   1.535   4.067  12.100  4.0950 -0.5348  0.9999
 4010TIP3   OH233444   0.094   5.715   5.583  0.0538 -0.0124 -0.2944
 4010TIP3    H133445   0.026   5.752   5.528 -0.9716 -1.6744 -0.1986
 4010TIP3    H233446   0.048   5.682   5.660  0.7892 -2.0949 -0.6920
 4011TIP3   OH233447   6.580   6.052   3.081  0.7370 -0.2844 -0.1000
 4011TIP3    H133448   6.672   6.027   3.086  0.5578 -1.6487 -2.2806
 4011TIP3    H233449   6.580   6.135   3.033  0.8697 -0.0354  0.3345
 4012TIP3   OH233450   0.095   0.878   1.447 -0.0309 -0.1254 -0.3731
 4012TIP3    H133451   0.001   0.883   1.430  0.2011  2.1569 -1.3445
 4012TIP3    H233452   0.124   0.801   1.399 -1.5718 -1.7270  1.0988
 4013TIP3   OH233453   3.660   4.851   4.035  0.4359  0.2728  0.1921
 4013TIP3    H133454   3.595   4.791   4.071 -2.1604  1.3143 -2.3641
 4013TIP3    H233455   3.641   4.855   3.941  3.4285  1.6477 -0.4978
 4014TIP3   OH233456   4.495   6.354   2.147 -0.4280 -0.2448 -0.7770
 4014TIP3    H133457   4.455   6.427   2.101  0.4692  0.4998 -0.4083
 4014TIP3    H233458   4.542   6.394   2.220 -0.6845 -1.2752 -0.0230
 4015TIP3   OH233459   4.024   0.111   4.008  0.4352 -0.1453 -0.5606
 4015TIP3    H133460   4.095   0.149   4.059 -0.8874  1.8458 -0.0860
 4015TIP3    H233461   3.962   0.078   4.074 -0.0832  0.0900 -0.9257
 4016TIP3   OH233462   0.753   5.845   2.524  0.0986  0.1794  0.1867
 4016TIP3    H133463   0.754   5.762   2.476 -2.4243 -0.8718  1.7643
 4016TIP3    H233464   0.661   5.869   2.529  0.5335  1.6935  2.0653
 4017TIP3   OH233465   0.309   4.774   2.915 -0.4889 -0.1658  0.0267
 4017TIP3    H133466   0.374   4.840   2.894  1.3141 -1.9145 -0.2076
 4017TIP3    H233467   0.254   4.769   2.837  2.6297 -2.5527 -2.3074
 4018TIP3   OH233468   5.284   1.907  12.192 -0.1924 -0.6548  0.4934
 4018TIP3    H133469   5.357   1.956  12.154 -1.0786 -0.5211 -1.1346
 4018TIP3    H233470   5.325   1.846  12.252  0.9873  1.9332  2.5213
 4019TIP3   OH233471   0.415   0.449   4.156  0.1596 -0.2760  0.3000
 4019TIP3    H133472   0.384   0.393   4.228 -3.2323 -0.5797 -1.2207
 4019TIP3    H233473   0.447   0.387   4.090 -0.3153 -0.2272  0.0226
 4020TIP3   OH233474   3.177   6.605  12.332 -0.3757  0.5648 -0.2170
 4020TIP3    H133475   3.177   6.549  12.410 -0.4553 -0.7204 -1.0926
 4020TIP3    H233476   3.126   6.681  12.356 -1.7694 -0.5542  0.5033
 4021TIP3   OH233477   2.126   0.142  11.467 -0.4227 -0.5263 -0.4789
 4021TIP3    H133478   2.062   0.132  11.397 -1.6305 -2.3589  0.8058
 4021TIP3    H233479   2.102   0.076  11.532  1.1548  0.5232  1.2964
 4022TIP3   OH233480   0.831   5.623  13.668 -0.4471  0.2375  0.0264
 4022TIP3    H133481   0.915   5.606  13.710 -1.4041  0.9593  2.3893
 4022TIP3    H233482   0.843   5.708  13.624  0.3687 -0.1975 -0.6102
 4023TIP3   OH233483   0.512   1.917  15.122  0.4943 -0.0269 -0.1496
 4023TIP3    H133484   0.486   1.829  15.096 -1.7651  0.5931 -0.1871
 4023TIP3    H233485   0.442   1.948  15.179  0.0866  2.5008 -1.8233
 4024TIP3   OH233486   1.706   0.351  16.587  0.1686  0.3878  0.4090
 4024TIP3    H133487   1.778   0.288  16.579 -0.4343 -0.5791  2.0375
 4024TIP3    H233488   1.645   0.326  16.518 -0.4948 -1.5095  1.5716
 4025TIP3   OH233489   2.558   1.719  13.034 -0.2085 -0.2557  0.7956
 4025TIP3    H133490   2.515   1.777  13.097  1.4626  1.5154  0.3906
 4025TIP3    H233491   2.642   1.761  13.015  0.2751 -1.8566 -0.9751
 4026TIP3   OH233492   5.179   1.077  17.012  0.5992 -0.6106 -0.2287
 4026TIP3    H133493   5.173   0.996  17.061 -1.6803 -0.9414 -0.9498
 4026TIP3    H233494   5.106   1.074  16.950  0.9485  1.6013 -0.8552
 4027TIP3   OH233495   6.639   4.545   4.558 -0.1263 -0.2093 -0.4950
 4027TIP3    H133496   6.583   4.618   4.532  0.4966  0.4989  0.0848
 4027TIP3    H233497   6.585   4.467   4.549 -0.8798  0.3568 -0.8934
 4028TIP3   OH233498   3.672   6.329  16.719 -0.1376 -0.1070  0.3510
 4028TIP3    H133499   3.605   6.325  16.787  0.3747 -0.6654  0.8384
 4028TIP3    H233500   3.726   6.252  16.734  1.2906  0.9148  0.6981
 4029TIP3   OH233501   0.375   4.207   2.264 -0.1354 -0.7977  0.2677
 4029TIP3    H133502   0.332   4.289   2.287 -1.2760 -1.0274 -0.9285
 4029TIP3    H233503   0.448   4.200   2.326  1.8094  2.5050 -1.3675
 4030TIP3   OH233504   5.980   3.235   1.501  0.0407  0.1020 -0.2842
 4030TIP3    H133505   6.015   3.261   1.416 -0.8614 -0.9471 -0.9990
 4030TIP3    H233506   5.908   3.296   1.517 -0.0123  0.0805 -0.4392
 4031TIP3   OH233507   3.341   6.088  15.513  0.0844 -0.7494  0.0318
 4031TIP3    H133508   3.337   6.175  15.474 -0.5741 -1.1321 -0.8058
 4031TIP3    H233509   3.409   6.094  15.580  1.7082 -0.2252 -1.5917
 4032TIP3   OH233510   2.420   0.568  13.839  0.2702 -0.4722 -0.6105
 4032TIP3    H133511   2.482   0.613  13.897  0.4175  1.0295 -1.8669
 4032TIP3    H233512   2.334   0.595  13.870  0.3327 -0.1382 -0.7222
 4033TIP3   OH233513   4.647   3.657   0.882 -0.3488 -0.3229  0.4600
 4033TIP3    H133514   4.609   3.573   0.909 -1.6798 -0.0839 -0.5527
 4033TIP3    H233515   4.704   3.682   0.955 -0.3426 -1.8384  1.0164
 4034TIP3   OH233516   2.286   0.717   5.044 -0.4946 -0.2485  0.2290
 4034TIP3    H133517   2.339   0.692   5.119  1.3951 -1.1030 -1.2907
 4034TIP3    H233518   2.299   0.811   5.034  0.9885 -0.4785 -0.2501
 4035TIP3   OH233519   6.793   5.112  13.983  0.4257  0.2065  0.5163
 4035TIP3    H133520   6.823   5.040  13.928  0.6636  0.1570  0.7121
 4035TIP3    H233521   6.869   5.136  14.036 -0.1398 -0.6065  1.7586
 4036TIP3   OH233522   4.748   3.422  17.006 -0.0145  0.0787  0.7442
 4036TIP3    H133523   4.739   3.484  16.934 -1.4624 -2.0039 -0.9773
 4036TIP3    H233524   4.815   3.360  16.978 -0.3890 -0.6017  1.2948
 4037TIP3   OH233525   1.108   6.067   3.391 -0.1858  0.3208 -0.2017
 4037TIP3    H133526   1.062   6.043   3.472  1.2128 -2.3529 -0.0752
 4037TIP3    H233527   1.113   5.985   3.342  0.7972  1.4484 -2.0768
 4038TIP3   OH233528   1.117   5.098  12.825 -0.1799 -0.2750  0.3213
 4038TIP3    H133529   1.135   5.064  12.912 -0.2125  1.2525  0.9601
 4038TIP3    H233530   1.024   5.083  12.812  0.2060 -2.4513 -0.3805
 4039TIP3   OH233531   3.203   4.949  13.661  0.4765  0.3087  0.2200
 4039TIP3    H133532   3.127   4.998  13.691  1.5034  1.4402  1.0517
 4039TIP3    H233533   3.177   4.915  13.575 -0.5019  1.7707 -0.0984
 4040TIP3   OH233534   2.630   2.047   1.453  0.3391 -0.1095 -0.6516
 4040TIP3    H133535   2.536   2.045   1.435  0.0434  0.7137  0.6289
 4040TIP3    H233536   2.666   2.108   1.388  0.0768 -0.8251 -1.4729
 4041TIP3   OH233537   3.995   4.579  11.209 -0.5039 -0.5335 -0.3617
 4041TIP3    H133538   3.930   4.515  11.237 -0.3205 -0.3151  0.5688
 4041TIP3    H233539   3.948   4.663  11.209 -0.7941 -0.6658 -1.7510
 4042TIP3   OH233540   3.518   4.353   3.410 -0.3973 -0.2941 -0.4525
 4042TIP3    H133541   3.445   4.408   3.380 -0.1204  0.4846  0.2848
 4042TIP3    H233542   3.479   4.266   3.419 -0.9948 -0.0983 -1.0193
 4043TIP3   OH233543   3.560   5.696  16.529 -0.5262 -0.5706 -0.3794
 4043TIP3    H133544   3.484   5.651  16.565  0.8801 -2.0937  0.8819
 4043TIP3    H233545   3.547   5.694  16.434 -1.5113 -1.8256 -0.2371
 4044TIP3   OH233546   5.673   0.455   1.181 -0.2180  0.2627 -0.2606
 4044TIP3    H133547   5.675   0.406   1.099 -1.9802  1.0720 -0.8302
 4044TIP3    H233548   5.758   0.498   1.186  0.3371 -0.7024 -1.0751
 4045TIP3   OH233549   2.811   3.732  15.484 -0.0953  0.8608  0.1247
 4045TIP3    H133550   2.876   3.787  15.440  1.6427  1.0718  2.7213
 4045TIP3    H233551   2.851   3.645  15.488 -1.2264  0.2789 -0.7035
 4046TIP3   OH233552   3.587   2.621  16.321  0.1434  0.0626  0.1417
 4046TIP3    H133553   3.575   2.584  16.408 -0.5142 -0.9064 -0.3405
 4046TIP3    H233554   3.515   2.684  16.312  2.0952  2.7062  1.5306
 4047TIP3   OH233555   5.388   1.670  16.624 -0.3825  0.1810 -0.3910
 4047TIP3    H133556   5.343   1.721  16.690 -0.6121 -2.2801  1.4777
 4047TIP3    H233557   5.325   1.662  16.552 -1.0656  0.8391  0.1267
 4048TIP3   OH233558   0.668   2.674  13.677 -0.4058  0.3558 -0.3686
 4048TIP3    H133559   0.687   2.582  13.696 -0.6015  0.2240 -0.8027
 4048TIP3    H233560   0.594   2.696  13.734 -0.1468  0.3439 -0.0195
 4049TIP3   OH233561   1.384   5.623   3.132 -0.6714 -0.0664 -0.3694
 4049TIP3    H133562   1.410   5.532   3.125  1.8858  0.6660 -1.6402
 4049TIP3    H233563   1.373   5.652   3.042  1.5631  1.5757 -0.2108
 4050TIP3   OH233564   3.107   5.204   4.677  0.5046 -0.6004  0.2044
 4050TIP3    H133565   3.151   5.289   4.684  1.6355 -1.0060 -1.2960
 4050TIP3    H233566   3.123   5.161   4.761 -0.0515  0.6205  0.9705
 4051TIP3   OH233567   1.794   4.456  13.290 -0.0081 -0.1026 -0.4314
 4051TIP3    H133568   1.750   4.481  13.208  0.8853  0.7443 -0.6708
 4051TIP3    H233569   1.834   4.372  13.271 -0.8028 -0.4839 -0.4763
 4052TIP3   OH233570   2.334   0.400   2.834 -0.3519 -0.3102  0.4814
 4052TIP3    H133571   2.337   0.401   2.930 -0.0434 -0.4472  0.4766
 4052TIP3    H233572   2.418   0.436   2.807 -1.5660  2.5296  0.2248
 4053TIP3   OH233573   6.748   6.010   0.875 -0.1945  0.4748 -0.9602
 4053TIP3    H133574   6.798   6.013   0.794  0.9596  0.3338 -0.2720
 4053TIP3    H233575   6.779   5.931   0.920 -2.0330 -0.4104 -1.1298
 4054TIP3   OH233576   3.718   0.628   0.099  0.1924  0.1936 -0.6085
 4054TIP3    H133577   3.632   0.621   0.141 -0.2331 -0.2144 -1.5289
 4054TIP3    H233578   3.753   0.539   0.100  0.5853  0.3457 -0.3017
 4055TIP3   OH233579   4.601   2.770   0.409  0.5838 -0.2423  0.5175
 4055TIP3    H133580   4.526   2.826   0.427  0.6069 -0.7199  2.2290
 4055TIP3    H233581   4.677   2.828   0.419  0.5305  0.9328 -3.6877
 4056TIP3   OH233582   4.372   0.805   1.324  0.3417 -0.6532 -0.8615
 4056TIP3    H133583   4.459   0.774   1.300  0.7562  0.0438 -0.2991
 4056TIP3    H233584   4.381   0.833   1.415  0.1804  1.6689 -1.4831
 4057TIP3   OH233585   6.735   1.576   5.381 -0.0730 -0.1479  0.6832
 4057TIP3    H133586   6.661   1.619   5.337  0.0292 -0.6743 -0.0323
 4057TIP3    H233587   6.767   1.641   5.443 -0.2929  0.5874  0.0471
 4058TIP3   OH233588   6.192   5.748  15.386 -0.0106 -0.1003 -0.4361
 4058TIP3    H133589   6.134   5.740  15.462 -1.0973  1.8369 -1.0002
 4058TIP3    H233590   6.154   5.690  15.320  0.8890 -1.7230  0.4093
 4059TIP3   OH233591   5.876   5.007  10.234 -0.0947  0.9298 -0.2164
 4059TIP3    H133592   5.876   5.098  10.265  2.1240  1.2475 -0.9796
 4059TIP3    H233593   5.933   5.008  10.157  0.7449 -1.2699  0.3006
 4060TIP3   OH233594   0.431   1.729   2.723  0.0901 -0.3154 -0.1411
 4060TIP3    H133595   0.461   1.691   2.805  0.1574 -0.5524 -0.2770
 4060TIP3    H233596   0.476   1.814   2.718  0.4393 -0.5007 -0.1588
 4061TIP3   OH233597   1.259   5.262  16.049  0.0578  0.0006  0.4706
 4061TIP3    H133598   1.283   5.217  16.130 -0.1675 -2.5671 -0.7868
 4061TIP3    H233599   1.168   5.240  16.034  0.3588 -0.3963 -0.9648
 4062TIP3   OH233600   5.662   1.109   5.763  0.5406  0.5220  0.5282
 4062TIP3    H133601   5.639   1.189   5.810  2.6698  0.4858  1.7484
 4062TIP3    H233602   5.579   1.077   5.730 -1.0068  1.1038  3.4531
 4063TIP3   OH233603   2.761   4.949  14.362  0.1192  0.1036 -0.0872
 4063TIP3    H133604   2.746   5.022  14.422 -2.0107 -1.1708  1.0484
 4063TIP3    H233605   2.757   4.871  14.417  0.3183 -0.9931 -1.5558
 4064TIP3   OH233606   0.815   4.195  11.004 -0.1350  0.4008 -0.2593
 4064TIP3    H133607   0.725   4.166  11.018 -0.8925  2.0599 -1.3844
 4064TIP3    H233608   0.841   4.152  10.922  0.1602 -0.1576  0.1168
 4065TIP3   OH233609   3.505   3.605  15.452  0.8683 -0.8947  0.1875
 4065TIP3    H133610   3.520   3.699  15.438 -0.3176 -0.1171  3.2806
 4065TIP3    H233611   3.425   3.585  15.404  1.2457 -0.3863 -0.6660
 4066TIP3   OH233612   3.146   5.550   5.476  0.1816  0.2544 -0.8096
 4066TIP3    H133613   3.200   5.491   5.529  1.5993  1.4180 -0.8865
 4066TIP3    H233614   3.060   5.508   5.472  0.5857 -0.7844  0.8078
 4067TIP3   OH233615   6.659   1.510  11.537 -0.1752  0.4680  0.4318
 4067TIP3    H133616   6.566   1.485  11.531 -0.2585  0.6964  0.7372
 4067TIP3    H233617   6.702   1.460  11.468 -0.5551  0.4850  0.1790
 4068TIP3   OH233618   1.415   4.074   2.631 -0.2446  0.2069  0.1533
 4068TIP3    H133619   1.346   4.091   2.567  0.9006 -1.0288 -1.5000
 4068TIP3    H233620   1.380   4.003   2.686 -0.2397 -0.5474 -0.7953
 4069TIP3   OH233621   3.308   6.685   5.347  0.5265  0.4400  0.4404
 4069TIP3    H133622   3.258   6.649   5.420 -1.4460  2.1772  0.0530
 4069TIP3    H233623   3.362   6.753   5.387 -1.0715  1.8834  0.3026
 4070TIP3   OH233624   4.504   4.382   0.554  0.1715  0.3041 -0.1169
 4070TIP3    H133625   4.440   4.339   0.611  0.0930  0.1757 -0.3009
 4070TIP3    H233626   4.585   4.333   0.568 -0.0556 -0.2795 -0.7547
 4071TIP3   OH233627   1.520   2.454  14.172 -0.4805 -0.0780 -0.1769
 4071TIP3    H133628   1.439   2.503  14.157 -0.3426  0.2428  0.1061
 4071TIP3    H233629   1.560   2.497  14.247 -0.2242 -0.4631 -0.0915
 4072TIP3   OH233630   3.671   0.815   1.887 -0.1172  0.7319  0.0992
 4072TIP3    H133631   3.589   0.781   1.921 -0.4662  0.4694 -0.9785
 4072TIP3    H233632   3.655   0.830   1.794  1.7715 -1.6681 -0.7309
 4073TIP3   OH233633   1.539   6.679   4.209  0.5993  0.3380  0.5827
 4073TIP3    H133634   1.453   6.711   4.182 -0.4372 -2.0925  0.7146
 4073TIP3    H233635   1.587   6.668   4.127  0.0914 -0.1061  0.3440
 4074TIP3   OH233636   3.263   0.559  11.287  0.7673 -0.1100  0.4212
 4074TIP3    H133637   3.225   0.614  11.356  2.2688  0.0844  1.1273
 4074TIP3    H233638   3.197   0.561  11.217 -0.7089 -0.1573  1.7461
 4075TIP3   OH233639   5.520   1.508   0.560 -0.0315  0.2114 -0.2853
 4075TIP3    H133640   5.516   1.599   0.588  0.6443 -0.2961  1.5875
 4075TIP3    H233641   5.437   1.493   0.515 -0.5728  1.4887  0.2472
 4076TIP3   OH233642   2.871   0.680  14.024 -0.5766  0.6602 -0.2165
 4076TIP3    H133643   2.836   0.709  13.940 -2.4434 -1.4305 -0.2489
 4076TIP3    H233644   2.870   0.759  14.079  0.5867  2.0430 -2.0539
 4077TIP3   OH233645   2.554   3.224  14.095 -0.1559  0.0001 -0.6073
 4077TIP3    H133646   2.466   3.202  14.067 -1.0289  1.2341  1.0130
 4077TIP3    H233647   2.556   3.205  14.189  1.5899 -0.8023 -0.7619
 4078TIP3   OH233648   0.222   4.929  14.745 -0.1216 -0.0196 -0.1369
 4078TIP3    H133649   0.258   4.848  14.710  0.2291  0.7002 -1.5127
 4078TIP3    H233650   0.297   4.975  14.783 -0.4168 -0.5725  1.1713
 4079TIP3   OH233651   0.707   1.738   1.479 -0.2818 -0.2524 -0.1086
 4079TIP3    H133652   0.740   1.698   1.560 -0.5915 -0.7878 -0.2371
 4079TIP3    H233653   0.783   1.742   1.422 -0.3691 -1.2422 -0.3134
 4080TIP3   OH233654   0.772   0.134  15.543 -0.5373  0.4850  0.0805
 4080TIP3    H133655   0.766   0.039  15.552  0.1020  0.4087 -0.2263
 4080TIP3    H233656   0.864   0.154  15.563 -0.6856  1.0467  0.2157
 4081TIP3   OH233657   1.050   6.596  15.567 -0.1709  0.1651  0.4976
 4081TIP3    H133658   1.042   6.646  15.486  0.6366  0.4296  0.5680
 4081TIP3    H233659   1.098   6.655  15.626 -1.4124  0.2831  1.4297
 4082TIP3   OH233660   4.028   3.694   3.637 -0.5175  0.1270 -0.0879
 4082TIP3    H133661   4.026   3.750   3.714  2.9827  0.7468 -0.2910
 4082TIP3    H233662   3.982   3.615   3.663 -3.3687  2.0065  1.0421
 4083TIP3   OH233663   3.715   2.093  16.305 -0.8073  0.2975  0.1650
 4083TIP3    H133664   3.660   2.114  16.381 -0.2694  0.2450  0.5706
 4083TIP3    H233665   3.697   2.164  16.243  1.8092  2.7386  1.9523
 4084TIP3   OH233666   1.627   5.588  16.039  0.3194 -0.1405 -0.4183
 4084TIP3    H133667   1.658   5.516  15.985 -0.4042 -1.2759  0.6392
 4084TIP3    H233668   1.533   5.592  16.024 -0.0726 -1.1359  1.4489
 4085TIP3   OH233669   5.557   3.948   5.703 -0.3519  0.1424 -0.3025
 4085TIP3    H133670   5.496   4.020   5.689 -0.4465  0.0673 -0.2814
 4085TIP3    H233671   5.530   3.880   5.641 -0.0344  0.2676 -0.5752
 4086TIP3   OH233672   3.756   0.019  14.159  0.4046 -0.2805  0.0769
 4086TIP3    H133673   3.772  -0.055  14.099  0.0506  0.4558 -0.9505
 4086TIP3    H233674   3.697   0.077  14.111  1.1166  0.9555  0.6443
 4087TIP3   OH233675   2.493   0.100  11.983  0.6963 -0.5898 -0.6152
 4087TIP3    H133676   2.587   0.117  11.991  1.2422 -3.1528 -0.7958
 4087TIP3    H233677   2.477   0.096  11.889  0.6251 -1.1257 -0.5851
 4088TIP3   OH233678   0.283   1.247  14.435 -0.4377 -0.7735 -0.4343
 4088TIP3    H133679   0.228   1.311  14.482  1.8003  0.2931  0.8848
 4088TIP3    H233680   0.296   1.176  14.497  1.6026  0.1136  0.2330
 4089TIP3   OH233681   6.668   0.779   1.340  0.0189 -0.0484 -0.1822
 4089TIP3    H133682   6.590   0.738   1.303  0.6002 -2.3219  0.9181
 4089TIP3    H233683   6.740   0.746   1.286  0.4027  0.6819 -0.1374
 4090TIP3   OH233684   2.461   3.544  14.802  0.0618  0.3988  0.1146
 4090TIP3    H133685   2.412   3.481  14.854 -0.5827  1.2426  0.5615
 4090TIP3    H233686   2.447   3.517  14.711 -0.8682  0.3668  0.2622
 4091TIP3   OH233687   3.847   3.657  11.083 -0.1423  0.3966  0.0753
 4091TIP3    H133688   3.926   3.604  11.083 -1.2117 -1.2467  0.4270
 4091TIP3    H233689   3.834   3.680  10.991 -0.5961 -1.4435 -0.3589
 4092TIP3   OH233690   5.008   3.873  13.234  0.1684 -0.4918  0.0997
 4092TIP3    H133691   5.100   3.847  13.234  0.1037 -0.7564  1.1906
 4092TIP3    H233692   4.965   3.806  13.288 -0.4529  0.3409  0.6476
 4093TIP3   OH233693   6.705   5.667  16.456 -0.1985  0.7647  0.2217
 4093TIP3    H133694   6.748   5.703  16.379 -0.2034 -0.8781 -0.5914
 4093TIP3    H233695   6.642   5.734  16.482 -0.1026  1.4147 -1.1369
 4094TIP3   OH233696   0.876   0.091   5.623 -0.3105  0.7548 -0.3773
 4094TIP3    H133697   0.791   0.060   5.594 -0.3089  0.2177  0.1728
 4094TIP3    H233698   0.931   0.013   5.626  0.0770  1.0277 -0.3191
 4095TIP3   OH233699   3.118   3.821  11.273  0.2473  0.3040  0.2262
 4095TIP3    H133700   3.071   3.904  11.260 -0.0580  0.0428 -0.4070
 4095TIP3    H233701   3.145   3.795  11.185  1.5414  0.4088  0.5752
 4096TIP3   OH233702   1.621   1.774   5.353 -0.3739  0.1968  0.2695
 4096TIP3    H133703   1.708   1.773   5.314 -0.6807  0.6769 -0.4435
 4096TIP3    H233704   1.586   1.860   5.331 -1.1599 -0.1207  0.2576
 4097TIP3   OH233705   3.765   0.266   3.601  0.2445 -0.1025 -0.0971
 4097TIP3    H133706   3.830   0.237   3.538 -0.5094 -1.4428 -0.2965
 4097TIP3    H233707   3.701   0.195   3.605 -0.6639  0.7182  0.8627
 4098TIP3   OH233708   3.993   4.692  14.869 -0.0348 -0.1630 -0.2343
 4098TIP3    H133709   4.072   4.741  14.846  0.3204 -0.8954 -0.6161
 4098TIP3    H233710   4.022   4.601  14.872 -1.2245 -0.6458 -2.1529
 4099TIP3   OH233711   5.726   4.633   0.850 -0.1069  0.0150 -0.1519
 4099TIP3    H133712   5.802   4.635   0.908  1.9471 -0.7449 -2.6280
 4099TIP3    H233713   5.721   4.542   0.822 -3.1974 -0.3970  1.3890
 4100TIP3   OH233714   6.732   5.492  16.133  0.1021 -0.2962 -0.1854
 4100TIP3    H133715   6.764   5.573  16.173 -2.7515  1.0533 -0.3173
 4100TIP3    H233716   6.689   5.521  16.052 -0.2859 -2.0501 -0.6491
 4101TIP3   OH233717   6.488   5.292  12.168 -0.2598 -0.7293 -0.3297
 4101TIP3    H133718   6.404   5.283  12.124  0.4855  1.3401 -2.3550
 4101TIP3    H233719   6.521   5.377  12.140  1.4469 -0.3892  2.3199
 4102TIP3   OH233720   3.062   1.144   4.541  0.0017 -0.3148 -0.1503
 4102TIP3    H133721   2.970   1.169   4.537 -0.2868 -1.2064  0.5347
 4102TIP3    H233722   3.075   1.117   4.632  0.8119 -0.6849 -0.3679
 4103TIP3   OH233723   4.775   4.905  12.789 -0.1459  0.1017  0.0437
 4103TIP3    H133724   4.754   4.983  12.738  0.7863  0.1798 -0.2470
 4103TIP3    H233725   4.761   4.832  12.728  0.2190  0.1374 -0.0833
 4104TIP3   OH233726   2.227   0.441  15.387 -0.0207  0.2930  0.2677
 4104TIP3    H133727   2.171   0.385  15.440 -2.2373  2.3664  0.2625
 4104TIP3    H233728   2.177   0.457  15.307  1.9973 -0.3614 -1.2356
 4105TIP3   OH233729   6.053   0.456  14.497 -0.6399  0.4112 -0.1843
 4105TIP3    H133730   6.140   0.494  14.489  0.3115 -1.4306  0.7120
 4105TIP3    H233731   6.003   0.494  14.424  1.5519 -0.1832 -2.1029
 4106TIP3   OH233732   4.909   5.761   6.152 -0.2174 -0.8731  0.3971
 4106TIP3    H133733   4.963   5.688   6.183 -0.1885 -1.0345 -0.0293
 4106TIP3    H233734   4.825   5.722   6.130 -0.3089 -0.7227  0.4788
 4107TIP3   OH233735   5.635   4.138   1.510  0.7701 -0.0138  0.7919
 4107TIP3    H133736   5.596   4.161   1.425  1.1584 -2.3858 -0.1225
 4107TIP3    H233737   5.730   4.146   1.496  0.7924  1.5208  1.6591
 4108TIP3   OH233738   1.919   5.435  11.695 -0.1318 -0.0816 -0.2471
 4108TIP3    H133739   1.832   5.442  11.654 -0.9448 -0.4644  1.3142
 4108TIP3    H233740   1.969   5.380  11.635 -1.0031  0.0631 -1.1334
 4109TIP3   OH233741   3.229   0.086   1.001 -0.7940  0.3069  0.0873
 4109TIP3    H133742   3.160   0.107   1.064  0.0933  1.1265  0.8056
 4109TIP3    H233743   3.307   0.073   1.054 -0.2105  0.1979 -0.7824
 4110TIP3   OH233744   1.798   2.386  15.237 -0.0048  0.0137 -0.4561
 4110TIP3    H133745   1.773   2.453  15.302 -0.7863  2.6397 -3.2092
 4110TIP3    H233746   1.719   2.376  15.183  0.6208 -2.0568 -1.0575
 4111TIP3   OH233747   4.611   5.310  16.974 -0.2989  0.0748 -0.0155
 4111TIP3    H133748   4.574   5.274  16.893 -0.2109  1.5588 -0.7587
 4111TIP3    H233749   4.603   5.239  17.038 -2.3298 -0.4260 -0.7482
 4112TIP3   OH233750   3.828   0.974   0.646  0.2043 -0.3667 -0.0348
 4112TIP3    H133751   3.858   0.899   0.596  1.7562 -0.7243  1.3561
 4112TIP3    H233752   3.771   0.937   0.713  0.8849 -0.3130  0.5850
 4113TIP3   OH233753   6.734   3.556  16.040  0.2239 -0.0006 -0.6370
 4113TIP3    H133754   6.720   3.643  16.003 -0.3548  0.6441  0.9777
 4113TIP3    H233755   6.826   3.536  16.023  0.1075  0.4872 -1.8890
 4114TIP3   OH233756   3.871   3.035  11.230 -0.4566 -0.1015  0.2696
 4114TIP3    H133757   3.788   3.032  11.183  0.1139 -1.0799 -0.7202
 4114TIP3    H233758   3.852   2.999  11.317 -0.7482 -1.9043 -0.5004
 4115TIP3   OH233759   1.828   1.469  12.758  0.2772  0.3179  0.1353
 4115TIP3    H133760   1.754   1.530  12.756  0.5602  0.6493 -1.1727
 4115TIP3    H233761   1.904   1.524  12.776  0.3611  0.1361  0.3471
 4116TIP3   OH233762   1.609   0.168  16.839  0.0490  0.4088 -0.0758
 4116TIP3    H133763   1.587   0.102  16.773 -0.8573 -1.0134  1.5909
 4116TIP3    H233764   1.699   0.194  16.818 -0.3536  0.3395 -2.1118
 4117TIP3   OH233765   3.544   2.669  16.717 -0.1006 -0.3265  0.0242
 4117TIP3    H133766   3.550   2.746  16.661 -0.9016 -0.8038 -0.7433
 4117TIP3    H233767   3.559   2.595  16.658  0.0787 -0.7930  0.6404
 4118TIP3   OH233768   3.839   1.191  15.893 -0.1742  0.3513 -0.6677
 4118TIP3    H133769   3.823   1.284  15.908  1.5757  0.7390 -0.9444
 4118TIP3    H233770   3.910   1.189  15.829  0.5452 -1.1647  0.1331
 4119TIP3   OH233771   4.519   4.844  15.813  0.0271  0.5423  0.4851
 4119TIP3    H133772   4.481   4.851  15.725  1.6161 -0.6620 -0.3510
 4119TIP3    H233773   4.446   4.815  15.868 -0.2768 -2.2196 -1.1720
 4120TIP3   OH233774   4.400   5.379  16.657 -0.1259 -0.0294  0.5356
 4120TIP3    H133775   4.434   5.320  16.724 -0.1381  0.5227  1.0333
 4120TIP3    H233776   4.354   5.447  16.706  0.8164  0.9989  0.0374
 4121TIP3   OH233777   6.033   1.074  16.894 -0.3032  0.4864  0.3481
 4121TIP3    H133778   6.099   1.081  16.824 -0.3752 -0.6775  0.1319
 4121TIP3    H233779   5.998   1.162  16.903 -0.5706  0.6069 -1.3844
 4122TIP3   OH233780   5.269   0.038   5.683 -0.9978  0.0489  0.2008
 4122TIP3    H133781   5.342   0.044   5.745 -1.2089  0.1449  0.4449
 4122TIP3    H233782   5.196   0.006   5.736 -0.6970 -1.7818 -0.4035
 4123TIP3   OH233783   1.699   5.962  15.679  0.3039  0.2768 -0.9962
 4123TIP3    H133784   1.755   5.968  15.602 -1.5472  1.5545 -2.3380
 4123TIP3    H233785   1.615   5.999  15.651 -0.1211  1.8972  1.9768
 4124TIP3   OH233786   2.440   3.103   4.207  0.2901 -0.0831  0.0643
 4124TIP3    H133787   2.428   3.147   4.122  0.0829 -0.1383  0.0650
 4124TIP3    H233788   2.451   3.011   4.184 -0.4874 -0.2000  0.1450
 4125TIP3   OH233789   0.254   5.938  11.659  0.5531  0.4030  0.7474
 4125TIP3    H133790   0.175   5.886  11.646  1.8923 -1.8840  1.2107
 4125TIP3    H233791   0.268   5.982  11.576  1.3414 -2.9137 -1.0327
 4126TIP3   OH233792   2.171   5.838   4.265  0.4100  0.0523  0.3137
 4126TIP3    H133793   2.156   5.932   4.259  0.3225  0.0217  0.0395
 4126TIP3    H233794   2.097   5.798   4.219 -0.4481 -0.2112  1.8594
 4127TIP3   OH233795   6.371   6.768   2.319 -0.0072 -0.4314  0.5787
 4127TIP3    H133796   6.306   6.796   2.384  0.9792  0.2842  1.3110
 4127TIP3    H233797   6.395   6.680   2.346 -0.2247 -0.4601  0.6821
 4128TIP3   OH233798   0.497   3.150   5.254  0.5305  0.6921 -0.2756
 4128TIP3    H133799   0.507   3.197   5.172 -1.5963 -2.5507 -2.6421
 4128TIP3    H233800   0.406   3.166   5.281  0.5123 -0.0808  0.1774
 4129TIP3   OH233801   5.336   5.433  14.564 -0.2818 -0.1786 -0.2010
 4129TIP3    H133802   5.395   5.360  14.583  0.6194  1.0219  2.0283
 4129TIP3    H233803   5.249   5.396  14.574  0.0625 -1.5629 -1.8184
 4130TIP3   OH233804   0.959   3.162  15.027 -0.0415  0.1516 -0.2344
 4130TIP3    H133805   0.947   3.208  15.110 -1.5022  1.5478 -1.1764
 4130TIP3    H233806   0.914   3.215  14.962  0.3177 -1.3542 -1.8152
 4131TIP3   OH233807   1.100   6.137   2.110  0.5779  0.4444 -0.1923
 4131TIP3    H133808   1.079   6.095   2.027 -0.9529 -0.7624  0.7494
 4131TIP3    H233809   1.195   6.130   2.118  0.4357 -2.7206 -0.1922
 4132TIP3   OH233810   2.343   0.489   2.049 -0.2885 -0.4984 -0.0791
 4132TIP3    H133811   2.389   0.420   2.002  1.2067 -0.2130  0.9018
 4132TIP3    H233812   2.252   0.482   2.019 -0.1401 -2.7452 -0.1561
 4133TIP3   OH233813   4.241   0.284  15.350 -0.4966  0.2043 -0.5479
 4133TIP3    H133814   4.183   0.222  15.304 -1.8143  1.4737 -0.6790
 4133TIP3    H233815   4.219   0.369  15.312  0.9477  0.8264 -0.0365
 4134TIP3   OH233816   4.048   0.078  16.800  0.1989  0.1363  0.2033
 4134TIP3    H133817   4.014   0.086  16.711 -2.9084 -0.5677  1.1975
 4134TIP3    H233818   4.076   0.166  16.824 -0.0372  0.5614 -1.0623
 4135TIP3   OH233819   1.927   2.713  11.159  0.1784  1.0845  0.1536
 4135TIP3    H133820   1.954   2.629  11.195 -2.5319  0.5298  1.1125
 4135TIP3    H233821   1.929   2.773  11.234  1.1659  1.6585 -0.3177
 4136TIP3   OH233822   0.055   3.473  15.063  0.5289  0.2042 -0.0377
 4136TIP3    H133823  -0.040   3.487  15.062  0.7373  1.9910 -1.3378
 4136TIP3    H233824   0.075   3.440  14.975  1.2243  0.9342 -0.1630
 4137TIP3   OH233825   1.166   5.390   5.135 -0.0360 -0.1028 -0.0258
 4137TIP3    H133826   1.250   5.434   5.119  1.0475 -2.4634 -1.3984
 4137TIP3    H233827   1.184   5.331   5.208 -1.1593  0.8650  1.0745
 4138TIP3   OH233828   0.281   1.661  12.904  0.2318 -0.3221  0.0407
 4138TIP3    H133829   0.340   1.586  12.909  0.4421 -0.0942  1.4463
 4138TIP3    H233830   0.210   1.640  12.965 -2.4292 -1.5856 -3.1377
 4139TIP3   OH233831   4.216   1.140   6.165 -0.0388 -0.0984  0.2463
 4139TIP3    H133832   4.150   1.072   6.150 -0.4067  0.0363  1.2035
 4139TIP3    H233833   4.267   1.142   6.083  1.1597 -2.7920  0.8149
 4140TIP3   OH233834   4.601   1.640   4.582 -0.2254 -0.3017 -0.1070
 4140TIP3    H133835   4.694   1.656   4.599 -0.1130 -1.8848  0.9465
 4140TIP3    H233836   4.556   1.705   4.635  0.2420 -2.1718  2.7968
 4141TIP3   OH233837   5.538   5.287   5.119  0.5145 -0.0647 -0.3604
 4141TIP3    H133838   5.592   5.305   5.042 -0.3970 -0.0431 -1.0090
 4141TIP3    H233839   5.476   5.359   5.122  0.7039  0.0765  0.5641
 4142TIP3   OH233840   3.306   0.602   0.119 -0.1748 -0.4710 -0.1794
 4142TIP3    H133841   3.351   0.553   0.188 -0.7480  1.2190  1.4787
 4142TIP3    H233842   3.225   0.554   0.105  0.4123 -1.4169 -0.4758
 4143TIP3   OH233843   3.158   1.248   1.169 -0.3839  0.1518  0.3179
 4143TIP3    H133844   3.192   1.166   1.206 -2.5328 -0.8067  0.2872
 4143TIP3    H233845   3.228   1.278   1.110 -0.1912 -2.6128 -1.0389
 4144TIP3   OH233846   5.317   2.356   4.093 -0.0405  0.2671 -0.4277
 4144TIP3    H133847   5.293   2.368   4.000  1.4503  0.5367 -0.7997
 4144TIP3    H233848   5.409   2.331   4.091  0.1949  0.9469  1.0318
 4145TIP3   OH233849   2.439   4.640  11.336 -0.5369 -1.0529  0.1682
 4145TIP3    H133850   2.473   4.647  11.425 -1.4557 -0.6322  0.5013
 4145TIP3    H233851   2.497   4.577  11.293  0.2673 -0.8241  0.8851
 4146TIP3   OH233852   2.198   0.238   3.574  0.0579 -0.5971 -0.2580
 4146TIP3    H133853   2.193   0.171   3.642 -1.7921 -0.0540  0.2141
 4146TIP3    H233854   2.106   0.257   3.553  0.5754  0.0912 -2.0671
 4147TIP3   OH233855   5.997   6.766  14.265  0.2886  0.8151  0.0936
 4147TIP3    H133856   6.069   6.785  14.325  1.0945  0.3115 -0.6970
 4147TIP3    H233857   5.986   6.671  14.270 -3.1594  1.1292  3.3897
 4148TIP3   OH233858   1.594   3.916  11.399  0.0015 -0.5535  0.1138
 4148TIP3    H133859   1.612   3.831  11.441  1.7843 -0.1098  0.3408
 4148TIP3    H233860   1.646   3.914  11.318  0.2245  0.3876  0.2224
 4149TIP3   OH233861   4.702   5.993   2.401  0.6059  0.3880 -0.1922
 4149TIP3    H133862   4.787   5.996   2.357  0.1418 -1.3049 -1.2755
 4149TIP3    H233863   4.693   5.903   2.431 -1.3764  0.1532 -1.3007
 4150TIP3   OH233864   5.844   2.848   1.033 -0.1571 -0.5781  0.2046
 4150TIP3    H133865   5.753   2.832   1.008 -0.5875 -0.0653  1.3777
 4150TIP3    H233866   5.878   2.761   1.057  0.0644 -0.9725 -1.3862
 4151TIP3   OH233867   1.071   5.293   0.959 -0.6434  0.3943 -0.0908
 4151TIP3    H133868   1.145   5.353   0.962 -0.2614 -0.0923  1.8466
 4151TIP3    H233869   1.084   5.243   0.879  0.7000  0.8593 -0.1899
 4152TIP3   OH233870   4.922   4.639   5.348 -0.0846  0.4697 -0.4463
 4152TIP3    H133871   4.866   4.580   5.398 -1.0862  1.8237  0.0806
 4152TIP3    H233872   4.994   4.660   5.408 -0.2969  0.6314 -0.2478
 4153TIP3   OH233873   4.049   2.648   3.657  0.3016 -0.0206 -0.0149
 4153TIP3    H133874   4.031   2.740   3.671 -1.9258 -0.0352 -2.2101
 4153TIP3    H233875   4.139   2.646   3.624  0.6551  1.2445  0.8117
 4154TIP3   OH233876   3.487   0.179  16.956  0.1015 -1.0080  0.0024
 4154TIP3    H133877   3.550   0.177  16.885  0.1471  0.0086 -0.0042
 4154TIP3    H233878   3.537   0.204  17.034 -0.2839 -0.1515 -0.0113
 4155TIP3   OH233879   5.497   2.412   3.834  0.0578  0.1252 -0.6474
 4155TIP3    H133880   5.448   2.391   3.755  2.4374  1.4103 -2.5948
 4155TIP3    H233881   5.589   2.396   3.811  0.7731 -0.5367  2.2523
 4156TIP3   OH233882   0.278   6.002  13.650 -0.3457 -0.1721  0.0472
 4156TIP3    H133883   0.203   5.951  13.679 -1.1518 -1.2625 -3.5364
 4156TIP3    H233884   0.353   5.945  13.666 -0.3965  0.2438  2.0594
 4157TIP3   OH233885   5.830   2.395   4.736  0.3663 -0.2811 -0.0378
 4157TIP3    H133886   5.896   2.441   4.788 -0.6292 -0.6019  1.5882
 4157TIP3    H233887   5.787   2.463   4.685 -0.6923  0.5709  1.9012
 4158TIP3   OH233888   0.261   5.732  14.118 -0.3209 -0.1753 -0.5470
 4158TIP3    H133889   0.345   5.771  14.142 -1.7701  1.6265  2.1561
 4158TIP3    H233890   0.238   5.773  14.035  0.0194  1.9086  0.3241
 4159TIP3   OH233891   4.863   6.656  13.765 -0.2497 -0.2982  0.1747
 4159TIP3    H133892   4.826   6.576  13.727  0.8484 -1.4680  1.4530
 4159TIP3    H233893   4.795   6.689  13.823 -0.6275 -0.4295 -0.1929
 4160TIP3   OH233894   0.875   6.669   0.222  0.6623 -0.0717 -0.3740
 4160TIP3    H133895   0.967   6.693   0.239  0.2792 -0.1639  2.3318
 4160TIP3    H233896   0.852   6.611   0.294 -1.1514 -1.1948 -1.7785
 4161TIP3   OH233897   1.293   5.807  15.144  0.6892 -0.0487  0.2811
 4161TIP3    H133898   1.358   5.767  15.202  1.0483 -0.8914 -0.6669
 4161TIP3    H233899   1.271   5.737  15.082  0.1679  0.7642 -0.4654
 4162TIP3   OH233900   0.358   1.028  15.959 -0.3999  0.5779  0.0309
 4162TIP3    H133901   0.442   1.018  15.914 -0.6781  0.7005 -0.5167
 4162TIP3    H233902   0.303   1.077  15.898 -0.8319  0.6091  0.4385
 4163TIP3   OH233903   2.546   5.526   1.707  0.0548  0.0504 -0.0260
 4163TIP3    H133904   2.591   5.481   1.779 -0.2046  1.3929  1.0240
 4163TIP3    H233905   2.616   5.576   1.664 -0.0121  0.2420  0.0885
 4164TIP3   OH233906   1.212   4.138  16.395 -0.5411 -0.2215 -0.0663
 4164TIP3    H133907   1.274   4.086  16.446 -0.5902 -1.0913 -0.8701
 4164TIP3    H233908   1.259   4.219  16.375 -0.2890 -0.1438  0.7764
 4165TIP3   OH233909   2.162   2.283   3.446  0.2143  0.0383 -0.1351
 4165TIP3    H133910   2.253   2.271   3.419  0.0450 -1.4957 -0.0830
 4165TIP3    H233911   2.113   2.220   3.394 -0.5787 -0.3794  1.0875
 4166TIP3   OH233912   3.529   1.669  11.769  0.0330 -0.2462 -0.2642
 4166TIP3    H133913   3.504   1.651  11.860 -0.8069 -0.8386 -0.6028
 4166TIP3    H233914   3.465   1.621  11.717  0.3709  0.2787 -1.1744
 4167TIP3   OH233915   1.497   2.876  13.553 -0.5417  0.3764  0.0351
 4167TIP3    H133916   1.573   2.873  13.611 -0.0974 -2.6558 -0.5361
 4167TIP3    H233917   1.423   2.853  13.609 -0.9992  2.4888  0.4011
 4168TIP3   OH233918   6.579   3.458   2.084  0.1033  0.0493 -0.1031
 4168TIP3    H133919   6.524   3.521   2.039  0.4089  1.8530  1.8526
 4168TIP3    H233920   6.636   3.512   2.139  2.9438 -1.7832 -1.0515
 4169TIP3   OH233921   5.805   6.659   4.634 -0.1626  0.1959  0.5825
 4169TIP3    H133922   5.761   6.667   4.549 -1.0122 -0.8337  0.9002
 4169TIP3    H233923   5.817   6.749   4.664  1.5152  0.6524 -1.2860
 4170TIP3   OH233924   6.598   3.801   2.085  0.3931 -0.0176 -0.1406
 4170TIP3    H133925   6.648   3.746   2.145  0.2360 -0.7603 -0.6767
 4170TIP3    H233926   6.664   3.857   2.044  0.7169 -0.6001 -0.4307
 4171TIP3   OH233927   2.604   1.046   4.898  0.4247 -0.1182 -0.1024
 4171TIP3    H133928   2.551   1.011   4.969  1.4069 -0.9071  0.2604
 4171TIP3    H233929   2.614   1.139   4.920  0.5393 -0.3078  0.6865
 4172TIP3   OH233930   0.772   4.204   0.356  0.4027  0.0393  0.2266
 4172TIP3    H133931   0.704   4.268   0.378  0.2820 -0.0524  0.1224
 4172TIP3    H233932   0.852   4.240   0.394  0.3056  0.1750  0.3032
 4173TIP3   OH233933   3.989   3.986  13.347 -0.1570 -0.5123  0.1708
 4173TIP3    H133934   4.057   3.923  13.325 -0.0198 -0.3541  0.1457
 4173TIP3    H233935   4.001   4.058  13.285  0.0763 -0.1776  0.6052
 4174TIP3   OH233936   6.803   6.104  13.201  0.7798  0.1307  0.2056
 4174TIP3    H133937   6.852   6.140  13.126  1.2023  2.3586  1.4590
 4174TIP3    H233938   6.861   6.038  13.238  2.1005  1.4282  0.5581
 4175TIP3   OH233939   4.911   5.193  10.623 -0.6888 -0.2424  0.2907
 4175TIP3    H133940   4.884   5.284  10.630  0.6103  0.0927  1.1726
 4175TIP3    H233941   4.976   5.192  10.553  0.3204 -0.2371  1.2160
 4176TIP3   OH233942   0.069   1.531  13.681  0.1195  0.1002  0.1617
 4176TIP3    H133943   0.075   1.546  13.587  1.5932 -0.3864  0.1491
 4176TIP3    H233944   0.149   1.570  13.716 -0.3915  0.2360  1.2118
 4177TIP3   OH233945   5.365   4.660  10.958  0.0599 -0.5343 -0.2286
 4177TIP3    H133946   5.339   4.718  11.029  2.4702 -0.6312  0.8188
 4177TIP3    H233947   5.337   4.573  10.986  0.4788 -0.4905  0.3383
 4178TIP3   OH233948   6.421   5.993   1.076 -0.6584 -0.1189 -0.5337
 4178TIP3    H133949   6.329   6.021   1.073 -0.2164  1.4613 -0.1322
 4178TIP3    H233950   6.470   6.067   1.041  0.6174 -0.1760  1.0244
 4179TIP3   OH233951   2.565   0.697   0.156 -0.0020  0.2628  0.1536
 4179TIP3    H133952   2.566   0.732   0.067 -1.6715  2.0824  0.7869
 4179TIP3    H233953   2.658   0.687   0.179  0.5021  1.7527 -1.0550
 4180TIP3   OH233954   4.634   6.438   3.615 -0.4210  0.3852  0.5874
 4180TIP3    H133955   4.658   6.347   3.637 -1.4330 -0.1708 -0.5015
 4180TIP3    H233956   4.561   6.458   3.674  0.1588  0.6995  1.2092
 4181TIP3   OH233957   4.311   6.372  16.659 -0.5150 -0.3358 -0.4610
 4181TIP3    H133958   4.338   6.353  16.748 -0.2651 -0.6581 -0.6006
 4181TIP3    H233959   4.374   6.324  16.604  0.8220  1.7656 -0.8532
 4182TIP3   OH233960   5.362   0.191  13.752 -0.4502 -0.0716 -0.0274
 4182TIP3    H133961   5.297   0.261  13.755  1.5118  1.8370  0.6367
 4182TIP3    H233962   5.328   0.125  13.812 -1.2292  1.3882  1.2139
 4183TIP3   OH233963   0.864   6.277  13.483  0.2983  0.0363  0.0798
 4183TIP3    H133964   0.828   6.233  13.406 -1.2320 -0.2290  0.8974
 4183TIP3    H233965   0.851   6.215  13.554 -3.0482  2.0918  1.5292
 4184TIP3   OH233966   5.764   3.278  10.648 -0.3353 -0.5643  0.1652
 4184TIP3    H133967   5.718   3.250  10.569  0.1497 -0.1917 -0.2570
 4184TIP3    H233968   5.695   3.312  10.705 -0.5530  0.3975 -0.6386
 4185TIP3   OH233969   2.795   0.908  14.229 -0.1197 -0.8244 -0.0578
 4185TIP3    H133970   2.859   0.916  14.300  1.0676 -1.2021 -1.0535
 4185TIP3    H233971   2.751   0.993  14.227  0.0032 -0.7215  0.9524
 4186TIP3   OH233972   3.488   3.188   1.779 -0.4991 -0.2304 -0.3138
 4186TIP3    H133973   3.556   3.121   1.777 -1.9853 -1.8547  0.6708
 4186TIP3    H233974   3.425   3.160   1.713 -0.9595  0.4100 -0.1526
 4187TIP3   OH233975   3.443   0.023   2.501 -0.0408  0.5065 -0.0821
 4187TIP3    H133976   3.471   0.107   2.538 -0.8710  0.3796  0.8951
 4187TIP3    H233977   3.410   0.044   2.414 -0.3761  1.2107  0.2151
 4188TIP3   OH233978   1.356   5.957   3.043 -0.2557 -1.0946  0.1826
 4188TIP3    H133979   1.276   6.008   3.037 -0.5653 -1.7222 -1.1895
 4188TIP3    H233980   1.338   5.877   2.994  0.6356 -2.0018  1.2822
 4189TIP3   OH233981   2.334   4.552  13.922 -0.0749 -0.2814 -0.7002
 4189TIP3    H133982   2.403   4.559  13.855 -0.9356 -1.3328 -1.7397
 4189TIP3    H233983   2.262   4.605  13.888  0.1579  0.7447  0.3418
 4190TIP3   OH233984   5.283   5.752  15.339 -0.4745  0.0911 -0.0076
 4190TIP3    H133985   5.279   5.755  15.243 -0.8888  0.2762  0.0102
 4190TIP3    H233986   5.355   5.692  15.358 -0.6541 -0.2701 -0.4368
 4191TIP3   OH233987   5.764   0.537  11.448 -0.0141 -0.0309  0.6817
 4191TIP3    H133988   5.816   0.510  11.523  0.9384 -0.8083 -0.2321
 4191TIP3    H233989   5.819   0.518  11.372 -2.0446 -1.9376 -0.4191
 4192TIP3   OH233990   5.807   3.370   4.273  0.0233  0.8719  0.3072
 4192TIP3    H133991   5.746   3.297   4.282 -2.9281  2.8519 -1.6235
 4192TIP3    H233992   5.791   3.425   4.350  1.3226  0.1757  1.1098
 4193TIP3   OH233993   5.416   6.004   5.407  0.4166 -0.0822  0.4058
 4193TIP3    H133994   5.392   5.981   5.318  2.2486 -0.1378 -0.1122
 4193TIP3    H233995   5.336   5.991   5.458 -0.4065 -0.9610 -1.0564
 4194TIP3   OH233996   5.919   1.737  12.199 -0.3715  0.2618  0.0335
 4194TIP3    H133997   6.000   1.789  12.197  0.7865 -1.2370  2.4433
 4194TIP3    H233998   5.850   1.798  12.174  1.1249  2.5332  1.1346
 4195TIP3   OH233999   1.323   1.964  16.465  0.3904 -0.5477  0.2087
 4195TIP3    H134000   1.307   1.983  16.557 -1.1369 -1.7339  0.2403
 4195TIP3    H234001   1.246   1.999  16.420 -1.3151 -4.0715  0.0059
 4196TIP3   OH234002   2.126   2.894   5.205 -0.0807  0.2185  0.5695
 4196TIP3    H134003   2.216   2.874   5.230 -0.4048  0.2935  1.8657
 4196TIP3    H234004   2.083   2.809   5.196  0.3190  0.1369 -0.9771
 4197TIP3   OH234005   5.262   6.011   3.336  0.2819 -0.0695  0.2778
 4197TIP3    H134006   5.228   5.991   3.249 -0.3880 -0.9197  0.7243
 4197TIP3    H234007   5.186   6.006   3.394  0.5185  1.5036  0.7784
 4198TIP3   OH234008   0.530   5.833   4.889  0.3426 -0.2129  0.5556
 4198TIP3    H134009   0.576   5.779   4.953 -0.1611 -0.2761  0.8614
 4198TIP3    H234010   0.596   5.851   4.822  0.2316 -2.0620 -0.0839
 4199TIP3   OH234011   3.885   6.485  12.302 -0.0695  0.0496 -0.4789
 4199TIP3    H134012   3.905   6.431  12.225 -2.9921  0.1643 -1.4508
 4199TIP3    H234013   3.840   6.426  12.362 -1.7756  0.9123 -0.8243
 4200TIP3   OH234014   0.426   0.835  11.885  0.2503  0.3443 -0.1180
 4200TIP3    H134015   0.357   0.892  11.921  1.6309  1.4277  0.8910
 4200TIP3    H234016   0.507   0.884  11.896  1.1996 -0.7990 -1.5152
 4201TIP3   OH234017   1.145   2.630  16.627  0.4711  0.3488  0.3036
 4201TIP3    H134018   1.104   2.712  16.653  2.2892  1.3094  0.3761
 4201TIP3    H234019   1.119   2.618  16.536  0.2150  1.0554  0.2755
 4202TIP3   OH234020   0.433   2.130  13.109  0.6638  0.0630  0.0995
 4202TIP3    H134021   0.490   2.167  13.177  0.3413 -0.9046  0.9173
 4202TIP3    H234022   0.350   2.176  13.120  0.5857 -0.1507  0.4249
 4203TIP3   OH234023   2.256   3.393  14.982  0.2059 -0.1917  0.5765
 4203TIP3    H134024   2.203   3.472  14.979  0.3307 -0.1272 -0.8177
 4203TIP3    H234025   2.303   3.398  15.065  0.4583  1.3735  0.3693
 4204TIP3   OH234026   5.046   2.291  12.742 -0.0241 -0.6059  0.7256
 4204TIP3    H134027   5.136   2.302  12.710  0.5944 -0.1278  2.5214
 4204TIP3    H234028   5.039   2.350  12.817 -2.0590 -0.1492  0.2466
 4205TIP3   OH234029   3.955   3.669  16.683 -0.2317  0.1000 -0.0728
 4205TIP3    H134030   3.970   3.719  16.763 -0.1399  0.7664 -0.5042
 4205TIP3    H234031   3.865   3.691  16.658 -0.5717 -0.7839  0.3112
 4206TIP3   OH234032   0.560   2.081   5.122  0.0308 -0.6512 -0.8553
 4206TIP3    H134033   0.614   2.052   5.195 -2.2660  1.4953  1.9386
 4206TIP3    H234034   0.613   2.147   5.077  0.1810  0.8067  1.3151
 4207TIP3   OH234035   6.306   4.885  13.689 -0.2631  0.2110 -0.2359
 4207TIP3    H134036   6.372   4.954  13.688 -0.2889  0.3193  1.5865
 4207TIP3    H234037   6.227   4.928  13.722 -0.5981 -0.4369 -0.1768
 4208TIP3   OH234038   0.733   1.018  15.515 -0.8042  0.2273 -0.1447
 4208TIP3    H134039   0.742   1.070  15.434 -1.6781  0.9810  0.2156
 4208TIP3    H234040   0.822   1.003  15.545 -0.5145  1.0061 -0.5973
 4209TIP3   OH234041   3.943   0.210   2.601  0.0752  0.1894  0.2164
 4209TIP3    H134042   4.026   0.256   2.587  0.4078  0.1331  1.8236
 4209TIP3    H234043   3.883   0.279   2.631  0.3619 -0.2388  1.8741
 4210TIP3   OH234044   2.458   2.169  12.024 -0.0351  0.1988 -0.0538
 4210TIP3    H134045   2.451   2.265  12.023  0.6688  0.2741 -2.1341
 4210TIP3    H234046   2.389   2.140  11.964  0.3493 -0.5429 -0.1473
 4211TIP3   OH234047   0.089   6.370   5.508  0.2466  0.3927 -0.4517
 4211TIP3    H134048   0.055   6.459   5.500 -1.1688 -0.1351 -0.5818
 4211TIP3    H234049   0.055   6.339   5.592  2.7286  0.7679  0.7994
 4212TIP3   OH234050   4.865   1.835   1.276  0.1015  0.1821 -0.3623
 4212TIP3    H134051   4.906   1.914   1.242  0.7942 -0.6810 -1.5829
 4212TIP3    H234052   4.936   1.771   1.281 -0.8739 -1.0769 -1.7076
 4213TIP3   OH234053   5.031   0.341   0.302  0.3200 -0.1297 -0.2157
 4213TIP3    H134054   4.943   0.377   0.310  0.1269  0.0638 -2.4058
 4213TIP3    H234055   5.088   0.407   0.341 -0.4959 -0.4972  1.7122
 4214TIP3   OH234056   0.587   6.126  14.818 -0.1720 -0.4612  0.2268
 4214TIP3    H134057   0.527   6.066  14.862 -0.7178 -0.5966 -0.6789
 4214TIP3    H234058   0.536   6.161  14.745  0.9458 -0.8371 -0.7641
 4215TIP3   OH234059   2.464   6.734   2.535 -0.4789  0.0645  0.4240
 4215TIP3    H134060   2.470   6.808   2.476  1.6987  0.1496  0.6673
 4215TIP3    H234061   2.471   6.657   2.478  1.6248  0.1457  0.4911
 4216TIP3   OH234062   4.184   2.961  12.098  0.3634  0.4117 -0.3465
 4216TIP3    H134063   4.236   2.881  12.103 -1.3158 -0.7546 -0.8605
 4216TIP3    H234064   4.186   2.984  12.005 -0.2661  0.1884 -0.4200
 4217TIP3   OH234065   1.620   5.872   2.999 -0.0340 -0.3980 -0.0201
 4217TIP3    H134066   1.532   5.901   3.024  1.3750  1.4544  3.5547
 4217TIP3    H234067   1.658   5.839   3.080  2.6873 -0.8668 -1.3888
 4218TIP3   OH234068   3.218   5.345  11.101 -0.4310 -0.3748 -0.0715
 4218TIP3    H134069   3.161   5.297  11.042 -1.3225 -1.4800  1.6147
 4218TIP3    H234070   3.159   5.392  11.160  0.3901 -0.6351  0.9941
 4219TIP3   OH234071   6.040   6.034   4.458  0.6111 -0.0525  0.6439
 4219TIP3    H134072   6.122   5.990   4.477  0.0354 -0.4733  2.3584
 4219TIP3    H234073   5.973   5.966   4.469  0.0256  0.2380 -0.8924
 4220TIP3   OH234074   4.809   3.365   5.257 -0.4543 -0.2651  0.2040
 4220TIP3    H134075   4.866   3.420   5.311 -0.8022  0.0193  0.2784
 4220TIP3    H234076   4.869   3.301   5.218 -0.0195  0.2618 -0.0094
 4221TIP3   OH234077   1.919   6.506   4.659 -0.2934  0.4312 -0.5336
 4221TIP3    H134078   1.969   6.586   4.647 -1.0333  0.6084 -2.9039
 4221TIP3    H234079   1.982   6.436   4.641 -0.3553  0.6008 -1.4821
 4222TIP3   OH234080   3.798   0.021  15.293  0.0463  0.4214 -0.4960
 4222TIP3    H134081   3.805   0.114  15.314  1.6226  0.5673 -1.5119
 4222TIP3    H234082   3.718   0.015  15.239  1.1516  1.6188 -2.4005
 4223TIP3   OH234083   2.105   2.775  15.726  0.0969 -0.0126 -0.3341
 4223TIP3    H134084   2.199   2.784  15.708  0.2011 -2.4492 -1.4572
 4223TIP3    H234085   2.063   2.785  15.641 -0.5404 -0.2540 -0.0549
 4224TIP3   OH234086   1.418   1.622   5.438 -0.5200  0.0477 -0.4001
 4224TIP3    H134087   1.485   1.680   5.401  0.9457 -1.1512  0.2204
 4224TIP3    H234088   1.389   1.667   5.517 -0.7386  0.7632 -0.8768
 4225TIP3   OH234089   6.189   6.589  15.869 -0.2162  0.3074  0.0182
 4225TIP3    H134090   6.274   6.605  15.829 -0.9635 -0.5095 -2.0497
 4225TIP3    H234091   6.201   6.510  15.921  0.2262 -0.0226 -0.5713
 4226TIP3   OH234092   1.310   3.133   3.571 -0.3090  0.3121 -0.3076
 4226TIP3    H134093   1.380   3.194   3.591 -1.2309  0.3721  3.5997
 4226TIP3    H234094   1.234   3.189   3.551 -0.2294  0.3340 -0.5537
 4227TIP3   OH234095   0.610   1.034   6.483 -0.5291  0.1422  0.1060
 4227TIP3    H134096   0.674   1.043   6.412  0.4841  0.1643  1.0163
 4227TIP3    H234097   0.659   0.997   6.556 -1.6274 -0.1285  0.7270
 4228TIP3   OH234098   5.953   3.224  13.711  0.4158  0.0068 -0.0123
 4228TIP3    H134099   5.965   3.210  13.805  0.9313  0.0200 -0.0717
 4228TIP3    H234100   5.931   3.317  13.703 -2.2137 -0.5063  0.3097
 4229TIP3   OH234101   2.918   5.340   3.468  0.3842  0.8008  0.0887
 4229TIP3    H134102   3.002   5.386   3.464  0.4792  0.6381  0.2806
 4229TIP3    H234103   2.864   5.385   3.402  0.8470  0.4430 -0.5445
 4230TIP3   OH234104   0.959   2.030  15.240 -0.2504 -0.6435 -0.1407
 4230TIP3    H134105   1.041   2.078  15.227  0.1593 -0.5671  2.2826
 4230TIP3    H234106   0.954   2.017  15.334 -2.1215 -2.2992 -0.4145
 4231TIP3   OH234107   5.439   1.179  13.028  0.0946 -0.1207 -0.6323
 4231TIP3    H134108   5.509   1.211  13.085 -1.6212 -0.3693  1.7511
 4231TIP3    H234109   5.485   1.145  12.951  2.6405 -0.7588  1.0424
 4232TIP3   OH234110   0.848   2.372   4.736 -0.3317 -0.0165  0.2124
 4232TIP3    H134111   0.761   2.395   4.702 -0.4705 -2.4001 -1.2427
 4232TIP3    H234112   0.897   2.343   4.659  0.9489 -1.1167  1.3885
 4233TIP3   OH234113   1.570   3.856  16.771  0.3950 -0.1126 -0.4036
 4233TIP3    H134114   1.573   3.777  16.825  1.1939  1.2953  1.7853
 4233TIP3    H234115   1.545   3.825  16.684  1.0616 -2.7993  0.2578
 4234TIP3   OH234116   3.528   2.467  13.029 -0.4957  0.6455  0.4877
 4234TIP3    H134117   3.448   2.444  13.077 -0.4114  1.2319  0.9253
 4234TIP3    H234118   3.528   2.409  12.953 -0.9596  0.1347  0.8671
 4235TIP3   OH234119   5.787   4.061   3.680 -0.1386  0.2672 -0.8180
 4235TIP3    H134120   5.766   3.981   3.728 -1.5974 -0.8247 -3.1015
 4235TIP3    H234121   5.826   4.030   3.598 -1.0930  1.8606 -1.9238
 4236TIP3   OH234122   2.762   1.065  13.544  0.5159  0.2896 -0.4986
 4236TIP3    H134123   2.774   1.080  13.637 -0.7995 -0.0394 -0.2527
 4236TIP3    H234124   2.850   1.057  13.509  1.0343  0.9005  0.6338
 4237TIP3   OH234125   6.228   2.298  13.194 -0.2899 -0.0085 -0.0630
 4237TIP3    H134126   6.203   2.233  13.129  0.8853  0.4124 -0.9653
 4237TIP3    H234127   6.145   2.325  13.234 -0.9027 -1.1785 -0.5096
 4238TIP3   OH234128   2.931   1.227   3.746  0.6828  0.3866 -0.2579
 4238TIP3    H134129   2.903   1.146   3.789 -1.2252  2.6040  3.1173
 4238TIP3    H234130   2.864   1.244   3.680  0.0936  0.0777  0.2484
 4239TIP3   OH234131   5.591   5.804   2.994 -0.0336 -0.0085  0.4814
 4239TIP3    H134132   5.511   5.783   3.042 -1.2208  2.8402 -0.0556
 4239TIP3    H234133   5.605   5.897   3.011  2.7730 -0.2661 -0.0631
 4240TIP3   OH234134   1.628   1.776  15.341  0.1237  0.4874 -0.2920
 4240TIP3    H134135   1.723   1.778  15.330  0.3373 -1.4566  0.7089
 4240TIP3    H234136   1.604   1.867  15.354  2.2680  0.8328  2.2149
 4241TIP3   OH234137   3.542   0.417  16.738  0.3174 -0.1284  0.0252
 4241TIP3    H134138   3.617   0.450  16.787  0.5323 -1.9931  1.0263
 4241TIP3    H234139   3.569   0.331  16.708 -1.2881 -0.6729  0.0675
 4242TIP3   OH234140   2.281   4.687  10.942  0.5067 -0.2273  0.3632
 4242TIP3    H134141   2.283   4.592  10.944  0.2289 -0.2280  0.5861
 4242TIP3    H234142   2.193   4.711  10.970  0.0419  0.0575 -1.2437
 4243TIP3   OH234143   4.451   3.299  12.510 -0.5624 -0.5330  0.2830
 4243TIP3    H134144   4.367   3.259  12.490 -1.0009  0.4341  0.1392
 4243TIP3    H234145   4.499   3.297  12.427 -0.2214 -1.5736  0.4932
 4244TIP3   OH234146   1.715   5.483   6.411 -0.2072  0.3657 -0.2083
 4244TIP3    H134147   1.715   5.578   6.396 -2.7500  0.3766 -0.5516
 4244TIP3    H234148   1.656   5.448   6.344 -0.4777 -1.2907  0.8328
 4245TIP3   OH234149   1.185   1.366  15.801  0.2657 -0.6684 -0.2334
 4245TIP3    H134150   1.252   1.350  15.734  0.2680 -0.6585 -0.2335
 4245TIP3    H234151   1.230   1.416  15.869  0.1259 -0.2045 -0.4768
 4246TIP3   OH234152   1.899   2.398  11.623 -0.4366  0.7353  0.1219
 4246TIP3    H134153   1.817   2.395  11.672 -0.5967  0.9066 -0.1355
 4246TIP3    H234154   1.952   2.464  11.667 -0.0246 -0.1172  0.9288
 4247TIP3   OH234155   2.725   0.712   1.862  0.3398  0.2085 -0.1062
 4247TIP3    H134156   2.686   0.689   1.777  0.1652  1.3207 -0.3425
 4247TIP3    H234157   2.662   0.772   1.901  0.6415  0.0542  0.6244
 4248TIP3   OH234158   6.669   3.502   4.052  0.6012 -0.6033 -0.9096
 4248TIP3    H134159   6.693   3.539   3.967  1.1943  1.0049 -0.0897
 4248TIP3    H234160   6.630   3.575   4.100  0.6984 -1.3524  0.3595
 4249TIP3   OH234161   3.900   1.815   3.044  0.5401  0.0602 -0.8901
 4249TIP3    H134162   3.809   1.832   3.068  0.9841  0.4155  0.6359
 4249TIP3    H234163   3.921   1.731   3.086  1.2394  0.5219 -0.3050
 4250TIP3   OH234164   2.094   6.784   4.390 -0.0773  0.5964 -0.0768
 4250TIP3    H134165   2.129   6.734   4.317 -1.7902 -0.0185 -0.5219
 4250TIP3    H234166   1.999   6.786   4.375 -0.4376  0.7573  1.9347
 4251TIP3   OH234167   1.884   2.658   3.389 -0.0311 -0.7023 -0.1385
 4251TIP3    H134168   1.860   2.751   3.392  0.1812 -0.6120 -1.0208
 4251TIP3    H234169   1.868   2.632   3.298 -1.4586 -1.9103  0.4308
 4252TIP3   OH234170   1.692   4.530  11.713 -0.4620 -0.3367 -0.0261
 4252TIP3    H134171   1.659   4.609  11.756  2.3780  0.9921 -0.0170
 4252TIP3    H234172   1.659   4.536  11.623 -2.2401 -0.4389  0.5944
 4253TIP3   OH234173   5.455   0.088  16.660 -0.1047  0.5271 -0.3517
 4253TIP3    H134174   5.405   0.015  16.697  0.1406  1.7988  2.6915
 4253TIP3    H234175   5.546   0.059  16.664 -0.0115  0.9343  0.8168
 4254TIP3   OH234176   5.475   3.771   5.468 -0.4906  0.3684  0.4846
 4254TIP3    H134177   5.522   3.688   5.474  1.2600  1.2394 -0.5077
 4254TIP3    H234178   5.407   3.755   5.402  1.0680  0.2323 -1.1618
 4255TIP3   OH234179   2.764   0.314   1.102  1.0220  0.0072  0.3492
 4255TIP3    H134180   2.772   0.245   1.167 -0.0111  0.2697  0.7660
 4255TIP3    H234181   2.748   0.393   1.153 -1.2582 -0.0115 -0.2321
 4256TIP3   OH234182   1.219   5.718  14.609  0.3531  0.1645 -0.1176
 4256TIP3    H134183   1.294   5.700  14.666  0.9521 -1.5226 -1.3499
 4256TIP3    H234184   1.167   5.782  14.657  1.9508  0.4594  1.3209
 4257TIP3   OH234185   1.931   2.324  16.814  0.0363 -0.3221  0.0798
 4257TIP3    H134186   1.998   2.263  16.783  0.6802 -0.6768  2.0572
 4257TIP3    H234187   1.980   2.403  16.837 -0.1009 -0.7994  2.1208
 4258TIP3   OH234188   4.047   6.551   1.451 -0.3962 -0.0779 -0.0772
 4258TIP3    H134189   4.054   6.522   1.360 -0.7943 -0.2525 -0.0569
 4258TIP3    H234190   3.958   6.585   1.458 -0.7604 -1.1179  0.5348
 4259TIP3   OH234191   2.313   1.480  12.244 -0.2481  0.4681  0.5043
 4259TIP3    H134192   2.388   1.504  12.299 -0.5063  0.9814  0.6409
 4259TIP3    H234193   2.333   1.521  12.159  1.0958 -1.9246 -0.4276
 4260TIP3   OH234194   6.056   6.247  11.865 -0.4756 -0.1845 -0.1142
 4260TIP3    H134195   5.962   6.240  11.880 -0.6765  0.3937 -0.9900
 4260TIP3    H234196   6.076   6.175  11.805  0.0657 -1.6563  1.7714
 4261TIP3   OH234197   4.975   6.496  14.707 -0.0528  0.3870 -0.2678
 4261TIP3    H134198   4.925   6.416  14.719  0.2467  0.2475  0.0593
 4261TIP3    H234199   4.935   6.539  14.631  1.2026 -1.1881 -1.9133
 4262TIP3   OH234200   5.431   1.900   3.842  0.2109 -0.3208 -0.0480
 4262TIP3    H134201   5.494   1.841   3.883  0.5936 -0.3385 -0.6440
 4262TIP3    H234202   5.381   1.937   3.915  1.0919 -0.1048  0.4573
 4263TIP3   OH234203   3.044   4.625   5.608 -0.5785 -0.2385  0.1773
 4263TIP3    H134204   3.032   4.699   5.668 -1.6574  0.8407 -1.2740
 4263TIP3    H234205   3.138   4.610   5.608 -0.4262  0.5669  1.1697
 4264TIP3   OH234206   0.549   6.384   0.167 -0.1046 -0.3189  0.4875
 4264TIP3    H134207   0.625   6.403   0.110  1.2314 -0.1710  2.2361
 4264TIP3    H234208   0.574   6.420   0.252 -0.5094 -3.5598  2.1290
 4265TIP3   OH234209   2.354   4.907  11.990 -0.1092 -0.5427 -0.3169
 4265TIP3    H134210   2.348   4.812  12.004 -0.4015 -0.6340 -1.0326
 4265TIP3    H234211   2.286   4.944  12.045 -0.1633 -0.7680 -0.2306
 4266TIP3   OH234212   1.475   3.634  15.957 -0.7723 -0.1107 -0.8360
 4266TIP3    H134213   1.431   3.671  15.881  0.8062 -1.4424 -2.4688
 4266TIP3    H234214   1.521   3.709  15.996 -2.3109  0.7599 -0.6116
 4267TIP3   OH234215   5.630   1.565  14.911 -0.1012  0.4134 -0.1680
 4267TIP3    H134216   5.562   1.497  14.920  0.8060 -0.5898 -0.6441
 4267TIP3    H234217   5.638   1.602  14.999 -0.1608 -0.5520  0.2567
 4268TIP3   OH234218   4.078   3.294  12.550 -0.1809 -0.2587  0.0527
 4268TIP3    H134219   4.057   3.341  12.469 -0.8439 -0.5526  0.0438
 4268TIP3    H234220   3.995   3.291  12.598 -0.2594 -1.7974 -0.1374
 4269TIP3   OH234221   1.558   1.716   4.868 -0.0576  0.0631 -0.0339
 4269TIP3    H134222   1.464   1.712   4.850 -0.2594  1.9284  0.3836
 4269TIP3    H234223   1.570   1.662   4.946 -0.7760 -0.2410 -0.1283
 4270TIP3   OH234224   0.728   2.167  13.911  0.2487 -0.3538  0.4771
 4270TIP3    H134225   0.662   2.175  13.980  0.8226 -2.3013  1.3347
 4270TIP3    H234226   0.806   2.133  13.956  1.7525  1.5177 -0.5699
 4271TIP3   OH234227   5.439   0.443  12.251 -0.0026 -0.5884  0.1283
 4271TIP3    H134228   5.483   0.453  12.335  0.5367 -0.4094 -0.1681
 4271TIP3    H234229   5.449   0.350  12.230  0.3613 -0.5210 -0.0037
 4272TIP3   OH234230   2.035   6.327  13.860 -0.2333 -0.1108  0.0140
 4272TIP3    H134231   2.009   6.284  13.942  1.8210  1.8510  1.8105
 4272TIP3    H234232   2.062   6.254  13.803  0.3195 -1.4294  1.8491
 4273TIP3   OH234233   5.867   0.609   6.249 -0.2272 -0.3380  0.2925
 4273TIP3    H134234   5.773   0.601   6.264 -0.0695 -1.5167  0.8118
 4273TIP3    H234235   5.905   0.606   6.337  0.3748 -1.5092  0.0154
 4274TIP3   OH234236   0.683   4.769  11.706 -0.1741 -0.2529  0.1899
 4274TIP3    H134237   0.594   4.806  11.704  0.1401  0.8685  2.8128
 4274TIP3    H234238   0.729   4.814  11.635 -1.4264 -0.0739 -0.5344
 4275TIP3   OH234239   5.354   2.447  12.501 -0.0251 -0.1290  0.4991
 4275TIP3    H134240   5.414   2.373  12.491  0.8675  0.7597 -0.8997
 4275TIP3    H234241   5.272   2.416  12.463  0.1508 -0.6150  0.5034
 4276TIP3   OH234242   1.351   0.472  12.730 -0.2831 -0.1433  0.6910
 4276TIP3    H134243   1.421   0.413  12.758 -0.2550  0.4682  2.0239
 4276TIP3    H234244   1.272   0.418  12.733  0.0957 -0.8272 -0.7858
 4277TIP3   OH234245   0.133   6.658   1.557  0.3380  0.0828  0.3553
 4277TIP3    H134246   0.218   6.637   1.596  0.7185  0.8533 -0.0304
 4277TIP3    H234247   0.095   6.723   1.616  0.0923 -0.1301  0.4323
 4278TIP3   OH234248   5.685   4.053  12.481  0.6477 -0.2832 -0.3274
 4278TIP3    H134249   5.651   4.061  12.570 -1.5989 -0.7889 -1.0787
 4278TIP3    H234250   5.616   4.091  12.426  0.8791 -2.1534 -2.0165
 4279TIP3   OH234251   2.167   4.390  12.264 -0.6038 -0.1160 -0.0036
 4279TIP3    H134252   2.176   4.443  12.343 -1.0869 -1.4851  1.0082
 4279TIP3    H234253   2.231   4.319  12.275 -0.1310  0.0909 -1.2093
 4280TIP3   OH234254   1.691   6.034  13.815 -0.5892  0.9753 -0.5144
 4280TIP3    H134255   1.721   6.008  13.902  0.6522 -3.0906 -1.9210
 4280TIP3    H234256   1.617   6.092  13.831  0.9598  2.2555  3.1698
 4281TIP3   OH234257   5.545   3.454   3.766 -0.0790  0.4612 -0.3894
 4281TIP3    H134258   5.536   3.424   3.857 -0.1658 -1.5590 -1.0115
 4281TIP3    H234259   5.635   3.486   3.760  0.0088  0.3674  0.3388
 4282TIP3   OH234260   5.934   2.783   3.882  0.3090  0.2618  0.2172
 4282TIP3    H134261   5.844   2.795   3.851  1.5962  0.5671 -4.0712
 4282TIP3    H234262   5.934   2.697   3.923 -1.9592  0.3706  0.5574
 4283TIP3   OH234263   4.667   0.566   2.168  0.1148 -0.0135 -0.5874
 4283TIP3    H134264   4.620   0.601   2.244 -0.1256  1.3514 -1.3380
 4283TIP3    H234265   4.669   0.638   2.105 -0.0802 -1.2367 -2.0616
 4284TIP3   OH234266   3.200   2.436  16.420 -0.1924 -0.4315 -0.3883
 4284TIP3    H134267   3.215   2.518  16.467 -0.5425  0.6683 -2.1035
 4284TIP3    H234268   3.240   2.450  16.334  0.4852 -2.3852 -0.4482
 4285TIP3   OH234269   4.689   6.582   4.047  0.3249  0.4507  0.4323
 4285TIP3    H134270   4.728   6.667   4.068 -0.4219  0.7224  0.7241
 4285TIP3    H234271   4.707   6.570   3.953 -1.4172  1.9255 -0.1340
 4286TIP3   OH234272   2.762   3.060   1.537  0.3122  0.3184 -0.2683
 4286TIP3    H134273   2.833   3.123   1.555  1.5112 -0.3633 -2.3150
 4286TIP3    H234274   2.775   2.990   1.601 -0.4833  1.6539  1.4365
 4287TIP3   OH234275   4.972   2.041  13.206 -0.0357  0.0120  1.0795
 4287TIP3    H134276   4.906   1.981  13.239  0.0167 -0.6918 -0.0316
 4287TIP3    H234277   4.984   2.104  13.276 -0.4427 -0.9955  2.0956
 4288TIP3   OH234278   5.146   1.244   3.873  0.5790  0.6986 -0.5493
 4288TIP3    H134279   5.065   1.277   3.913  1.6241  2.8060 -0.0031
 4288TIP3    H234280   5.132   1.254   3.779 -0.5668 -0.9594 -0.5819
 4289TIP3   OH234281   4.968   4.481   0.095 -0.0651  0.0207 -0.0401
 4289TIP3    H134282   5.021   4.413   0.054  2.0056  1.7160 -0.3295
 4289TIP3    H234283   4.955   4.450   0.185  0.5807 -0.8839 -0.2452
 4290TIP3   OH234284   6.012   1.633  14.523 -0.2377  0.1969  0.5717
 4290TIP3    H134285   5.940   1.664  14.577  0.6327  3.0153  0.3107
 4290TIP3    H234286   6.071   1.589  14.583 -0.8367  0.3924  1.3100
 4291TIP3   OH234287   2.881   6.683   3.217  0.4487  0.5180 -0.5059
 4291TIP3    H134288   2.900   6.593   3.243 -0.8440  0.3744 -0.0120
 4291TIP3    H234289   2.788   6.684   3.195  0.6167  1.5537 -1.3144
 4292TIP3   OH234290   6.116   4.498   2.894 -0.1831  0.6733 -0.4374
 4292TIP3    H134291   6.116   4.461   2.805 -0.3799 -0.2158 -0.0856
 4292TIP3    H234292   6.200   4.471   2.931 -1.1550 -1.2525  0.5277
 4293TIP3   OH234293   1.393   2.669  12.609  0.4221 -0.3595 -0.0846
 4293TIP3    H134294   1.367   2.758  12.589 -3.6080 -1.3167 -0.0440
 4293TIP3    H234295   1.452   2.644  12.538 -1.5263  1.1260 -2.3878
 4294TIP3   OH234296   0.664   6.122   1.607  0.1848  0.0678  0.3381
 4294TIP3    H134297   0.689   6.204   1.565  0.0216 -0.4799 -0.8496
 4294TIP3    H234298   0.573   6.107   1.582 -0.1579  0.0925  1.4940
 4295TIP3   OH234299   1.051   5.800   1.402  0.0805  0.0905  0.0375
 4295TIP3    H134300   0.971   5.852   1.388 -0.2077 -0.7002 -1.4612
 4295TIP3    H234301   1.119   5.848   1.356  0.4620  0.6902  1.1990
 4296TIP3   OH234302   3.194   1.305  16.996 -0.6336  0.1707 -0.3275
 4296TIP3    H134303   3.152   1.347  17.071  2.1734  0.7122  1.0678
 4296TIP3    H234304   3.182   1.367  16.924 -0.0520  1.4871  0.6727
 4297TIP3   OH234305   1.684   3.858   0.320 -0.4167  0.4722 -0.0196
 4297TIP3    H134306   1.752   3.814   0.370 -1.0742  0.6472  1.0472
 4297TIP3    H234307   1.725   3.876   0.235  0.9351  0.7605  0.6662
 4298TIP3   OH234308   4.456   5.858   2.647 -0.1736 -0.1536  0.5438
 4298TIP3    H134309   4.387   5.870   2.582  0.2446 -1.9805 -0.2996
 4298TIP3    H234310   4.527   5.815   2.600  0.2299 -1.3295  2.1324
 4299TIP3   OH234311   0.156   2.695   3.518 -0.1542 -0.2006  0.0165
 4299TIP3    H134312   0.116   2.623   3.469  1.6638  0.4971 -2.6932
 4299TIP3    H234313   0.085   2.728   3.574 -1.0059 -4.1050  1.5285
 4300TIP3   OH234314   1.987   6.553   1.122  0.0844 -0.4246  0.0323
 4300TIP3    H134315   1.903   6.590   1.147 -0.0075 -0.1720 -0.6420
 4300TIP3    H234316   1.967   6.464   1.092  0.2055 -0.7588  0.9039
 4301TIP3   OH234317   2.347   1.433  13.411 -0.1901  0.0243  0.3324
 4301TIP3    H134318   2.268   1.388  13.439  0.6994 -2.0180 -0.2006
 4301TIP3    H234319   2.354   1.509  13.468 -2.2375 -0.0406  0.7165
 4302TIP3   OH234320   1.369   1.182  14.312 -0.3456  0.3807 -0.5410
 4302TIP3    H134321   1.327   1.160  14.395  0.9227 -2.0296 -0.4677
 4302TIP3    H234322   1.420   1.261  14.332 -0.1613 -0.0748  0.9463
 4303TIP3   OH234323   3.928   1.130  15.475 -1.1591 -0.1370  0.3477
 4303TIP3    H134324   3.898   1.159  15.561 -0.9305  0.8250  0.1149
 4303TIP3    H234325   4.018   1.102  15.489 -0.6147  1.4196  0.1638
 4304TIP3   OH234326   5.731   6.039   4.107 -0.4288 -0.2511  0.5251
 4304TIP3    H134327   5.785   6.100   4.158 -0.6691 -0.4860  1.0589
 4304TIP3    H234328   5.781   6.026   4.026 -0.6454  1.1059  0.1394
 4305TIP3   OH234329   6.513   2.561  15.514  0.1829 -0.4511 -0.0747
 4305TIP3    H134330   6.456   2.537  15.441 -0.8449  0.2056  0.4806
 4305TIP3    H234331   6.600   2.533  15.487 -0.1090  0.0971 -1.7074
 4306TIP3   OH234332   4.881   3.845   2.448 -0.4097  0.1757  0.3748
 4306TIP3    H134333   4.919   3.865   2.533  1.8587  0.4495 -0.6286
 4306TIP3    H234334   4.896   3.751   2.437 -0.2516  0.2322  0.0923
 4307TIP3   OH234335   5.847   3.162   5.587  0.0574  0.0126 -0.4806
 4307TIP3    H134336   5.811   3.239   5.631  0.3451 -0.4860  0.6876
 4307TIP3    H234337   5.862   3.190   5.497 -1.7661  0.7043 -0.6198
 4308TIP3   OH234338   4.147   5.555  10.291  0.2055 -0.2109 -0.3038
 4308TIP3    H134339   4.054   5.575  10.279  0.3267  0.6329  0.0490
 4308TIP3    H234340   4.175   5.616  10.359  0.6273 -1.6290  0.8267
 4309TIP3   OH234341   6.353   2.870  16.913  0.9260  0.3445 -0.0819
 4309TIP3    H134342   6.289   2.802  16.891  1.2678  0.1656 -0.5144
 4309TIP3    H234343   6.407   2.879  16.835  1.1780  0.7854  0.1391
 4310TIP3   OH234344   2.055   1.204   2.072  0.1337  0.0731 -0.0703
 4310TIP3    H134345   2.031   1.253   1.993  0.0474 -1.8862 -1.3270
 4310TIP3    H234346   2.115   1.263   2.119 -1.1987  2.0070 -0.6487
 4311TIP3   OH234347   1.556   4.430   4.721  0.6915 -0.6677  0.1000
 4311TIP3    H134348   1.528   4.439   4.630  0.3687 -0.4604  0.2180
 4311TIP3    H234349   1.535   4.340   4.744  1.5788 -0.9834 -0.2987
 4312TIP3   OH234350   0.210   5.682   0.502  0.1682 -0.1870 -0.0240
 4312TIP3    H134351   0.276   5.623   0.538  1.0192 -0.0844 -1.3608
 4312TIP3    H234352   0.182   5.639   0.421 -0.7729  0.2068  0.0789
 4313TIP3   OH234353   6.413   4.439  11.405  0.4078  0.5957  0.5101
 4313TIP3    H134354   6.431   4.384  11.480 -1.4534  0.4066  0.8852
 4313TIP3    H234355   6.342   4.497  11.435  1.1220  1.9950 -0.4214
 4314TIP3   OH234356   1.171   4.922   0.135  0.8139  0.0856  0.5457
 4314TIP3    H134357   1.235   4.926   0.205 -1.1788  1.9075  2.3919
 4314TIP3    H234358   1.192   4.841   0.088  3.6088 -0.0332  1.8067
 4315TIP3   OH234359   2.416   1.844  11.881 -0.0898 -0.4930  0.4826
 4315TIP3    H134360   2.477   1.863  11.810 -1.2475  1.4353 -0.0852
 4315TIP3    H234361   2.469   1.844  11.960  1.0364 -1.4954 -0.2438
 4316TIP3   OH234362   0.828   4.457   6.202 -0.1031 -0.4758  0.2011
 4316TIP3    H134363   0.786   4.377   6.234  0.9469 -1.0073  0.2949
 4316TIP3    H234364   0.922   4.441   6.213  0.1041  1.1171  1.0355
 4317TIP3   OH234365   6.744   1.866  13.632  0.3645 -0.5387 -0.1538
 4317TIP3    H134366   6.775   1.791  13.581 -0.3436 -0.0221 -1.3961
 4317TIP3    H234367   6.671   1.831  13.683  0.1104 -0.7268 -0.6393
 4318TIP3   OH234368   0.495   6.251   1.294  0.0767 -0.4279 -0.5512
 4318TIP3    H134369   0.577   6.250   1.343  0.5261 -0.0318 -1.2843
 4318TIP3    H234370   0.461   6.161   1.302  1.3391 -1.0158 -1.4928
 4319TIP3   OH234371   0.919   6.336   3.935  0.4441 -0.2406 -0.5003
 4319TIP3    H134372   0.912   6.280   4.012 -0.8973  0.7263  0.1093
 4319TIP3    H234373   1.006   6.376   3.942 -0.1161  0.7583  1.1892
 4320TIP3   OH234374   4.337   6.757   5.669 -0.1835 -0.2695 -0.4845
 4320TIP3    H134375   4.277   6.723   5.603 -0.2990 -2.0670  0.4739
 4320TIP3    H234376   4.416   6.704   5.658  1.4530  2.2239 -1.9093
 4321TIP3   OH234377   0.327   4.648  12.042  0.6566 -0.2077 -0.3116
 4321TIP3    H134378   0.384   4.672  12.115 -0.0202  0.8751 -0.1199
 4321TIP3    H234379   0.238   4.658  12.077  0.2978  1.5707 -1.6294
 4322TIP3   OH234380   3.181   5.839  16.783  0.1767  0.1317  0.1091
 4322TIP3    H134381   3.245   5.838  16.712 -0.2777 -0.4345 -0.2937
 4322TIP3    H234382   3.211   5.770  16.842  1.5436  1.7109  1.3759
 4323TIP3   OH234383   0.625   0.325  12.805 -0.3069 -0.3553 -0.2313
 4323TIP3    H134384   0.619   0.230  12.818  0.1110 -0.2381  0.9861
 4323TIP3    H234385   0.595   0.339  12.716  1.2740 -1.8279 -1.0542
 4324TIP3   OH234386   6.087   4.079  13.435 -0.1857 -0.5788 -0.3754
 4324TIP3    H134387   6.163   4.078  13.493 -0.5787 -2.0598  0.1799
 4324TIP3    H234388   6.124   4.070  13.347  0.3543  0.4283 -0.2593
 4325TIP3   OH234389   4.201   2.174  13.760  0.7223  0.6829 -0.3151
 4325TIP3    H134390   4.120   2.190  13.810  1.1983  1.8278  0.1322
 4325TIP3    H234391   4.259   2.246  13.785  2.0387 -0.3320 -0.3176
 4326TIP3   OH234392   4.546   1.964   1.815 -0.0875  0.2544  0.1476
 4326TIP3    H134393   4.633   1.947   1.779 -0.3260  1.9970 -1.4916
 4326TIP3    H234394   4.554   2.051   1.855 -0.7742 -0.1020  1.0734
 4327TIP3   OH234395   4.513   6.535   3.368  0.1230 -0.3157  0.7762
 4327TIP3    H134396   4.561   6.507   3.446 -0.0995 -1.2180  0.5981
 4327TIP3    H234397   4.422   6.538   3.395  0.2981  2.2367  1.3604
 4328TIP3   OH234398   2.799   5.885   2.335  0.0242 -0.0718  0.6149
 4328TIP3    H134399   2.749   5.932   2.402  0.9028  2.4937 -0.4208
 4328TIP3    H234400   2.751   5.901   2.254  0.8521 -0.1898  0.0974
 4329TIP3   OH234401   3.155   1.924   4.148 -0.2175  0.3812 -0.1021
 4329TIP3    H134402   3.170   1.991   4.215 -1.5848  2.4192 -1.7163
 4329TIP3    H234403   3.243   1.894   4.125  0.3657  0.7419  1.4842
 4330TIP3   OH234404   2.121   4.452  13.298  0.0530 -0.0281  0.1769
 4330TIP3    H134405   2.075   4.472  13.380  0.8104  1.2395  0.3207
 4330TIP3    H234406   2.060   4.479  13.229  0.5952  1.8187  0.3680
 4331TIP3   OH234407   0.234   0.967   5.149 -0.1614  0.2080  0.0461
 4331TIP3    H134408   0.306   1.022   5.119  0.6345 -0.9119 -0.1429
 4331TIP3    H234409   0.167   0.976   5.081  1.1523 -1.3844 -1.5661
 4332TIP3   OH234410   5.293   1.624  14.990 -0.4524 -0.3687  0.2937
 4332TIP3    H134411   5.199   1.637  14.987 -0.2873  0.8888 -0.1968
 4332TIP3    H234412   5.326   1.698  15.042  0.3146 -0.3857 -0.1433
 4333TIP3   OH234413   2.824   3.073   5.383 -0.2088  0.0309 -0.4716
 4333TIP3    H134414   2.866   3.046   5.301  0.0045  1.1375 -0.7482
 4333TIP3    H234415   2.879   3.037   5.452  1.1889  1.3552 -0.8290
 4334TIP3   OH234416   0.306   0.962  11.602 -0.1905  0.3079  0.1214
 4334TIP3    H134417   0.269   0.900  11.538 -1.1782  0.6167  0.3647
 4334TIP3    H234418   0.309   0.914  11.684  1.1819 -0.1234 -0.1592
 4335TIP3   OH234419   0.327   1.135   5.699  0.7332 -0.4350 -0.2909
 4335TIP3    H134420   0.330   1.226   5.729  0.5276 -0.7260  0.6353
 4335TIP3    H234421   0.320   1.142   5.604 -0.8621  0.5446 -0.1342
 4336TIP3   OH234422   3.561   4.651   4.755 -0.4092 -0.1974  0.3496
 4336TIP3    H134423   3.555   4.679   4.664  0.5776  0.1924  0.3909
 4336TIP3    H234424   3.477   4.609   4.773 -0.4935 -0.5665 -0.8314
 4337TIP3   OH234425   5.227   4.036  13.904 -0.1736  0.5501 -0.2298
 4337TIP3    H134426   5.196   4.006  13.989 -0.5561 -2.2057 -1.2461
 4337TIP3    H234427   5.148   4.040  13.850  0.3969 -0.4048 -1.1680
 4338TIP3   OH234428   0.219   3.339  10.844 -0.4868 -0.2279 -0.1898
 4338TIP3    H134429   0.289   3.331  10.909  0.1691 -0.9927 -0.9631
 4338TIP3    H234430   0.143   3.368  10.894 -0.6107 -2.8777  1.3523
 4339TIP3   OH234431   1.714   4.779   4.085 -0.6724  0.4094 -0.4092
 4339TIP3    H134432   1.678   4.692   4.101  2.8485 -1.5436 -1.8338
 4339TIP3    H234433   1.697   4.796   3.992  1.5445 -0.4199 -1.0313
 4340TIP3   OH234434   4.311   5.695  13.216 -0.1408 -0.4263 -0.5244
 4340TIP3    H134435   4.334   5.621  13.160 -0.1345 -0.2867 -0.7081
 4340TIP3    H234436   4.394   5.740  13.231 -0.3918  0.5945 -1.9279
 4341TIP3   OH234437   2.806   2.704   4.640  0.1947  0.1576  0.4580
 4341TIP3    H134438   2.821   2.732   4.550  2.2031 -1.8231  0.0853
 4341TIP3    H234439   2.713   2.720   4.655  0.1999  2.3400 -1.2700
 4342TIP3   OH234440   2.710   3.993   5.618 -0.4501  0.1865  0.1261
 4342TIP3    H134441   2.747   4.060   5.561  0.1797 -0.0037  0.2961
 4342TIP3    H234442   2.632   3.962   5.572  1.8882 -2.4593 -2.4219
 4343TIP3   OH234443   6.760   2.155  12.951 -0.2583 -0.6000 -0.4058
 4343TIP3    H134444   6.709   2.090  12.998  0.7108 -1.3479 -0.3515
 4343TIP3    H234445   6.732   2.239  12.986 -0.9148 -1.0432  0.1312
 4344TIP3   OH234446   4.782   2.434   2.885 -0.5066  0.3657 -0.6814
 4344TIP3    H134447   4.782   2.444   2.981  0.1392 -2.0598 -0.3705
 4344TIP3    H234448   4.741   2.349   2.870 -1.3995  1.0993 -2.6511
 4345TIP3   OH234449   3.207   5.450  12.719  0.0174 -0.6363  1.0354
 4345TIP3    H134450   3.291   5.478  12.684 -0.3434 -1.1751 -0.3673
 4345TIP3    H234451   3.213   5.465  12.813 -0.6878  5.6269  0.5267
 4346TIP3   OH234452   2.728   1.386  15.510 -0.0068  0.2043 -0.2199
 4346TIP3    H134453   2.774   1.452  15.562  0.8889  0.9639 -1.8846
 4346TIP3    H234454   2.794   1.317  15.496 -1.0534 -1.3477  1.8614
 4347TIP3   OH234455   0.246   5.668  12.402 -0.3592 -0.1249  0.0788
 4347TIP3    H134456   0.209   5.580  12.399 -0.3252 -0.1591  0.6013
 4347TIP3    H234457   0.339   5.654  12.419 -0.3084  0.0040 -0.0875
 4348TIP3   OH234458   2.552   1.697  15.102 -0.0432 -0.6594  0.5197
 4348TIP3    H134459   2.516   1.664  15.185 -0.4494  1.5728  1.2974
 4348TIP3    H234460   2.634   1.738  15.127  0.8142 -1.6749 -0.5401
 4349TIP3   OH234461   5.716   4.602   5.795 -0.1262 -0.4240 -0.3070
 4349TIP3    H134462   5.627   4.582   5.821  0.0562  0.1233  0.7955
 4349TIP3    H234463   5.768   4.528   5.828 -0.2470 -1.1214 -1.6063
 4350TIP3   OH234464   1.070   2.050   3.950  0.2222 -0.1936 -0.5457
 4350TIP3    H134465   1.103   2.107   4.019  1.0033 -0.1171 -0.9688
 4350TIP3    H234466   1.002   1.997   3.993  1.4209 -0.8958  0.5553
 4351TIP3   OH234467   5.356   2.055  12.855 -0.1423 -0.3310  0.3967
 4351TIP3    H134468   5.287   2.034  12.917 -0.7235 -0.7964 -0.3848
 4351TIP3    H234469   5.358   2.151  12.852  0.1510 -0.2975  1.3947
 4352TIP3   OH234470   0.079   0.918   0.573  0.2030  0.7235 -0.9308
 4352TIP3    H134471   0.013   0.928   0.641  0.6444 -0.6842 -0.2645
 4352TIP3    H234472   0.128   0.840   0.598  0.8199  0.5712 -2.5003
 4353TIP3   OH234473   0.068   0.247   6.082  0.1804  0.2075 -0.0829
 4353TIP3    H134474   0.059   0.338   6.111  1.7687  0.9766 -1.8245
 4353TIP3    H234475   0.047   0.249   5.989  0.2592 -1.2348 -0.1606
 4354TIP3   OH234476   3.810   1.102   3.688 -0.1202 -0.2111 -0.5710
 4354TIP3    H134477   3.850   1.017   3.669  0.1938 -0.2865  0.3850
 4354TIP3    H234478   3.870   1.143   3.750 -1.6836 -0.4778  1.1971
 4355TIP3   OH234479   0.431   5.659  11.923  0.3560  0.7349  0.1694
 4355TIP3    H134480   0.440   5.681  11.830 -0.6802 -0.6474 -0.2907
 4355TIP3    H234481   0.352   5.606  11.928 -0.6469  2.2651  2.1381
 4356TIP3   OH234482   0.174   4.807  14.378  0.0770 -0.5002 -0.3978
 4356TIP3    H134483   0.125   4.726  14.392  0.4416 -0.3670  2.3027
 4356TIP3    H234484   0.242   4.805  14.446 -0.5958  2.5523  0.5093
 4357TIP3   OH234485   2.652   0.027   0.975  1.1179  0.4620 -0.0841
 4357TIP3    H134486   2.599  -0.045   0.942  1.4859 -0.9252  2.0748
 4357TIP3    H234487   2.592   0.079   1.029  1.6582 -0.6070  1.6422
 4358TIP3   OH234488   2.555   6.700  15.751  0.1135  0.0177  0.3849
 4358TIP3    H134489   2.545   6.607  15.730  2.8375 -0.2307 -0.1912
 4358TIP3    H234490   2.629   6.702  15.812 -0.8703  1.7160  1.5981
 4359TIP3   OH234491   2.822   5.451  12.810 -0.1692 -0.2111  0.1541
 4359TIP3    H134492   2.755   5.515  12.837  0.2645  1.0680 -1.6553
 4359TIP3    H234493   2.797   5.370  12.856 -0.3528  1.3581  3.0832
 4360TIP3   OH234494   5.863   1.829  15.353  0.7743 -0.3066 -0.2779
 4360TIP3    H134495   5.931   1.764  15.373  2.7539  2.0746  1.2598
 4360TIP3    H234496   5.825   1.850  15.438 -0.6585 -0.2539 -0.9020
 4361TIP3   OH234497   6.794   3.791  11.345 -0.1361  0.1296  0.0605
 4361TIP3    H134498   6.787   3.863  11.408  3.3669  0.6545  0.0503
 4361TIP3    H234499   6.738   3.817  11.272 -0.2321  2.0268  0.7524
 4362TIP3   OH234500   5.425   0.900   2.077  0.3942  0.4388  0.2595
 4362TIP3    H134501   5.383   0.942   2.152 -2.0186 -0.9789 -0.1777
 4362TIP3    H234502   5.447   0.812   2.109  0.4576  0.2416 -0.3160
 4363TIP3   OH234503   2.932   6.520   1.824 -0.4963  0.3338 -0.0553
 4363TIP3    H134504   2.916   6.574   1.747  0.9552  0.1243 -0.5449
 4363TIP3    H234505   2.935   6.430   1.790  1.8042  0.3709 -0.0877
 4364TIP3   OH234506   0.192   2.903  13.299  0.3475 -0.2943 -0.1065
 4364TIP3    H134507   0.129   2.967  13.333  0.0483  0.0342 -1.2608
 4364TIP3    H234508   0.141   2.846  13.241  0.9319 -0.5961 -0.3387
 4365TIP3   OH234509   1.283   3.942   0.254  0.1086 -0.4025 -0.1001
 4365TIP3    H134510   1.234   4.021   0.230  1.2514  0.5421  0.5953
 4365TIP3    H234511   1.293   3.894   0.172  0.1048  0.5707 -0.6796
 4366TIP3   OH234512   3.165   6.597  16.914  0.1655  0.8117 -0.1460
 4366TIP3    H134513   3.260   6.606  16.925  0.1580 -1.0889  2.0349
 4366TIP3    H234514   3.154   6.583  16.819  1.9931  1.5416 -0.5164
 4367TIP3   OH234515   0.262   4.624   1.396  0.4234  0.9164  0.0497
 4367TIP3    H134516   0.284   4.584   1.312  1.0065 -0.6355  0.8994
 4367TIP3    H234517   0.246   4.550   1.454 -0.1749  1.9592  1.2651
 4368TIP3   OH234518   0.906   4.579   4.902 -0.2338 -0.5301 -0.3584
 4368TIP3    H134519   0.921   4.629   4.982  1.6025 -0.5360 -0.6491
 4368TIP3    H234520   0.918   4.488   4.928  1.3987 -0.4780 -0.7915
 4369TIP3   OH234521   2.482   6.646   4.548 -0.4325  0.9885 -0.1279
 4369TIP3    H134522   2.447   6.734   4.551  1.5421  1.8615 -0.6630
 4369TIP3    H234523   2.577   6.658   4.548 -0.1065 -1.1031 -0.8261
 4370TIP3   OH234524   0.716   2.179   2.606  0.5748  0.1585 -0.7024
 4370TIP3    H134525   0.788   2.232   2.572 -0.4253  1.2962 -1.1082
 4370TIP3    H234526   0.642   2.198   2.548 -0.3094 -0.2723  0.2435
 4371TIP3   OH234527   1.906   6.134  12.658  0.9458 -0.0007  0.3213
 4371TIP3    H134528   1.841   6.110  12.724  1.7874 -3.3527  0.1123
 4371TIP3    H234529   1.990   6.124  12.702  1.4435  0.4556 -0.5006
 4372TIP3   OH234530   0.071   4.300   2.298 -0.2783 -0.3839  0.1059
 4372TIP3    H134531   0.033   4.375   2.344 -1.4553 -0.3291 -0.9160
 4372TIP3    H234532   0.090   4.333   2.210 -1.0866 -1.3605 -0.4477
 4373TIP3   OH234533   3.012   1.165  15.754 -0.6899 -0.0150  0.6686
 4373TIP3    H134534   3.069   1.106  15.705 -0.2077  0.7984  0.2260
 4373TIP3    H234535   3.066   1.242  15.771 -1.6910  0.8370  0.1077
 4374TIP3   OH234536   4.932   1.391  15.475 -0.0093 -0.1157  0.0337
 4374TIP3    H134537   4.875   1.342  15.416  1.3595 -0.2158 -1.2593
 4374TIP3    H234538   4.981   1.324  15.523 -0.5453 -0.0169  0.7552
 4375TIP3   OH234539   4.046   5.308   1.575  0.3116  0.8685  0.7336
 4375TIP3    H134540   3.962   5.351   1.554 -0.1230  0.0362  0.7210
 4375TIP3    H234541   4.110   5.352   1.519 -0.0226  1.8782  1.1275
 4376TIP3   OH234542   4.611   0.209  11.849  0.1833 -0.1888  0.2055
 4376TIP3    H134543   4.580   0.283  11.902  0.5359 -0.1910  0.4197
 4376TIP3    H234544   4.546   0.201  11.779  0.2149  0.4184  0.0949
 4377TIP3   OH234545   2.962   3.775   0.683  0.1087  0.0946  0.1651
 4377TIP3    H134546   2.928   3.701   0.734  0.7586 -0.9681 -0.8805
 4377TIP3    H234547   3.036   3.807   0.734  1.0472 -1.2589 -0.2792
 4378TIP3   OH234548   0.041   0.993  13.799 -0.0817  0.0795 -0.1387
 4378TIP3    H134549   0.053   1.083  13.768  1.5634  0.2834  0.9400
 4378TIP3    H234550   0.098   0.987  13.876 -0.6961 -1.6874  0.2202
 4379TIP3   OH234551   3.673   6.394   4.728  0.1088 -0.0973 -0.4503
 4379TIP3    H134552   3.664   6.461   4.659 -0.1399  1.4729  1.0427
 4379TIP3    H234553   3.711   6.441   4.802  0.9955 -1.9001  0.2911
 4380TIP3   OH234554   0.500   3.243  10.756 -0.1270  0.2536 -0.1657
 4380TIP3    H134555   0.485   3.337  10.754 -1.1118  0.2022  1.6627
 4380TIP3    H234556   0.562   3.230  10.829  0.0946 -0.4943 -0.4773
 4381TIP3   OH234557   0.152   2.712   0.021  0.3390  0.2121  0.3988
 4381TIP3    H134558   0.064   2.674   0.014 -0.2115  1.3304  0.9699
 4381TIP3    H234559   0.188   2.706  -0.068 -1.9450  3.4991 -0.9496
 4382TIP3   OH234560   0.318   2.872   2.482 -0.0198  0.0187  0.1708
 4382TIP3    H134561   0.259   2.799   2.499 -1.0429  0.6668 -0.4904
 4382TIP3    H234562   0.303   2.932   2.555 -0.0926  0.1333  0.0612
 4383TIP3   OH234563   2.864   0.762  11.355  0.1301  0.2965 -0.7664
 4383TIP3    H134564   2.778   0.795  11.328  0.2356  1.4254  0.1980
 4383TIP3    H234565   2.914   0.756  11.273 -0.8228 -0.2970 -1.3248
 4384TIP3   OH234566   0.531   3.827   3.290 -0.1133 -0.0057  0.5902
 4384TIP3    H134567   0.585   3.902   3.265  0.2740 -0.5268 -0.1956
 4384TIP3    H234568   0.506   3.786   3.206 -0.8406 -0.3891  0.9825
 4385TIP3   OH234569   6.020   3.360   5.784  0.1358 -0.5368 -0.4981
 4385TIP3    H134570   6.007   3.309   5.863  0.4070 -0.1844 -0.2230
 4385TIP3    H234571   5.932   3.379   5.752  0.0205 -2.2774 -1.3358
 4386TIP3   OH234572   6.567   5.702   2.900 -0.2899  0.7289  0.8540
 4386TIP3    H134573   6.590   5.739   2.985 -0.5714  1.2502  0.7052
 4386TIP3    H234574   6.471   5.695   2.901 -0.2755  0.4653  0.6911
 4387TIP3   OH234575   0.492   2.115   4.525  0.5863 -0.2066 -0.7138
 4387TIP3    H134576   0.550   2.151   4.458  1.2472 -0.5247 -0.3168
 4387TIP3    H234577   0.426   2.183   4.539  0.9730  0.2352 -1.0247
 4388TIP3   OH234578   5.394   5.193  13.243  0.5723  0.2022 -0.2593
 4388TIP3    H134579   5.448   5.189  13.322 -0.4000 -1.7620  0.3796
 4388TIP3    H234580   5.448   5.238  13.179  1.1110  2.6091  1.7080
 4389TIP3   OH234581   0.739   5.186  13.740  0.0250 -0.7042 -0.3042
 4389TIP3    H134582   0.718   5.134  13.817 -0.5814 -1.2546 -0.8273
 4389TIP3    H234583   0.830   5.213  13.753 -0.2208 -0.3719  0.8276
 4390TIP3   OH234584   0.078   5.126  16.419 -0.3477  0.7263  0.2734
 4390TIP3    H134585   0.056   5.042  16.458  1.0186  0.9109  1.4776
 4390TIP3    H234586  -0.007   5.163  16.394 -0.9321 -2.3850 -3.4481
 4391TIP3   OH234587   6.312   3.814   5.387 -0.3338 -0.0675 -0.1688
 4391TIP3    H134588   6.349   3.763   5.315  1.0136 -1.0267  1.1473
 4391TIP3    H234589   6.282   3.750   5.451  1.7675  0.6893  1.7091
 4392TIP3   OH234590   4.966   6.152   5.656 -0.1566 -0.5221 -0.4937
 4392TIP3    H134591   5.011   6.237   5.664  0.3987 -0.6977 -1.5938
 4392TIP3    H234592   5.022   6.091   5.704 -1.1926 -0.0894  1.3966
 4393TIP3   OH234593   3.960   5.455  11.254 -0.2507 -0.3101  0.1819
 4393TIP3    H134594   3.940   5.502  11.334  0.5162  1.2958 -0.5320
 4393TIP3    H234595   3.876   5.421  11.224 -1.3679  2.8937 -0.6769
 4394TIP3   OH234596   5.005   5.110   1.607  0.0200 -0.0766  0.1603
 4394TIP3    H134597   4.965   5.164   1.539 -1.4013  1.3570  2.0222
 4394TIP3    H234598   5.087   5.155   1.627  0.6673 -0.7562 -0.8661
 4395TIP3   OH234599   0.245   5.399  15.927 -0.1581 -0.1801 -0.7690
 4395TIP3    H134600   0.227   5.492  15.941  0.7817 -0.1073  0.0744
 4395TIP3    H234601   0.200   5.378  15.845 -2.7923  0.3045  0.4451
 4396TIP3   OH234602   6.473   0.194  14.435 -0.4863 -0.2516 -0.2718
 4396TIP3    H134603   6.545   0.194  14.498  0.6833 -0.7755 -1.5384
 4396TIP3    H234604   6.443   0.285  14.432 -0.9978 -0.3420  1.4758
 4397TIP3   OH234605   2.034   0.378  11.226 -0.5449  0.2753 -0.3286
 4397TIP3    H134606   1.956   0.326  11.247  0.5327 -1.1372  0.3706
 4397TIP3    H234607   2.095   0.359  11.297  0.5747  1.0774 -1.0444
 4398TIP3   OH234608   0.270   6.615   2.908 -0.5294  0.5597  0.4101
 4398TIP3    H134609   0.316   6.539   2.871 -0.8875  1.0751 -1.1712
 4398TIP3    H234610   0.333   6.653   2.969  1.1908  1.1996 -1.6283
 4399TIP3   OH234611   3.365   2.820   3.010  0.0145  0.4105  0.8299
 4399TIP3    H134612   3.306   2.842   3.082 -0.1551 -0.9777  1.1470
 4399TIP3    H234613   3.307   2.807   2.934  0.0959  0.8943  0.6849
 4400TIP3   OH234614   4.006   5.687   4.212  0.8173 -0.1787 -0.0414
 4400TIP3    H134615   4.022   5.691   4.118  0.3607  0.3088 -0.0993
 4400TIP3    H234616   4.089   5.657   4.249  1.3484  0.7153 -0.4900
 4401TIP3   OH234617   2.012   1.076  13.683  0.4098  0.0607  0.2056
 4401TIP3    H134618   2.075   1.006  13.699  1.9466  1.1431 -0.8267
 4401TIP3    H234619   1.976   1.057  13.596 -1.2268 -0.8998  1.0455
 4402TIP3   OH234620   0.955   4.597  11.479  0.1029 -0.0381 -0.0271
 4402TIP3    H134621   0.894   4.593  11.405 -0.2292 -0.0310  0.2450
 4402TIP3    H234622   1.040   4.618  11.439 -0.5348  2.6161 -0.1553
 4403TIP3   OH234623   6.406   5.909  15.060  0.6027  0.1225 -0.1641
 4403TIP3    H134624   6.450   5.842  15.007 -2.2476 -1.5177 -0.6320
 4403TIP3    H234625   6.374   5.972  14.996 -1.9770 -1.3457 -0.4635
 4404TIP3   OH234626   2.546   5.481  16.705  0.6786  0.0270  0.2184
 4404TIP3    H134627   2.632   5.443  16.722 -0.1850 -2.6413 -0.8195
 4404TIP3    H234628   2.546   5.499  16.611  0.3094  0.6000  0.3198
 4405TIP3   OH234629   4.531   6.546  16.017 -0.0430  0.4086 -0.5463
 4405TIP3    H134630   4.512   6.462  15.974  1.9638  0.7116 -2.1720
 4405TIP3    H234631   4.541   6.524  16.109 -1.1961 -0.8424 -0.6847
 4406TIP3   OH234632   4.355   2.507  13.407  0.7309  0.1071  0.5581
 4406TIP3    H134633   4.309   2.423  13.414  0.6279 -0.0675 -1.6302
 4406TIP3    H234634   4.356   2.527  13.313  2.1386  1.7910  0.8693
 4407TIP3   OH234635   6.295   0.233   5.524 -0.0405 -0.1043  1.3487
 4407TIP3    H134636   6.258   0.149   5.550  0.2004 -0.1316  1.6055
 4407TIP3    H234637   6.349   0.260   5.598 -0.3003  0.3889  1.3655
 4408TIP3   OH234638   6.124   4.171  11.946 -0.0559 -0.4644 -0.0069
 4408TIP3    H134639   6.094   4.091  11.902 -0.4704 -0.7075  0.7102
 4408TIP3    H234640   6.077   4.172  12.029 -0.3835  0.7524 -0.1833
 4409TIP3   OH234641   3.954   1.053  11.644  0.2121  0.2362  0.0580
 4409TIP3    H134642   4.044   1.079  11.664  0.5558  0.3666 -1.5082
 4409TIP3    H234643   3.932   1.103  11.565 -0.9809 -0.3543 -0.0063
 4410TIP3   OH234644   6.479   1.009  10.404  0.4182 -0.2928 -0.1444
 4410TIP3    H134645   6.466   0.917  10.384  2.4174 -0.5203 -0.6325
 4410TIP3    H234646   6.573   1.024  10.390  0.2503  1.6824  0.4587
 4411TIP3   OH234647   5.553   2.387   0.496 -0.0626  0.2384 -0.3613
 4411TIP3    H134648   5.575   2.384   0.403  0.0722  1.1328 -0.3702
 4411TIP3    H234649   5.625   2.342   0.539 -0.0548 -0.0589 -0.6762
 4412TIP3   OH234650   2.020   1.766  10.769 -0.1034 -0.2192 -1.0558
 4412TIP3    H134651   2.092   1.719  10.726  0.8172 -0.7205  0.8915
 4412TIP3    H234652   1.941   1.724  10.736  0.6133 -1.5710 -1.1382
 4413TIP3   OH234653   4.343   5.434   0.355  0.0959  0.1002  0.4825
 4413TIP3    H134654   4.308   5.502   0.297 -0.5357  0.2607  1.0395
 4413TIP3    H234655   4.315   5.351   0.314  0.7959  0.1640 -0.1510
 4414TIP3   OH234656   2.664   5.700   5.349  0.6405 -0.2165  0.0405
 4414TIP3    H134657   2.644   5.631   5.412  0.3906  0.4976  0.7730
 4414TIP3    H234658   2.683   5.654   5.267  0.9945 -1.1651  0.6410
 4415TIP3   OH234659   0.436   6.056  16.284  0.0078 -0.3560 -0.7726
 4415TIP3    H134660   0.350   6.081  16.250 -0.6515  0.2955  1.2477
 4415TIP3    H234661   0.497   6.119  16.245 -0.6174 -0.0105 -1.2013
 4416TIP3   OH234662   5.735   0.643   0.233 -0.0369 -0.1783 -0.3611
 4416TIP3    H134663   5.651   0.686   0.242 -0.4351 -0.9031 -0.5325
 4416TIP3    H234664   5.715   0.558   0.194  1.0131  0.5789 -2.6909
 4417TIP3   OH234665   3.090   6.557   3.063  0.2749  0.2830  0.4870
 4417TIP3    H134666   3.043   6.639   3.047 -0.0823  0.0483  0.3190
 4417TIP3    H234667   3.025   6.499   3.103  0.8456  0.4707  1.7173
 4418TIP3   OH234668   3.215   5.952  13.270  0.6479  0.2682 -0.0771
 4418TIP3    H134669   3.144   5.962  13.334  1.2863  2.1308  0.3791
 4418TIP3    H234670   3.227   5.857  13.263 -0.6772 -0.0239  1.1673
 4419TIP3   OH234671   1.113   0.884   6.123 -0.2014 -0.2061  0.3425
 4419TIP3    H134672   1.058   0.809   6.146  1.7317 -1.6346  0.5237
 4419TIP3    H234673   1.168   0.897   6.200 -0.2109  1.1520  0.1396
 4420TIP3   OH234674   6.172   4.879  10.946  0.1187  0.3585 -0.5273
 4420TIP3    H134675   6.143   4.968  10.923 -0.3268 -0.0699 -1.7094
 4420TIP3    H234676   6.169   4.831  10.863 -0.7879 -1.0692  0.2972
 4421TIP3   OH234677   5.379   5.205   0.628  0.0917  0.6582 -0.4347
 4421TIP3    H134678   5.288   5.187   0.604  0.1567  1.6728 -1.5188
 4421TIP3    H234679   5.377   5.291   0.668  0.1558 -0.5364  2.4090
 4422TIP3   OH234680   5.052   4.860  15.272 -0.4513 -0.2606  0.2029
 4422TIP3    H134681   4.959   4.879  15.285 -0.9572 -0.1480 -2.7244
 4422TIP3    H234682   5.056   4.819  15.185  2.3303  0.6555 -0.2110
 4423TIP3   OH234683   1.889   0.140  16.597 -0.0237 -0.4802  0.6495
 4423TIP3    H134684   1.980   0.160  16.617  0.8095 -1.2087 -2.0041
 4423TIP3    H234685   1.890   0.050  16.565 -1.4309 -0.0483 -0.7477
 4424TIP3   OH234686   5.293   2.760   3.189  0.3010 -0.8568  0.1455
 4424TIP3    H134687   5.233   2.687   3.173  1.5573 -1.9689  0.3916
 4424TIP3    H234688   5.366   2.722   3.238 -0.2015  1.0860  2.5920
 4425TIP3   OH234689   2.333   1.498  16.187 -0.0674 -0.4478 -0.3588
 4425TIP3    H134690   2.405   1.536  16.237  0.5140 -0.6385 -1.0293
 4425TIP3    H234691   2.374   1.428  16.135 -1.0352 -1.7558  0.5513
 4426TIP3   OH234692   6.628   5.722   3.179 -0.2802  0.0642  0.4956
 4426TIP3    H134693   6.668   5.675   3.253  0.0255 -0.4298  0.0229
 4426TIP3    H234694   6.551   5.765   3.217  1.0834  1.6581  1.5880
 4427TIP3   OH234695   0.119   1.756  12.231  0.3343 -0.1919  0.1513
 4427TIP3    H134696   0.183   1.784  12.166  0.5526 -2.5289 -0.7371
 4427TIP3    H234697   0.163   1.687  12.280 -1.3960 -1.7876 -0.4086
 4428TIP3   OH234698   3.144   4.001  14.419  0.1223  0.2207 -0.0767
 4428TIP3    H134699   3.239   4.004  14.413  0.1657 -1.2352 -0.4442
 4428TIP3    H234700   3.126   4.008  14.513  0.7588 -2.1437  0.2680
 4429TIP3   OH234701   3.734   2.365  10.886  0.7180 -0.5427  0.1957
 4429TIP3    H134702   3.827   2.358  10.862  0.3489 -2.7830 -0.7667
 4429TIP3    H234703   3.692   2.290  10.845 -1.4019 -0.0837  1.3590
 4430TIP3   OH234704   5.303   6.464   3.789 -0.1143  0.1858  0.0792
 4430TIP3    H134705   5.232   6.438   3.730 -0.2898 -2.4251  1.3108
 4430TIP3    H234706   5.378   6.411   3.762 -0.1556 -0.9470  1.9802
 4431TIP3   OH234707   2.484   0.180   1.627 -0.0658 -0.1462  0.5102
 4431TIP3    H134708   2.392   0.200   1.610  0.2357  0.2635 -0.7744
 4431TIP3    H234709   2.523   0.171   1.540  0.2489 -4.7486  0.8969
 4432TIP3   OH234710   6.796   4.968   3.889  0.1910 -0.0642 -0.1710
 4432TIP3    H134711   6.755   5.034   3.944 -0.0898 -0.1251 -0.3082
 4432TIP3    H234712   6.748   4.887   3.905  1.7031 -0.7133  1.4119
 4433TIP3   OH234713   4.137   1.171  13.378 -0.8302  0.8433 -0.3817
 4433TIP3    H134714   4.217   1.126  13.405 -0.9885  0.9675  0.3278
 4433TIP3    H234715   4.128   1.152  13.285  0.2449  1.1567 -0.5581
 4434TIP3   OH234716   0.937   3.681  11.428  0.1033 -0.4250 -0.5554
 4434TIP3    H134717   0.977   3.743  11.367 -1.8454  1.2766 -0.1686
 4434TIP3    H234718   0.921   3.603  11.375 -0.0004  0.4150 -1.8039
 4435TIP3   OH234719   1.186   6.030   5.215  0.5169  0.3454 -0.1642
 4435TIP3    H134720   1.201   6.059   5.305 -1.3360  0.6649  0.0747
 4435TIP3    H234721   1.211   6.105   5.161  1.8282  0.0815  0.0398
 4436TIP3   OH234722   2.611   5.710   0.072  0.5990 -0.2408  0.1352
 4436TIP3    H134723   2.609   5.805   0.059 -1.1278 -0.1099  1.0485
 4436TIP3    H234724   2.543   5.676   0.014 -0.2089 -0.6732  1.2873
 4437TIP3   OH234725   2.667   1.783  10.176  0.0458  0.0920 -0.7582
 4437TIP3    H134726   2.699   1.746  10.258  1.0126 -0.8369 -1.5127
 4437TIP3    H234727   2.690   1.876  10.181 -2.4693  0.7167  1.1915
 4438TIP3   OH234728   4.560   1.415  16.488 -0.0438 -0.2053  0.5736
 4438TIP3    H134729   4.509   1.334  16.485 -0.6783  0.2115 -0.4337
 4438TIP3    H234730   4.551   1.453  16.401 -1.9215  2.2245  1.6899
 4439TIP3   OH234731   0.782   0.705   0.364  0.2619  0.0856  0.6752
 4439TIP3    H134732   0.874   0.733   0.364  0.3557 -0.0482 -1.4160
 4439TIP3    H234733   0.765   0.679   0.274 -1.3754 -1.5035  1.3781
 4440TIP3   OH234734   2.842   1.081   5.427 -0.3963 -0.3748  0.0790
 4440TIP3    H134735   2.804   1.168   5.419  0.6322  0.1425  0.6118
 4440TIP3    H234736   2.906   1.075   5.356 -1.1260 -1.0734 -0.5439
 4441TIP3   OH234737   0.643   1.907   1.747  0.0685  0.0364 -0.5337
 4441TIP3    H134738   0.701   1.980   1.768  0.0120 -0.4489  1.5519
 4441TIP3    H234739   0.698   1.844   1.702  0.7395  0.2970 -0.0876
 4442TIP3   OH234740   3.262   1.751  11.471  0.6481 -0.1092  0.1464
 4442TIP3    H134741   3.270   1.805  11.550  0.4683 -1.0216  0.8071
 4442TIP3    H234742   3.169   1.753  11.450  0.6680 -0.0217  0.0649
 4443TIP3   OH234743   2.202   2.978   5.946 -0.0682  0.8334  0.2748
 4443TIP3    H134744   2.165   2.898   5.909 -0.3302  0.6802  0.8529
 4443TIP3    H234745   2.269   3.005   5.883 -0.0841  0.2450 -0.0011
 4444TIP3   OH234746   3.623   1.378   3.148  0.1166  0.3353  0.1917
 4444TIP3    H134747   3.714   1.387   3.175  0.0320  0.5602  0.4078
 4444TIP3    H234748   3.574   1.433   3.210  0.0811  2.3117 -1.4986
 4445TIP3   OH234749   4.449   4.339  11.773  0.1587 -0.3239 -0.1429
 4445TIP3    H134750   4.392   4.331  11.696 -0.7302 -1.9990  0.6433
 4445TIP3    H234751   4.439   4.256  11.819  1.6286  0.1710  1.1534
 4446TIP3   OH234752   3.594   1.760   3.772 -0.6041 -0.3717  0.2467
 4446TIP3    H134753   3.688   1.746   3.757 -0.3701  0.6438  0.7115
 4446TIP3    H234754   3.572   1.835   3.717 -1.2811 -0.9507 -0.2920
 4447TIP3   OH234755   5.971   1.416  15.034 -0.0740 -0.8497  0.2136
 4447TIP3    H134756   5.945   1.508  15.044 -1.4791 -1.0710 -1.0662
 4447TIP3    H234757   5.897   1.375  14.989  0.3215 -2.7284  1.1863
 4448TIP3   OH234758   3.828   4.040   3.112  0.0068  0.1243  0.1029
 4448TIP3    H134759   3.807   4.055   3.204 -1.1809 -2.3789  0.3182
 4448TIP3    H234760   3.826   3.945   3.102  1.4610  0.2645 -2.2230
 4449TIP3   OH234761   3.769   2.104  14.683  0.1431 -0.1113 -0.0359
 4449TIP3    H134762   3.835   2.096  14.752 -0.7198  0.2308  0.8609
 4449TIP3    H234763   3.787   2.189  14.642  1.3108 -0.7806 -0.9573
 4450TIP3   OH234764   6.332   4.506   0.646 -0.1113  0.4826 -0.2246
 4450TIP3    H134765   6.354   4.594   0.618  0.1461 -0.0055 -1.6204
 4450TIP3    H234766   6.414   4.470   0.680 -0.2129  0.7650  0.3286
 4451TIP3   OH234767   6.211   3.232  16.249  0.5938 -0.1360  0.6088
 4451TIP3    H134768   6.142   3.242  16.314 -1.3496  1.4408 -1.5261
 4451TIP3    H234769   6.185   3.156  16.197 -0.3756  1.2195 -1.0157
 4452TIP3   OH234770   4.636   0.399   0.787  0.1415  0.2150 -0.1743
 4452TIP3    H134771   4.564   0.461   0.773 -0.6159 -0.0772  2.0152
 4452TIP3    H234772   4.709   0.454   0.816  0.2445  0.3308 -0.6516
 4453TIP3   OH234773   0.516   0.620   1.418  0.0591  0.5592  0.2352
 4453TIP3    H134774   0.463   0.699   1.408 -0.8754 -0.0368  0.3626
 4453TIP3    H234775   0.454   0.552   1.444  0.9270 -0.1124  0.6159
 4454TIP3   OH234776   0.364   4.578  12.825 -0.3961 -0.4040 -0.1069
 4454TIP3    H134777   0.327   4.637  12.759  1.5918 -1.0662 -1.9659
 4454TIP3    H234778   0.454   4.609  12.837  0.1822 -2.0343  0.1035
 4455TIP3   OH234779   2.978   1.495  12.154  0.3103 -0.2104  0.0167
 4455TIP3    H134780   3.035   1.420  12.172  0.9554  0.2950  0.1332
 4455TIP3    H234781   3.008   1.563  12.215 -1.8934 -0.6175  1.6983
 4456TIP3   OH234782   4.032   5.973   1.105 -0.7744  0.4221  0.2772
 4456TIP3    H134783   4.025   5.877   1.102 -0.0731  0.3657  0.4249
 4456TIP3    H234784   4.083   5.991   1.183  1.9285  0.7341 -1.4433
 4457TIP3   OH234785   4.558   2.319   3.814 -0.5674 -0.3586  0.3239
 4457TIP3    H134786   4.559   2.225   3.827  0.4872 -0.4930 -0.5314
 4457TIP3    H234787   4.507   2.332   3.734  0.4342 -0.3434 -0.3314
 4458TIP3   OH234788   3.524   2.617   1.434 -0.3369 -0.3226 -0.2026
 4458TIP3    H134789   3.535   2.551   1.365  1.4668  0.3580 -0.6118
 4458TIP3    H234790   3.537   2.701   1.390  0.0577  0.1669  0.8144
 4459TIP3   OH234791   2.072   3.469  11.360  0.0884  0.1266 -0.0442
 4459TIP3    H134792   2.066   3.411  11.284 -0.5764 -0.8257  0.7160
 4459TIP3    H234793   2.162   3.502  11.357 -0.0070  0.3221 -1.3885
 4460TIP3   OH234794   4.528   2.710  16.918  0.2628 -0.6330  0.6585
 4460TIP3    H134795   4.465   2.658  16.868 -1.3889 -1.9052  3.7180
 4460TIP3    H234796   4.477   2.782  16.954  1.3143  0.1184  0.6804
 4461TIP3   OH234797   6.492   2.337   5.695  0.0014 -0.0912 -0.3862
 4461TIP3    H134798   6.517   2.263   5.639 -1.9327 -0.1419 -1.2508
 4461TIP3    H234799   6.450   2.399   5.635 -1.9163 -0.0271  0.9457
 4462TIP3   OH234800   3.973   6.195  13.690 -0.0893 -0.3372 -0.6552
 4462TIP3    H134801   4.058   6.175  13.730 -0.1443  0.1311 -0.2831
 4462TIP3    H234802   3.977   6.154  13.604  0.4862 -0.3872 -0.6145
 4463TIP3   OH234803   3.551   0.967  14.140 -0.3075 -0.4071  0.0467
 4463TIP3    H134804   3.611   1.017  14.194 -1.1184 -0.6823  1.2324
 4463TIP3    H234805   3.569   0.876  14.162  0.8666 -0.6744 -1.7834
 4464TIP3   OH234806   3.050   6.073  16.819  0.6652 -0.2722  0.3974
 4464TIP3    H134807   3.117   6.138  16.840  0.6074  0.1701 -0.7212
 4464TIP3    H234808   3.099   5.997  16.789  0.6768  0.1722 -0.7516
 4465TIP3   OH234809   6.641   1.049  14.817 -0.7694 -0.2066 -0.0698
 4465TIP3    H134810   6.558   1.062  14.864 -0.2420 -1.4576  1.2930
 4465TIP3    H234811   6.643   0.956  14.796 -0.5857  0.1653 -1.8905
 4466TIP3   OH234812   0.408   0.708   5.070 -0.1613 -0.2193 -0.5577
 4466TIP3    H134813   0.446   0.741   5.151 -1.1859 -0.7909  0.1754
 4466TIP3    H234814   0.360   0.783   5.033  0.5454  0.1222 -0.7992
 4467TIP3   OH234815   4.915   6.556   2.058 -0.3512 -0.9795 -0.3429
 4467TIP3    H134816   4.874   6.598   1.982 -1.2530 -0.4708  0.4039
 4467TIP3    H234817   4.919   6.625   2.124  1.5090 -1.0919 -0.2875
 4468TIP3   OH234818   6.456   3.585  15.043  0.2318 -0.3445 -0.0611
 4468TIP3    H134819   6.509   3.519  14.999  0.7331 -1.5414  2.1428
 4468TIP3    H234820   6.366   3.551  15.039  0.2082 -0.2201 -0.5478
 4469TIP3   OH234821   2.153   2.168   2.990  0.6875  0.3104  0.0898
 4469TIP3    H134822   2.162   2.110   3.065  0.2245 -0.0665 -0.1408
 4469TIP3    H234823   2.172   2.113   2.914 -0.4332  0.2826 -0.1817
 4470TIP3   OH234824   0.074   1.935  13.328  1.1050 -0.1566 -0.2732
 4470TIP3    H134825  -0.009   1.968  13.362  1.0030 -0.2527 -0.4323
 4470TIP3    H234826   0.135   2.008  13.340  1.1334 -0.2750  0.3584
 4471TIP3   OH234827   6.463   3.558   1.749 -0.1557  0.2661 -0.1154
 4471TIP3    H134828   6.461   3.625   1.681 -2.0765  0.6806  0.2826
 4471TIP3    H234829   6.417   3.599   1.823  0.1374 -0.8814  0.7232
 4472TIP3   OH234830   5.455   2.641  11.207 -0.4558  0.2316  0.0251
 4472TIP3    H134831   5.468   2.578  11.277 -0.8835  1.1344  0.9467
 4472TIP3    H234832   5.529   2.627  11.148 -1.2920 -2.0898 -0.5801
 4473TIP3   OH234833   4.113   5.072  16.908 -1.0859  0.0346  0.2704
 4473TIP3    H134834   4.201   5.048  16.938 -1.6588 -0.1214  1.8768
 4473TIP3    H234835   4.117   5.167  16.896 -0.7906  0.0688  0.6401
 4474TIP3   OH234836   6.346   4.693  13.490 -0.2399 -0.4705  0.4660
 4474TIP3    H134837   6.310   4.707  13.403  1.4700 -0.1592 -0.2259
 4474TIP3    H234838   6.321   4.772  13.539  0.9701  0.5746 -0.5250
 4475TIP3   OH234839   6.595   1.492  13.254  0.4354  0.2534 -0.4107
 4475TIP3    H134840   6.688   1.510  13.238  0.9148 -1.6416 -0.0666
 4475TIP3    H234841   6.560   1.467  13.168  0.9091 -1.5135 -0.1359
 4476TIP3   OH234842   0.596   0.338  16.674  0.0634 -0.5618  0.6453
 4476TIP3    H134843   0.599   0.304  16.763  2.1426  0.1578  0.8947
 4476TIP3    H234844   0.552   0.422  16.682  1.0395 -0.0881  1.1573
 4477TIP3   OH234845   6.262   6.408   0.346 -0.0396 -0.1429 -0.6387
 4477TIP3    H134846   6.271   6.494   0.388  1.7824  0.5247 -2.1935
 4477TIP3    H234847   6.314   6.349   0.401  1.4765  0.5031 -1.3141
 4478TIP3   OH234848   1.635   5.887  16.884  0.5150  0.0813  0.5104
 4478TIP3    H134849   1.671   5.829  16.951  1.6691  0.8940  0.6186
 4478TIP3    H234850   1.553   5.844  16.857  0.3980 -0.6338  1.9000
 4479TIP3   OH234851   1.378   4.643   3.877 -0.5807  0.2903  0.2539
 4479TIP3    H134852   1.286   4.668   3.889 -0.9372 -0.4248 -0.8511
 4479TIP3    H234853   1.376   4.575   3.810  0.7907  0.4570  0.0107
 4480TIP3   OH234854   3.681   1.877   0.379 -0.2683  0.3868  0.7573
 4480TIP3    H134855   3.775   1.872   0.396 -0.3883  0.9863  1.7144
 4480TIP3    H234856   3.643   1.893   0.465 -1.1792  0.8753  0.2716
 4481TIP3   OH234857   0.200   0.391   0.025 -0.0948 -0.4778  0.0768
 4481TIP3    H134858   0.220   0.327   0.094 -1.0792 -1.8782 -0.8926
 4481TIP3    H234859   0.181   0.472   0.073  0.6693 -1.0204  1.3563
 4482TIP3   OH234860   1.698   1.467   3.846 -0.1738  0.3770  0.1501
 4482TIP3    H134861   1.741   1.413   3.780 -1.7944  0.2621 -0.8707
 4482TIP3    H234862   1.685   1.409   3.921  0.2083  0.0376 -0.0488
 4483TIP3   OH234863   4.906   5.624  15.836 -0.1268  0.3506 -0.1918
 4483TIP3    H134864   4.864   5.559  15.892 -0.5688  1.2401  0.5513
 4483TIP3    H234865   4.862   5.615  15.752 -0.8149  0.2752  0.1620
 4484TIP3   OH234866   3.014   3.965  16.630  0.4581 -0.2699  0.0621
 4484TIP3    H134867   3.068   4.042  16.652 -1.3831  0.8137  1.0526
 4484TIP3    H234868   3.036   3.946  16.539  1.4356  1.0381 -0.0106
 4485TIP3   OH234869   2.404   1.781  12.426 -0.1781 -0.4978 -0.2964
 4485TIP3    H134870   2.439   1.693  12.416 -0.5390 -0.6393 -0.3374
 4485TIP3    H234871   2.481   1.837  12.438  0.0882 -0.7310 -0.8722
 4486TIP3   OH234872   4.617   2.796   2.379 -0.4361 -0.5623 -0.1211
 4486TIP3    H134873   4.681   2.827   2.314 -0.9520  0.1567 -0.2993
 4486TIP3    H234874   4.534   2.796   2.332 -0.4175 -2.5648 -0.2241
 4487TIP3   OH234875   6.200   4.363  11.160 -0.4325  0.0596  0.3438
 4487TIP3    H134876   6.167   4.403  11.241 -0.4295 -1.9824  1.4255
 4487TIP3    H234877   6.262   4.427  11.125 -0.4094  0.9911  1.9883
 4488TIP3   OH234878   2.229   3.598  16.184  0.2440  0.4819 -0.0734
 4488TIP3    H134879   2.179   3.581  16.104 -1.1602 -0.7724  1.0087
 4488TIP3    H234880   2.169   3.647  16.240  1.0848  1.0501  0.3628
 4489TIP3   OH234881   4.284   3.576   3.620 -0.0484 -0.1320 -0.9708
 4489TIP3    H134882   4.294   3.558   3.527 -2.7937  0.7781 -1.5502
 4489TIP3    H234883   4.229   3.654   3.623  1.4586  0.9456  1.4401
 4490TIP3   OH234884   3.149   5.957  14.865  0.0448 -0.0960 -0.0717
 4490TIP3    H134885   3.101   5.999  14.793  0.6888  1.5650  0.4311
 4490TIP3    H234886   3.216   6.020  14.890 -0.9639 -0.0272  2.8592
 4491TIP3   OH234887   3.260   3.329  13.074  0.3706  0.2074  0.6350
 4491TIP3    H134888   3.307   3.353  13.154  0.0270  0.2423  0.8281
 4491TIP3    H234889   3.169   3.321  13.101  0.4436 -1.1289  0.5241
 4492TIP3   OH234890   6.116   5.166   2.560  0.0094 -0.2160 -0.1310
 4492TIP3    H134891   6.034   5.184   2.606 -0.8686  0.4837 -1.8922
 4492TIP3    H234892   6.160   5.100   2.614 -1.5305 -0.3349  1.0282
 4493TIP3   OH234893   5.074   0.408  15.333  0.3389 -0.4358 -0.1534
 4493TIP3    H134894   4.987   0.442  15.311 -0.5619  0.5768  4.0412
 4493TIP3    H234895   5.125   0.486  15.356  0.4290 -1.2753  2.9340
 4494TIP3   OH234896   1.680   3.278  16.188 -0.0350  0.1917  0.0331
 4494TIP3    H134897   1.615   3.307  16.124  1.3663  0.1942 -1.4590
 4494TIP3    H234898   1.663   3.331  16.266 -1.0047  1.0746 -0.7583
 4495TIP3   OH234899   3.955   6.658  15.408  0.0127  0.2466  0.3869
 4495TIP3    H134900   3.887   6.592  15.423 -0.6009  0.3807 -1.5663
 4495TIP3    H234901   3.913   6.724  15.352  0.8554  1.9054  1.6129
 4496TIP3   OH234902   5.498   3.415   4.101  0.3449  0.4518  0.4954
 4496TIP3    H134903   5.406   3.437   4.116  0.3079  0.7548 -0.1563
 4496TIP3    H234904   5.544   3.499   4.102  0.7023  0.2631  1.3250
 4497TIP3   OH234905   3.015   2.647  16.701  0.0850  0.3430 -0.1015
 4497TIP3    H134906   2.921   2.663  16.702 -0.0040 -0.1764  1.0040
 4497TIP3    H234907   3.035   2.613  16.788  1.1409 -0.4377 -0.6254
 4498TIP3   OH234908   5.667   5.560  12.057 -0.0924 -0.5157  0.2891
 4498TIP3    H134909   5.613   5.502  12.004  1.6256  0.4092 -2.7643
 4498TIP3    H234910   5.628   5.647  12.046  1.3999  0.0284 -1.3141
 4499TIP3   OH234911   2.143   6.227  12.427 -0.1419 -0.5335 -0.0609
 4499TIP3    H134912   2.081   6.154  12.428 -0.0728 -0.5926 -0.0565
 4499TIP3    H234913   2.224   6.190  12.464 -0.1538 -0.4116  0.0848
 4500TIP3   OH234914   4.562   6.640   0.139 -0.1119 -0.0245  0.0877
 4500TIP3    H134915   4.509   6.711   0.176 -1.6127 -0.3089 -1.3972
 4500TIP3    H234916   4.650   6.677   0.132 -0.6117  1.2865  0.4051
 4501TIP3   OH234917   2.302   0.994   4.694 -0.0584  0.2147  0.2559
 4501TIP3    H134918   2.352   1.050   4.633 -1.4978 -0.1627 -1.3388
 4501TIP3    H234919   2.337   0.906   4.680  0.5119  0.3130  0.9753
 4502TIP3   OH234920   1.538   6.547  12.742  0.3405 -0.2719 -0.3161
 4502TIP3    H134921   1.555   6.610  12.811 -0.7765 -0.1871 -0.0993
 4502TIP3    H234922   1.492   6.475  12.785  0.8194 -0.8359 -0.7237
 4503TIP3   OH234923   2.895   3.469  15.541  0.4960  0.0244 -0.1444
 4503TIP3    H134924   2.822   3.472  15.603 -1.0267  1.3793 -1.8974
 4503TIP3    H234925   2.868   3.403  15.476  0.3074  1.2222 -1.3352
 4504TIP3   OH234926   5.823   1.700  16.221  0.6248 -0.7251 -0.0730
 4504TIP3    H134927   5.846   1.681  16.129  0.8064  0.2793 -0.2444
 4504TIP3    H234928   5.786   1.788  16.218 -0.7231 -1.2526  0.6189
 4505TIP3   OH234929   0.650   0.615  15.592  0.4967  0.0758 -0.3502
 4505TIP3    H134930   0.598   0.652  15.664 -0.7157 -2.8359  0.4292
 4505TIP3    H234931   0.619   0.660  15.514 -0.5330  0.9990  0.5531
 4506TIP3   OH234932   4.900   3.843  14.042 -0.0251  0.0956 -0.5419
 4506TIP3    H134933   4.924   3.932  14.014  0.1515  0.0448 -0.5553
 4506TIP3    H234934   4.909   3.845  14.138  2.1637 -0.5201 -0.6731
 4507TIP3   OH234935   5.648   6.332   5.016 -0.2472 -0.3614  0.4210
 4507TIP3    H134936   5.554   6.321   5.029 -0.2684 -2.5787 -1.0641
 4507TIP3    H234937   5.655   6.383   4.934 -0.1583 -0.6065  0.2753
 4508TIP3   OH234938   6.182   0.104  12.670  0.1070  0.2613 -0.1228
 4508TIP3    H134939   6.171   0.196  12.691 -0.7808  0.5298 -1.6101
 4508TIP3    H234940   6.100   0.078  12.628  0.6594 -0.9655 -0.5121
 4509TIP3   OH234941   3.286   3.235   4.415 -0.2257 -0.3883 -0.4066
 4509TIP3    H134942   3.345   3.230   4.490 -0.6168 -0.1613 -0.0804
 4509TIP3    H234943   3.344   3.235   4.338  0.3335  2.0750 -0.0597
 4510TIP3   OH234944   1.566   3.934  16.038 -0.0686 -0.4496  0.3465
 4510TIP3    H134945   1.588   4.001  15.974  1.7945 -0.9034  0.4556
 4510TIP3    H234946   1.579   3.977  16.123  1.4066 -0.9652  0.4218
 4511TIP3   OH234947   4.178   0.196  13.975  0.3251  0.3499  0.4708
 4511TIP3    H134948   4.083   0.203  13.967  0.4349  1.4214 -0.0967
 4511TIP3    H234949   4.192   0.151  14.058 -0.6833 -0.4442  0.2305
 4512TIP3   OH234950   6.664   3.556  11.628  0.3324 -0.2776 -0.1656
 4512TIP3    H134951   6.590   3.496  11.633  0.0444  0.0894  0.0284
 4512TIP3    H234952   6.741   3.499  11.636  0.0956 -0.7235 -0.9897
 4513TIP3   OH234953   5.215   3.514  16.020 -0.1606 -0.3723 -0.1027
 4513TIP3    H134954   5.140   3.455  16.019  0.1479 -0.7651 -0.0265
 4513TIP3    H234955   5.273   3.480  15.952  2.1848 -2.9802  2.8928
 4514TIP3   OH234956   0.880   0.764  15.724  0.3552  0.4491 -0.0413
 4514TIP3    H134957   0.920   0.778  15.638 -1.2247  0.8685 -0.7374
 4514TIP3    H234958   0.799   0.716  15.705  0.3876 -0.1712  1.3043
 4515TIP3   OH234959   2.884   4.135  15.400  0.1558  0.2799 -0.3754
 4515TIP3    H134960   2.943   4.206  15.426  1.6382 -1.3961  1.1101
 4515TIP3    H234961   2.796   4.168  15.418  0.8968  0.9818  2.3287
 4516TIP3   OH234962   2.783   3.682  12.945  0.2245 -0.2514 -0.7129
 4516TIP3    H134963   2.859   3.628  12.964 -0.1501 -0.8273 -0.8131
 4516TIP3    H234964   2.798   3.764  12.993 -0.6685 -1.6136  2.1145
 4517TIP3   OH234965   4.097   4.001  11.962  0.1162  0.3369  0.9915
 4517TIP3    H134966   4.123   3.915  11.997  1.0389  0.5825  0.9414
 4517TIP3    H234967   4.015   4.021  12.007  0.0973 -0.3882  1.3066
 4518TIP3   OH234968   1.604   1.723   3.773 -0.4322 -0.1871  0.4687
 4518TIP3    H134969   1.610   1.787   3.844 -2.0996 -0.3955  0.8414
 4518TIP3    H234970   1.648   1.645   3.807  0.3950  0.2954  0.5402
 4519TIP3   OH234971   2.929   5.136  12.414  0.8094 -0.6894  0.1197
 4519TIP3    H134972   2.956   5.219  12.454  1.2026 -0.4548 -0.6208
 4519TIP3    H234973   2.834   5.143  12.404  0.8801 -0.2028 -0.2186
 4520TIP3   OH234974   2.768   5.188  15.643  0.1852 -0.3261 -0.2736
 4520TIP3    H134975   2.694   5.231  15.602 -0.6616 -1.1521  0.3345
 4520TIP3    H234976   2.729   5.128  15.707  1.3521 -1.1331 -0.2742
 4521TIP3   OH234977   5.834   5.038  15.055  0.0342  0.5448 -0.0421
 4521TIP3    H134978   5.742   5.041  15.030 -0.0153 -0.6826 -0.1091
 4521TIP3    H234979   5.865   4.954  15.019  0.8574  0.3637  1.0418
 4522TIP3   OH234980   2.836   3.892  13.108  0.4104  0.6263 -0.1644
 4522TIP3    H134981   2.769   3.959  13.118  0.8416  1.2054 -0.9555
 4522TIP3    H234982   2.903   3.915  13.172  0.2765  0.5990 -0.0160
 4523TIP3   OH234983   3.809   4.459  16.811  0.4536 -0.5804  0.1251
 4523TIP3    H134984   3.718   4.489  16.820 -0.0183 -1.9807  0.3038
 4523TIP3    H234985   3.858   4.537  16.786 -0.9359  0.0372 -0.7864
 4524TIP3   OH234986   3.984   4.638  16.190 -0.0007 -0.7474  0.1637
 4524TIP3    H134987   4.001   4.684  16.272 -0.2835 -1.0373  0.3835
 4524TIP3    H234988   4.058   4.577  16.181  0.4213 -0.2059 -0.1686
 4525TIP3   OH234989   3.607   2.393   5.783  0.2473  0.4619 -0.2368
 4525TIP3    H134990   3.520   2.431   5.778  0.9017  1.9325 -1.2313
 4525TIP3    H234991   3.597   2.303   5.750 -0.9796  0.4171  0.2430
 4526TIP3   OH234992   4.411   1.203   5.925  0.5060 -0.1529  0.5496
 4526TIP3    H134993   4.473   1.229   5.993  1.2924 -0.6409  0.0393
 4526TIP3    H234994   4.462   1.206   5.844 -0.4316  0.4992 -0.0438
 4527TIP3   OH234995   2.058   0.893   3.178  0.3175  0.3740  0.7146
 4527TIP3    H134996   2.077   0.977   3.219 -1.5173  0.2206  1.9761
 4527TIP3    H234997   2.010   0.843   3.244 -0.4770 -0.8782 -0.7289
 4528TIP3   OH234998   2.969   4.731  11.280 -0.1358 -0.1726  0.5180
 4528TIP3    H134999   3.033   4.750  11.349  0.6266  0.2661 -0.2939
 4528TIP3    H235000   3.021   4.729  11.199 -1.4180  2.4368 -0.4803
 4529TIP3   OH235001   1.114   2.824   1.783  0.1238  0.6397 -0.3762
 4529TIP3    H135002   1.089   2.833   1.691  0.6811 -1.2322 -0.7407
 4529TIP3    H235003   1.035   2.849   1.831  0.0234  2.2928 -1.3032
 4530TIP3   OH235004   6.179   2.305  12.750  0.1423 -0.0470  0.5882
 4530TIP3    H135005   6.218   2.281  12.667 -0.2811  1.8435 -0.1978
 4530TIP3    H235006   6.250   2.346  12.799  0.7810 -2.4012  1.8074
 4531TIP3   OH235007   1.957   1.843  13.437 -0.8986 -0.5254 -0.3667
 4531TIP3    H135008   1.893   1.874  13.502 -1.4780  0.5719 -1.4248
 4531TIP3    H235009   1.903   1.812  13.364 -0.2866  1.7806 -1.9055
 4532TIP3   OH235010   3.280   2.042  13.462 -0.2535 -1.0654 -0.1883
 4532TIP3    H135011   3.348   2.031  13.396  1.9756  0.6953  1.6447
 4532TIP3    H235012   3.310   1.991  13.537 -1.9993 -1.8519  0.0378
 4533TIP3   OH235013   0.656   5.646  12.089  0.4187 -0.5962 -0.1534
 4533TIP3    H135014   0.741   5.669  12.053  1.4575  3.1368  3.7842
 4533TIP3    H235015   0.593   5.688  12.031  1.5718  0.2768 -0.8080
 4534TIP3   OH235016   5.477   2.138   0.283 -0.1808 -0.3053  0.0092
 4534TIP3    H135017   5.529   2.209   0.247 -1.4504  0.3756 -0.5403
 4534TIP3    H235018   5.524   2.058   0.258  1.4068  0.3251  0.8774
 4535TIP3   OH235019   6.105   2.141   4.319 -0.2077  0.2281  0.0939
 4535TIP3    H135020   6.127   2.229   4.287 -1.3257  0.4345 -0.1332
 4535TIP3    H235021   6.032   2.154   4.379 -0.2334 -0.5249  0.2416
 4536TIP3   OH235022   1.536   0.533  14.980  0.0076  0.2327 -0.1507
 4536TIP3    H135023   1.453   0.488  14.964  1.3562 -1.7132 -2.4472
 4536TIP3    H235024   1.578   0.536  14.894  2.3541  1.0437  0.9396
 4537TIP3   OH235025   0.365   2.202  12.784 -0.0136  0.0791 -0.2968
 4537TIP3    H135026   0.384   2.244  12.868  0.4879 -0.4856 -0.1161
 4537TIP3    H235027   0.391   2.111  12.797 -2.8881 -0.7991 -0.0305
 4538TIP3   OH235028   1.505   1.963  12.555  0.1132  0.0534 -0.4134
 4538TIP3    H135029   1.436   2.003  12.608 -0.6400  1.2677 -2.1955
 4538TIP3    H235030   1.461   1.888  12.513 -0.3458  1.1033 -1.9205
 4539TIP3   OH235031   1.202   6.071  12.384 -0.7778 -0.1572  0.0557
 4539TIP3    H135032   1.145   6.148  12.389 -1.7924 -0.8894 -0.0250
 4539TIP3    H235033   1.206   6.050  12.291  0.0715  0.2083  0.0031
 4540TIP3   OH235034   2.452   6.434   2.379 -0.1911 -0.0060  0.1421
 4540TIP3    H135035   2.417   6.481   2.303 -0.9402  1.6004  1.4011
 4540TIP3    H235036   2.391   6.361   2.392 -0.4083  0.0655 -0.4497
 4541TIP3   OH235037   2.082   6.661   4.926  0.2814 -0.1622 -0.2465
 4541TIP3    H135038   2.056   6.678   4.836 -1.0006  1.9225  0.4209
 4541TIP3    H235039   2.107   6.747   4.960  1.7294 -1.0625  1.1211
 4542TIP3   OH235040   6.606   4.714   5.723 -0.1553  0.2199 -0.3103
 4542TIP3    H135041   6.670   4.652   5.690  2.3216  1.1913  2.3473
 4542TIP3    H235042   6.626   4.796   5.677  1.2460  0.7737  1.2115
 4543TIP3   OH235043   1.031   0.007   2.547 -0.4035 -0.3363  0.1831
 4543TIP3    H135044   1.031   0.090   2.596  0.8914 -0.6621  0.7946
 4543TIP3    H235045   0.958   0.015   2.487  0.2394  1.6534 -0.4283
 4544TIP3   OH235046   0.676   5.605  14.366  0.6378 -0.5663  0.2576
 4544TIP3    H135047   0.603   5.586  14.425  1.5256 -0.3152  1.4910
 4544TIP3    H235048   0.737   5.655  14.420  1.0019  0.6510 -1.2059
 4545TIP3   OH235049   0.787   0.417  13.014  0.2166 -0.2002  0.2630
 4545TIP3    H135050   0.793   0.510  12.989 -1.3349  0.3198  1.6564
 4545TIP3    H235051   0.714   0.383  12.962 -0.9430  0.0839  1.6174
 4546TIP3   OH235052   6.692   5.616   3.813 -0.0051  0.2753  0.4676
 4546TIP3    H135053   6.663   5.680   3.748  1.3763 -0.5262 -0.9832
 4546TIP3    H235054   6.717   5.670   3.889  4.1693  1.9554 -1.7760
 4547TIP3   OH235055   4.606   3.059  12.777 -0.6868  0.2571  0.1438
 4547TIP3    H135056   4.669   3.130  12.787 -2.2725  1.6323  0.8781
 4547TIP3    H235057   4.594   3.025  12.866  0.6181 -1.4689 -0.3083
 4548TIP3   OH235058   0.058   3.968  13.738  0.8371 -0.0700  0.4196
 4548TIP3    H135059   0.045   3.915  13.660  1.0764 -1.5480  1.3368
 4548TIP3    H235060   0.152   3.961  13.757  1.1435  1.8707 -0.2306
 4549TIP3   OH235061   5.787   2.579  13.905 -0.6038 -0.0662  0.0218
 4549TIP3    H135062   5.839   2.627  13.841  0.8392 -0.4439  0.8569
 4549TIP3    H235063   5.844   2.573  13.982 -1.2876 -1.8318  0.4389
 4550TIP3   OH235064   4.949   4.546  12.861 -0.4605 -0.2257 -0.2890
 4550TIP3    H135065   4.951   4.579  12.771  1.2322 -0.1815 -0.2649
 4550TIP3    H235066   4.980   4.620  12.914  1.0740 -1.0585  0.0216
 4551TIP3   OH235067   0.311   0.462   1.541  0.2575  0.1564  0.2794
 4551TIP3    H135068   0.330   0.379   1.498  0.8623  0.3259  0.2085
 4551TIP3    H235069   0.347   0.452   1.629  1.0728  0.6337  0.0120
 4552TIP3   OH235070   3.141   0.571   2.479 -0.4296  0.4675 -0.2641
 4552TIP3    H135071   3.188   0.600   2.557 -0.1337  0.7586 -0.5494
 4552TIP3    H235072   3.064   0.525   2.513  0.0261  0.0372  0.2071
 4553TIP3   OH235073   2.819   3.530   5.500 -0.0264  0.2274  0.3221
 4553TIP3    H135074   2.856   3.612   5.532  0.5592 -0.5289  1.6646
 4553TIP3    H235075   2.887   3.465   5.515 -0.6098 -0.5785 -0.3951
 4554TIP3   OH235076   0.841   2.733   3.555 -0.1705  0.1702  0.3240
 4554TIP3    H135077   0.751   2.737   3.587 -0.5625 -1.5287 -0.5115
 4554TIP3    H235078   0.883   2.665   3.608  0.9189  1.5505  1.3234
 4555TIP3   OH235079   5.203   4.823   1.605 -0.2132 -0.6301  0.3534
 4555TIP3    H135080   5.220   4.885   1.533  0.8970 -1.9343 -0.5560
 4555TIP3    H235081   5.290   4.790   1.628 -0.4694  0.1364  2.6932
 4556TIP3   OH235082   6.785   4.080   2.666 -0.3149  1.0411  0.1669
 4556TIP3    H135083   6.840   4.125   2.729  0.3037  0.3095  0.1645
 4556TIP3    H235084   6.794   3.987   2.688 -0.6855  0.8335 -0.5173
 4557TIP3   OH235085   0.273   2.109   1.934 -0.4330  0.1418 -0.2879
 4557TIP3    H135086   0.326   2.056   1.874  1.4629  2.5400 -0.9192
 4557TIP3    H235087   0.307   2.089   2.021  0.5309  0.5459 -0.5576
 4558TIP3   OH235088   2.595   1.009  16.493 -0.1177  0.0350  0.0883
 4558TIP3    H135089   2.562   0.954  16.421  0.5851  0.9880 -0.9872
 4558TIP3    H235090   2.689   0.991  16.495 -0.1479 -0.0624  0.8549
 4559TIP3   OH235091   6.043   3.403   6.658  0.1622 -0.1618  0.1070
 4559TIP3    H135092   5.999   3.482   6.628  0.4050 -0.1405 -0.2043
 4559TIP3    H235093   6.098   3.377   6.584  0.1723 -0.5554  0.2507
 4560TIP3   OH235094   0.883   5.947  11.028  0.0219 -0.3832  0.2534
 4560TIP3    H135095   0.933   6.028  11.034 -2.0968  0.9203  1.2995
 4560TIP3    H235096   0.840   5.951  10.942  1.6164 -1.5157 -0.6568
 4561TIP3   OH235097   5.935   3.210  16.708  0.2756 -0.3120  0.4232
 4561TIP3    H135098   5.937   3.283  16.770 -0.7269  0.7461 -0.7257
 4561TIP3    H235099   5.861   3.157  16.736  0.3675 -0.3234  0.6464
 4562TIP3   OH235100   5.741   6.332   4.597  0.2590  0.1499 -0.1035
 4562TIP3    H135101   5.691   6.378   4.665 -0.8756  0.3523 -1.0272
 4562TIP3    H235102   5.829   6.325   4.632 -0.2903  0.2683  1.3739
 4563TIP3   OH235103   0.457   0.571  16.059  0.0959  0.1439 -0.2531
 4563TIP3    H135104   0.498   0.510  16.121 -2.0279 -0.4141  0.6718
 4563TIP3    H235105   0.446   0.652  16.108 -2.0472 -0.4521  0.3311
 4564TIP3   OH235106   0.470   3.045  15.166  0.0593 -0.3515 -0.0924
 4564TIP3    H135107   0.459   3.090  15.082 -2.9057  0.6208  0.6835
 4564TIP3    H235108   0.381   3.017  15.189  0.8967 -1.1751  2.4152
 4565TIP3   OH235109   5.723   2.557   4.969  0.0896  0.5631 -0.6786
 4565TIP3    H135110   5.629   2.555   4.982  0.0923  2.3910 -0.1890
 4565TIP3    H235111   5.740   2.486   4.906 -1.5002 -0.2037 -0.2845
 4566TIP3   OH235112   1.383   5.815  16.783 -0.2514  0.3222  1.1813
 4566TIP3    H135113   1.319   5.863  16.730  1.9945  0.4446 -1.7027
 4566TIP3    H235114   1.385   5.728  16.743  0.1336 -0.2196  2.3598
 4567TIP3   OH235115   3.445   1.147  13.390 -0.0223  0.4993  0.1627
 4567TIP3    H135116   3.373   1.205  13.415 -0.8863 -1.3478  2.2593
 4567TIP3    H235117   3.473   1.180  13.304 -1.3768  3.0899  0.6043
 4568TIP3   OH235118   5.694   6.192   2.169 -0.1790 -0.3566  0.0260
 4568TIP3    H135119   5.605   6.183   2.135 -0.2128 -1.6755  0.4337
 4568TIP3    H235120   5.737   6.251   2.107 -1.8379  1.8619  0.8139
 4569TIP3   OH235121   1.333   0.349  11.928  0.1701 -0.7100 -0.3635
 4569TIP3    H135122   1.298   0.288  11.864 -1.7550  1.7196 -1.8384
 4569TIP3    H235123   1.283   0.430  11.914  2.1345  1.0501  1.8325
 4570TIP3   OH235124   0.540   4.387   0.111  0.0952 -0.2400  0.0602
 4570TIP3    H135125   0.460   4.390   0.165  0.1984  3.2786  0.2672
 4570TIP3    H235126   0.611   4.383   0.175  0.1443  1.7170  0.2039
 4571TIP3   OH235127   5.421   1.970   1.488  0.0880 -0.3152  0.1476
 4571TIP3    H135128   5.363   1.895   1.504  1.8934 -1.8562 -0.1241
 4571TIP3    H235129   5.384   2.012   1.410  0.8195 -2.9197 -1.7413
 4572TIP3   OH235130   0.200   3.006  12.935  0.1345 -0.0573  0.8432
 4572TIP3    H135131   0.202   2.940  12.866 -0.1297  0.4536  0.3369
 4572TIP3    H235132   0.109   3.033  12.940  0.0708 -0.4209  1.7168
 4573TIP3   OH235133   3.219   2.873   1.465 -0.5959 -0.1033  0.4264
 4573TIP3    H135134   3.146   2.812   1.465  0.2133 -1.1055  0.3413
 4573TIP3    H235135   3.260   2.861   1.380 -1.4549  1.8740 -0.3140
 4574TIP3   OH235136   6.155   4.232   3.557 -0.1028 -0.2611 -0.5570
 4574TIP3    H135137   6.249   4.249   3.555  0.0160 -0.8890 -0.5557
 4574TIP3    H235138   6.128   4.233   3.465  0.0664 -0.9373 -0.6157
 4575TIP3   OH235139   1.492   1.486   2.044  0.0374  0.2994  0.0632
 4575TIP3    H135140   1.515   1.433   2.120 -2.5676 -1.8534 -0.4673
 4575TIP3    H235141   1.413   1.533   2.070  1.3982  2.8172 -0.0455
 4576TIP3   OH235142   3.163   3.216   4.961  0.1360  0.1916 -0.5106
 4576TIP3    H135143   3.189   3.126   4.941 -1.5205 -0.7856  1.3622
 4576TIP3    H235144   3.231   3.248   5.020 -0.4321 -0.7156  0.6889
 4577TIP3   OH235145   4.941   2.558   5.040 -0.2520  0.4266  0.5537
 4577TIP3    H135146   4.854   2.527   5.066  0.0073  0.9295  2.1600
 4577TIP3    H235147   4.925   2.632   4.983 -0.8729  0.2065  0.4383
 4578TIP3   OH235148   1.192   4.004  10.905 -0.2767  0.4967  0.1254
 4578TIP3    H135149   1.197   4.000  11.000  0.1459 -2.1258  0.0674
 4578TIP3    H235150   1.263   3.946  10.875 -1.3062  0.1389 -1.7443
 4579TIP3   OH235151   6.100   0.775   2.702  0.1879 -0.6158 -0.1464
 4579TIP3    H135152   6.167   0.747   2.764  0.0212 -1.4137 -0.3242
 4579TIP3    H235153   6.021   0.786   2.756 -0.5248 -3.3384 -0.4691
 4580TIP3   OH235154   2.335   2.024   1.408  0.3892  0.1003  0.7377
 4580TIP3    H135155   2.335   2.113   1.444  0.8897 -0.6703  2.7898
 4580TIP3    H235156   2.242   2.001   1.401  0.2632  0.7237  0.3878
 4581TIP3   OH235157   5.728   3.088  14.262  0.4210  0.3864  0.0633
 4581TIP3    H135158   5.734   3.098  14.357 -0.5895 -0.1532  0.1961
 4581TIP3    H235159   5.791   3.018  14.241  1.0181  0.8557  0.2597
 4582TIP3   OH235160   1.618   0.900  13.948 -0.1268  0.4485  0.1034
 4582TIP3    H135161   1.630   0.921  14.041 -0.6274 -1.9340  0.7657
 4582TIP3    H235162   1.525   0.878  13.941 -0.1077  0.6899 -1.0044
 4583TIP3   OH235163   4.195   6.699   0.827  0.0422 -0.2110  0.4220
 4583TIP3    H135164   4.248   6.647   0.889 -0.4213 -1.6749 -0.3760
 4583TIP3    H235165   4.257   6.725   0.759  0.1277 -0.3260  0.4552
 4584TIP3   OH235166   0.552   6.457   5.629  0.0802  0.0065  0.3013
 4584TIP3    H135167   0.485   6.389   5.623 -0.6354  0.7580 -0.6602
 4584TIP3    H235168   0.570   6.480   5.538  0.9051  0.5471  0.5900
 4585TIP3   OH235169   1.380   0.086   1.220  0.5416 -0.1613  0.5469
 4585TIP3    H135170   1.450   0.136   1.261  0.9551 -1.0570  0.9604
 4585TIP3    H235171   1.418  -0.001   1.205  0.3374  0.0689 -1.5558
 4586TIP3   OH235172   0.336   4.221  15.067  0.2775 -0.2952  0.2606
 4586TIP3    H135173   0.277   4.248  15.137 -1.8661 -2.2198 -0.6741
 4586TIP3    H235174   0.385   4.147  15.103  0.3168 -0.2853  0.2281
 4587TIP3   OH235175   3.969   1.700   2.682  0.1270  0.2884 -0.2707
 4587TIP3    H135176   3.916   1.623   2.700 -0.5373  0.4825 -1.3309
 4587TIP3    H235177   3.913   1.774   2.704  0.4172  0.4909 -0.1938
 4588TIP3   OH235178   3.673   1.614   1.331 -0.3634 -0.1304 -0.2624
 4588TIP3    H135179   3.708   1.615   1.242  0.6991  1.2094  0.1374
 4588TIP3    H235180   3.748   1.635   1.387 -1.1471 -0.3252  0.8972
 4589TIP3   OH235181   3.794   3.371   4.274 -0.0155  0.6564 -0.0081
 4589TIP3    H135182   3.859   3.334   4.213  1.6390  2.6239  0.4476
 4589TIP3    H235183   3.799   3.465   4.259 -0.7788  1.0569  2.0076
 4590TIP3   OH235184   5.024   1.137  11.695  0.6749  0.3339  0.1078
 4590TIP3    H135185   4.939   1.115  11.734  1.3509  1.3836  2.3715
 4590TIP3    H235186   5.064   1.196  11.758  2.3227  1.3865 -1.8106
 4591TIP3   OH235187   1.022   2.892  10.457  0.0346 -0.3995 -0.9071
 4591TIP3    H135188   1.005   2.986  10.457 -1.0618 -0.5562  1.0830
 4591TIP3    H235189   0.943   2.853  10.419  0.0100 -0.5851 -0.6648
 4592TIP3   OH235190   4.819   1.488   2.063 -0.0431 -0.0603  0.2928
 4592TIP3    H135191   4.785   1.572   2.031  0.8792  0.0119 -0.5314
 4592TIP3    H235192   4.752   1.424   2.039  0.1282  0.1595 -0.8003
 4593TIP3   OH235193   5.599   3.221  15.661  0.1414  0.0869  0.3490
 4593TIP3    H135194   5.627   3.219  15.569  2.1160  0.8172  0.8965
 4593TIP3    H235195   5.620   3.310  15.690  0.3623 -0.4130  1.7555
 4594TIP3   OH235196   0.359   2.591  11.998  0.3813  0.0411  0.3422
 4594TIP3    H135197   0.436   2.551  12.037  0.8814  0.9000  0.2477
 4594TIP3    H235198   0.292   2.586  12.067  0.6119 -0.3907  0.5416
 4595TIP3   OH235199   3.347   3.757   1.334 -0.8508 -0.3514 -0.0634
 4595TIP3    H135200   3.295   3.837   1.327 -0.4528 -0.2331 -2.6211
 4595TIP3    H235201   3.286   3.686   1.314 -0.2523 -0.2472 -2.6046
 4596TIP3   OH235202   6.485   2.016  12.687  0.4061  0.3554 -0.2957
 4596TIP3    H135203   6.395   1.986  12.694  0.4732  0.2662  0.2964
 4596TIP3    H235204   6.535   1.937  12.668  0.4165  0.3207 -0.1267
 4597TIP3   OH235205   0.884   5.878  13.518  0.2285 -0.1982 -0.0876
 4597TIP3    H135206   0.968   5.865  13.473 -0.8622 -1.3323 -1.9176
 4597TIP3    H235207   0.898   5.954  13.574  2.1896  0.2119 -1.0542
 4598TIP3   OH235208   4.383   1.056   3.359 -0.2996 -0.1559  0.1474
 4598TIP3    H135209   4.295   1.077   3.389 -0.6792  0.4077 -1.2947
 4598TIP3    H235210   4.371   1.009   3.277  0.7472  0.5342 -0.4355
 4599TIP3   OH235211   1.691   5.211   4.404 -0.3188 -0.5258  0.1612
 4599TIP3    H135212   1.749   5.265   4.458  1.4489 -1.6019 -0.5894
 4599TIP3    H235213   1.655   5.273   4.340  0.0642  0.1395  0.5695
 4600TIP3   OH235214   0.215   3.953   4.956 -0.4173  0.2743  0.4226
 4600TIP3    H135215   0.226   4.042   4.923 -1.2905  0.0489 -0.5298
 4600TIP3    H235216   0.246   3.956   5.047 -1.0869  1.7082  0.6250
 4601TIP3   OH235217   3.481   2.543  10.634 -0.1166  0.0668 -0.3458
 4601TIP3    H135218   3.446   2.484  10.567 -1.1333  1.5758 -1.2061
 4601TIP3    H235219   3.576   2.539  10.623 -0.2377 -0.3072 -1.3428
 4602TIP3   OH235220   1.653   5.521  16.626  0.7538  0.1531 -0.0994
 4602TIP3    H135221   1.735   5.539  16.580  1.0820 -3.0006 -1.0242
 4602TIP3    H235222   1.673   5.446  16.683 -1.1460  0.1908  0.7181
 4603TIP3   OH235223   2.077   5.723  11.196  0.2650  0.3777  0.2744
 4603TIP3    H135224   2.055   5.784  11.125  0.3027  1.3963  1.1230
 4603TIP3    H235225   2.154   5.676  11.164 -0.0460  0.4220 -0.5801
 4604TIP3   OH235226   2.583   6.255   3.412 -0.0711  0.1448  0.2266
 4604TIP3    H135227   2.527   6.271   3.336  0.6484  0.2433 -0.2942
 4604TIP3    H235228   2.624   6.340   3.429  0.6900 -0.1652 -0.0321
 4605TIP3   OH235229   3.652   5.353  10.856 -0.1279  0.0236  0.4772
 4605TIP3    H135230   3.570   5.337  10.808 -0.0679 -0.4229  0.5229
 4605TIP3    H235231   3.703   5.273  10.845  0.2441  0.2417  0.5769
 4606TIP3   OH235232   2.273   6.426   3.194 -0.3618  0.1932 -0.5418
 4606TIP3    H135233   2.301   6.517   3.192  0.5519 -0.0657 -0.1878
 4606TIP3    H235234   2.207   6.419   3.125 -2.2153  1.6767  0.9655
 4607TIP3   OH235235   5.894   3.936  13.749 -0.3143 -0.5749  0.6572
 4607TIP3    H135236   5.850   3.870  13.696 -0.5810  0.2683 -0.2007
 4607TIP3    H235237   5.892   4.016  13.696  2.9280 -0.6559  0.1808
 4608TIP3   OH235238   6.035   5.903   3.294 -0.2346  0.2904 -0.0547
 4608TIP3    H135239   6.038   5.998   3.283 -1.1063  0.3410  0.0486
 4608TIP3    H235240   6.062   5.888   3.384  1.8075  0.2744 -0.6236
 4609TIP3   OH235241   3.212   2.554  13.847 -0.0761  0.7325  0.0641
 4609TIP3    H135242   3.248   2.614  13.781  0.7463  0.3067  0.1184
 4609TIP3    H235243   3.164   2.489  13.796  0.0393  0.7519 -0.0710
 4610TIP3   OH235244   2.854   5.425   2.655 -0.2719  0.2100  0.3340
 4610TIP3    H135245   2.941   5.458   2.636 -0.9588  1.8193 -0.1973
 4610TIP3    H235246   2.819   5.486   2.720 -1.1184 -0.2250  0.3019
 4611TIP3   OH235247   1.305   1.328   1.073  0.2732 -0.0049 -0.0412
 4611TIP3    H135248   1.282   1.260   1.137  1.2788  0.8873  1.3377
 4611TIP3    H235249   1.272   1.409   1.112 -0.4678  0.3892 -1.4276
 4612TIP3   OH235250   2.779   0.195   5.851 -0.7463  0.5070 -0.5445
 4612TIP3    H135251   2.764   0.162   5.939  2.3587 -1.1032 -0.4770
 4612TIP3    H235252   2.800   0.288   5.863 -0.6712  0.3746  0.3658
 4613TIP3   OH235253   6.487   1.577   2.720  0.5109  0.3387  0.7310
 4613TIP3    H135254   6.457   1.563   2.630 -2.9245  0.9587  1.6761
 4613TIP3    H235255   6.556   1.643   2.711  0.3557  0.2914 -1.4414
 4614TIP3   OH235256   3.734   4.080   4.724  0.3798  0.0897  0.5506
 4614TIP3    H135257   3.697   4.015   4.665  1.1767 -0.3209  0.4955
 4614TIP3    H235258   3.658   4.126   4.759 -0.1555 -0.4125  0.0702
 4615TIP3   OH235259   4.520   0.764   4.917  0.2034 -0.0829  0.3520
 4615TIP3    H135260   4.462   0.796   4.986  0.7348 -2.6724  2.1154
 4615TIP3    H235261   4.465   0.709   4.862  0.4873 -0.8153  0.7801
 4616TIP3   OH235262   0.208   2.822   2.979  0.3559  0.2533 -0.0542
 4616TIP3    H135263   0.211   2.881   3.055 -0.1325 -0.4127  0.4936
 4616TIP3    H235264   0.138   2.760   3.000  1.2390 -0.8724 -0.3487
 4617TIP3   OH235265   2.821   3.044   0.929  0.6582  0.4507 -0.1449
 4617TIP3    H135266   2.777   2.959   0.936 -2.0801  1.8198  0.7361
 4617TIP3    H235267   2.904   3.032   0.974  0.6168 -1.9008 -0.5500
 4618TIP3   OH235268   1.889   5.239  16.171  0.4471 -0.8337 -0.3914
 4618TIP3    H135269   1.973   5.223  16.128  0.7182 -0.8228  0.1292
 4618TIP3    H235270   1.910   5.297  16.244 -0.2452  0.4036 -1.1571
 4619TIP3   OH235271   1.047   0.246  11.838 -0.2739 -0.4489 -0.5262
 4619TIP3    H135272   1.001   0.165  11.858  0.0295 -0.1514  1.5490
 4619TIP3    H235273   1.092   0.228  11.755 -1.3249 -1.9000 -0.8197
 4620TIP3   OH235274   4.316   2.626  16.242 -0.1177  0.4111 -0.6086
 4620TIP3    H135275   4.224   2.640  16.219  0.0223  2.3922 -0.1049
 4620TIP3    H235276   4.358   2.602  16.159 -0.8422  0.8554 -1.1197
 4621TIP3   OH235277   6.516   6.367  14.883 -0.0191  0.2451  0.3165
 4621TIP3    H135278   6.426   6.354  14.852 -0.1666 -3.8504  1.7848
 4621TIP3    H235279   6.506   6.390  14.975  0.3965 -0.6422  0.5909
 4622TIP3   OH235280   5.599   6.247  13.920 -0.1781  0.1894 -0.6810
 4622TIP3    H135281   5.573   6.339  13.929 -2.0444 -0.3357 -0.3316
 4622TIP3    H235282   5.585   6.228  13.827 -0.9765 -0.0607 -0.5161
 4623TIP3   OH235283   1.052   1.309   4.610 -0.3259  0.6827 -0.1814
 4623TIP3    H135284   1.028   1.314   4.518 -0.2341  0.4272 -0.2184
 4623TIP3    H235285   1.007   1.231   4.643  0.4915  0.1701 -0.2642
 4624TIP3   OH235286   1.814   0.287   1.226  0.3462 -0.5438 -0.1441
 4624TIP3    H135287   1.891   0.318   1.180  0.5311 -1.6864 -0.6285
 4624TIP3    H235288   1.740   0.321   1.175  0.5439 -0.8140 -0.6188
 4625TIP3   OH235289   3.202   4.842   1.619  0.0200  0.4973 -0.2262
 4625TIP3    H135290   3.288   4.852   1.578  0.8936 -1.4155  1.0178
 4625TIP3    H235291   3.144   4.897   1.566  1.6629  0.5449 -2.0932
 4626TIP3   OH235292   4.540   1.974  12.114  0.2023  0.6667  0.2540
 4626TIP3    H135293   4.484   1.899  12.133  0.1125  0.3218 -1.2134
 4626TIP3    H235294   4.521   1.996  12.022  3.5616 -0.4639 -0.8777
 4627TIP3   OH235295   2.370   5.642   4.025  0.1308 -0.3036  0.2455
 4627TIP3    H135296   2.446   5.696   4.004  0.6001 -0.5784  1.1680
 4627TIP3    H235297   2.372   5.634   4.120 -0.2028 -1.5251  0.1716
 4628TIP3   OH235298   6.294   0.609  16.732  0.0868 -0.0383 -0.4074
 4628TIP3    H135299   6.383   0.580  16.751 -0.1286  0.1199  0.9871
 4628TIP3    H235300   6.238   0.536  16.758 -0.2893  0.5873  0.6476
 4629TIP3   OH235301   0.380   2.436   6.324  0.1621  0.3581 -0.3219
 4629TIP3    H135302   0.451   2.494   6.297 -0.1303  0.2503 -1.3917
 4629TIP3    H235303   0.310   2.454   6.261 -0.2177 -0.5853 -0.1807
 4630TIP3   OH235304   4.755   3.558  13.007  0.5679  0.1115  0.4660
 4630TIP3    H135305   4.736   3.606  13.088  0.0446  0.7648 -0.0295
 4630TIP3    H235306   4.686   3.493  13.000 -0.1126  0.8648 -0.0693
 4631TIP3   OH235307   5.445   4.304  15.952 -0.4530  0.3505  0.0309
 4631TIP3    H135308   5.378   4.328  16.016 -1.7196 -1.6129 -0.4857
 4631TIP3    H235309   5.401   4.309  15.867 -0.2837 -1.8112 -0.2521
 4632TIP3   OH235310   2.848   0.237  15.138 -0.4431 -0.1860  0.0704
 4632TIP3    H135311   2.753   0.232  15.131 -0.6634 -0.9236  2.6460
 4632TIP3    H235312   2.872   0.165  15.196  1.5993  0.5773  0.2582
 4633TIP3   OH235313   3.599   2.880  11.528 -0.1300  0.3019 -0.0367
 4633TIP3    H135314   3.561   2.954  11.481  1.0378  1.9633  1.5034
 4633TIP3    H235315   3.588   2.902  11.621 -0.4391 -1.8417  0.4753
 4634TIP3   OH235316   4.471   0.440   1.387 -0.1812 -0.1917 -0.0720
 4634TIP3    H135317   4.537   0.505   1.409  0.6923 -0.6856 -1.1692
 4634TIP3    H235318   4.408   0.445   1.460  0.0355  1.6160  0.0516
 4635TIP3   OH235319   6.762   2.310  13.236  0.3286 -0.5117 -0.2124
 4635TIP3    H135320   6.754   2.401  13.264 -1.1744 -0.7643  0.2656
 4635TIP3    H235321   6.856   2.297  13.222  0.7385  0.6846  1.1772
 4636TIP3   OH235322   3.009   5.449   2.177  0.1498 -0.3713 -0.4414
 4636TIP3    H135323   2.980   5.526   2.227  0.4509  0.0328 -0.8894
 4636TIP3    H235324   3.076   5.408   2.233  0.0502 -0.2670 -0.2427
 4637TIP3   OH235325   6.226   6.462   2.929 -0.2956 -0.4080 -0.2351
 4637TIP3    H135326   6.281   6.389   2.957  0.4205 -0.5477 -1.9198
 4637TIP3    H235327   6.287   6.534   2.915 -0.8822  0.2393  0.4041
 4638TIP3   OH235328   0.579   5.093   0.804 -0.4639  0.3448  0.0392
 4638TIP3    H135329   0.525   5.131   0.873 -0.9997 -0.0817 -0.1417
 4638TIP3    H235330   0.669   5.101   0.837 -0.5417  1.9117 -0.0684
 4639TIP3   OH235331   1.079   5.207  14.118 -0.0173 -0.0886  0.0131
 4639TIP3    H135332   1.043   5.131  14.164 -0.3247  0.9350  1.5557
 4639TIP3    H235333   1.170   5.184  14.102  0.2074 -0.3812  1.4994
 4640TIP3   OH235334   2.305   3.728   0.101  0.3223  0.2896  0.1237
 4640TIP3    H135335   2.335   3.648   0.058  0.0342  0.2800 -0.0638
 4640TIP3    H235336   2.311   3.796   0.034 -1.9884 -0.1000 -0.5844
 4641TIP3   OH235337   5.270   3.350  16.799  1.1163 -0.2745 -0.1870
 4641TIP3    H135338   5.305   3.419  16.742 -2.7208  0.8501 -1.4237
 4641TIP3    H235339   5.223   3.292  16.741 -0.6726 -0.6041  1.5090
 4642TIP3   OH235340   0.698   2.458   1.061 -0.0817 -0.3190  0.4520
 4642TIP3    H135341   0.647   2.378   1.049  0.0772 -0.3588  0.0057
 4642TIP3    H235342   0.669   2.494   1.145 -0.5757 -0.5324  0.3711
 4643TIP3   OH235343   4.070   6.180   3.585 -0.4450 -0.3112  0.4326
 4643TIP3    H135344   4.145   6.157   3.639  0.4733 -0.9510 -1.0403
 4643TIP3    H235345   4.070   6.114   3.515 -2.7922 -0.7520  0.7561
 4644TIP3   OH235346   0.642   0.629   3.573  0.2507 -0.3268 -0.2978
 4644TIP3    H135347   0.628   0.547   3.526 -1.1349 -0.2944  0.0241
 4644TIP3    H235348   0.709   0.608   3.638 -1.0148 -1.5851  0.6601
 4645TIP3   OH235349   3.939   6.100  12.019  0.3733 -0.5980 -0.3171
 4645TIP3    H135350   3.865   6.118  11.961 -1.1276 -2.5038  0.8846
 4645TIP3    H235351   3.936   6.005  12.034  3.0440 -0.7406 -0.1570
 4646TIP3   OH235352   2.445   2.964  11.426  0.0348 -0.2351  0.6217
 4646TIP3    H135353   2.423   3.030  11.361 -1.6728 -1.8744 -0.5662
 4646TIP3    H235354   2.405   2.883  11.393  1.7271 -1.8071  2.1745
 4647TIP3   OH235355   3.087   0.249   5.897  0.1366  0.3485  0.2830
 4647TIP3    H135356   3.135   0.255   5.980 -1.3087 -4.0679  1.7225
 4647TIP3    H235357   2.999   0.281   5.918  0.2169  0.8143 -0.0696
 4648TIP3   OH235358   1.247   0.198   0.640 -1.0354 -0.7951 -0.2964
 4648TIP3    H135359   1.159   0.231   0.656 -0.6720  0.1083 -0.0538
 4648TIP3    H235360   1.292   0.209   0.723 -0.1341  0.6377 -0.9277
 4649TIP3   OH235361   4.077   2.370   3.368  0.0170  0.4134 -0.3634
 4649TIP3    H135362   3.996   2.350   3.415  0.8112  0.4154  1.0726
 4649TIP3    H235363   4.070   2.463   3.347 -1.0527  0.0600 -1.7348
 4650TIP3   OH235364   0.509   6.756  13.869 -0.2837 -0.3972  0.0515
 4650TIP3    H135365   0.453   6.764  13.946 -1.5798 -0.7754 -0.8163
 4650TIP3    H235366   0.564   6.679  13.887  1.4220  1.1131  1.7592
 4651TIP3   OH235367   1.778   4.193   0.576 -0.8149  0.6156  0.0388
 4651TIP3    H135368   1.873   4.203   0.583 -0.9770  3.0244 -0.1263
 4651TIP3    H235369   1.755   4.132   0.646  0.6678  1.5141  1.3880
 4652TIP3   OH235370   2.517   0.224  13.568  0.1186 -0.8812  0.0185
 4652TIP3    H135371   2.517   0.300  13.627 -0.6817  1.1441 -2.4170
 4652TIP3    H235372   2.524   0.149  13.627 -2.1758  0.8612  2.8151
 4653TIP3   OH235373   5.227   4.276  10.305 -0.2847  0.4279 -0.1271
 4653TIP3    H135374   5.292   4.247  10.240 -0.6997 -0.3557 -0.2100
 4653TIP3    H235375   5.237   4.371  10.309  0.0190  0.4444 -1.0610
 4654TIP3   OH235376   4.228   0.460  15.060 -0.6410  0.2066  0.0184
 4654TIP3    H135377   4.262   0.415  14.982 -0.3703  1.2861 -0.5096
 4654TIP3    H235378   4.163   0.400  15.096  0.8029 -1.2952  0.2489
 4655TIP3   OH235379   2.720   0.099   2.375  0.6165  0.1141 -0.2269
 4655TIP3    H135380   2.650   0.144   2.421  0.6422 -0.4111  0.3449
 4655TIP3    H235381   2.800   0.138   2.410  0.6203  0.3616 -0.5096
 4656TIP3   OH235382   0.253   4.691  13.865  0.0531 -0.3811 -0.5797
 4656TIP3    H135383   0.246   4.737  13.949 -0.9998 -0.8796 -0.3755
 4656TIP3    H235384   0.341   4.653  13.866  0.1314 -0.2108  0.2085
 4657TIP3   OH235385   0.613   1.635  12.578 -0.5033 -0.4438 -0.0755
 4657TIP3    H135386   0.520   1.628  12.597 -0.3366  1.5863  1.9266
 4657TIP3    H235387   0.630   1.729  12.575  1.0976 -0.7048 -2.7608
 4658TIP3   OH235388   3.046   4.459   1.089  0.2359  0.6522 -0.4778
 4658TIP3    H135389   3.017   4.549   1.105 -0.3765  0.5998 -1.2485
 4658TIP3    H235390   3.123   4.468   1.033 -1.0204  0.6559 -2.2800
 4659TIP3   OH235391   6.545   4.122   0.774  0.3158  0.1638 -0.0177
 4659TIP3    H135392   6.529   4.212   0.745 -2.6692 -0.9952 -2.4587
 4659TIP3    H235393   6.624   4.096   0.728  0.9908  1.3784  0.4090
 4660TIP3   OH235394   2.264   2.879  13.929  0.2465  0.4853  0.5204
 4660TIP3    H135395   2.339   2.828  13.960 -0.1727 -1.2967 -1.1804
 4660TIP3    H235396   2.283   2.895  13.837  0.0202  2.9117  0.8207
 4661TIP3   OH235397   2.728   0.752   3.979  0.2640 -0.4721  0.1486
 4661TIP3    H135398   2.690   0.664   3.985  0.2167 -0.6557 -2.0840
 4661TIP3    H235399   2.724   0.786   4.069 -0.4630 -2.4279  0.9058
 4662TIP3   OH235400   5.538   6.542   1.408  0.1960 -0.3989 -0.5164
 4662TIP3    H135401   5.611   6.500   1.453  0.5166 -0.5956 -1.1980
 4662TIP3    H235402   5.577   6.579   1.329 -0.4699 -0.6435 -0.9724
 4663TIP3   OH235403   0.046   6.490   4.853  0.3742 -0.2114 -0.2531
 4663TIP3    H135404  -0.012   6.565   4.872 -1.5437 -1.7659  0.3703
 4663TIP3    H235405   0.049   6.487   4.757 -1.6608 -0.7972 -0.3568
 4664TIP3   OH235406   2.143   1.761  10.208 -0.2895  0.1255  0.2335
 4664TIP3    H135407   2.230   1.744  10.171 -0.3956 -0.5189  0.2862
 4664TIP3    H235408   2.150   1.850  10.243 -0.2587  0.8526 -1.5233
 4665TIP3   OH235409   2.174   4.541   4.849  0.4883  0.1689  0.3480
 4665TIP3    H135410   2.201   4.628   4.878 -0.4193 -0.2302  2.6173
 4665TIP3    H235411   2.079   4.543   4.855  0.4931 -1.1956  1.1238
 4666TIP3   OH235412   5.628   5.766   1.154  0.0647 -0.0951 -0.3333
 4666TIP3    H135413   5.534   5.759   1.175  0.1063 -0.5051 -0.2762
 4666TIP3    H235414   5.636   5.726   1.067  0.3887 -1.2724  0.2177
 4667TIP3   OH235415   1.787   5.959   6.281  0.2119  0.4210  0.2786
 4667TIP3    H135416   1.736   5.950   6.201 -0.3837  0.4713  0.6428
 4667TIP3    H235417   1.861   6.013   6.257  0.6783 -0.5362 -0.5269
 4668TIP3   OH235418   1.108   5.303  16.591 -0.2114  0.1073  0.0559
 4668TIP3    H135419   1.146   5.236  16.647  3.2629  0.8236 -1.1778
 4668TIP3    H235420   1.107   5.382  16.645 -2.7877 -0.4704  0.9836
 4669TIP3   OH235421   5.046   5.306   5.449  0.6207  0.0677 -0.0187
 4669TIP3    H135422   5.039   5.402   5.446  0.3619  0.0638  0.4246
 4669TIP3    H235423   5.052   5.280   5.357 -4.9055  0.0818 -0.6938
 4670TIP3   OH235424   3.965   1.405  16.420  0.2457  0.3204 -0.6561
 4670TIP3    H135425   3.895   1.439  16.477 -0.3873  0.1544 -1.3173
 4670TIP3    H235426   3.951   1.310  16.420  1.7177  0.0589  0.8046
 4671TIP3   OH235427   3.435   1.924  10.496  0.3657 -0.1577 -0.2986
 4671TIP3    H135428   3.520   1.896  10.461  0.4293  0.4586 -0.6662
 4671TIP3    H235429   3.379   1.847  10.488  0.6229 -0.2820 -0.9854
 4672TIP3   OH235430   1.385   6.437  16.332  0.0344 -0.7761 -0.2518
 4672TIP3    H135431   1.418   6.382  16.403  0.3823  1.5752  1.5277
 4672TIP3    H235432   1.463   6.480  16.297 -0.5290  1.1599  0.7501
 4673TIP3   OH235433   4.326   4.784   0.530 -0.0401 -0.2360  0.0024
 4673TIP3    H135434   4.255   4.838   0.565 -0.7577 -1.3804  0.3557
 4673TIP3    H235435   4.335   4.812   0.438 -0.4799  0.3874  0.1469
 4674TIP3   OH235436   2.374   0.025   0.331 -0.0883 -0.2762 -0.6315
 4674TIP3    H135437   2.408   0.015   0.420 -0.2008 -1.3381 -0.6880
 4674TIP3    H235438   2.413   0.106   0.299  1.6027 -0.9205 -0.3379
 4675TIP3   OH235439   1.720   0.522   1.867  0.2000 -0.0802  0.4387
 4675TIP3    H135440   1.804   0.568   1.870  1.0513 -1.5556  0.5094
 4675TIP3    H235441   1.656   0.587   1.893  1.1440  1.4538 -0.9058
 4676TIP3   OH235442   1.881   1.786   2.836 -0.5829  0.8999  0.2216
 4676TIP3    H135443   1.833   1.745   2.764  2.4947 -0.9285 -0.9809
 4676TIP3    H235444   1.891   1.878   2.809 -1.4362  0.7870 -0.5370
 4677TIP3   OH235445   3.885   5.522   2.983  0.3320 -0.0205  0.1758
 4677TIP3    H135446   3.910   5.439   3.023  0.2397  0.1956  0.6909
 4677TIP3    H235447   3.931   5.524   2.899  0.3608 -0.5742  0.1792
 4678TIP3   OH235448   6.458   5.829   5.894 -0.3838  0.2341  0.3267
 4678TIP3    H135449   6.481   5.743   5.928 -0.1898  0.1355 -0.0448
 4678TIP3    H235450   6.458   5.887   5.970  1.7281  0.3780  0.2657
 4679TIP3   OH235451   6.313   4.019  15.904  0.3682 -0.1235 -1.0410
 4679TIP3    H135452   6.269   3.950  15.954 -2.1000  0.5536 -2.1200
 4679TIP3    H235453   6.388   3.976  15.863  0.2301 -1.5735  0.1420
 4680TIP3   OH235454   4.892   2.554  12.798 -0.2561 -0.3333  0.0992
 4680TIP3    H135455   4.975   2.590  12.767 -0.3305 -0.3041 -0.0657
 4680TIP3    H235456   4.899   2.557  12.893  0.0049 -0.4996  0.0860
 4681TIP3   OH235457   3.669   3.100   3.419  0.4867 -0.3105 -0.5865
 4681TIP3    H135458   3.694   3.010   3.437  2.0289  0.0858 -0.6461
 4681TIP3    H235459   3.738   3.134   3.363  0.1232  1.0171 -0.2721
 4682TIP3   OH235460   2.763   3.064   6.459 -0.6681 -0.5205  0.5866
 4682TIP3    H135461   2.783   2.994   6.520 -0.0290 -1.3728 -0.5534
 4682TIP3    H235462   2.844   3.116   6.455 -1.0773  0.2028  1.2856
 4683TIP3   OH235463   4.983   0.904  16.496 -0.1160  0.4597  0.2425
 4683TIP3    H135464   5.011   0.988  16.460 -1.5708  1.1793  0.6871
 4683TIP3    H235465   5.054   0.843  16.474  1.1403  1.8733  0.2325
 4684TIP3   OH235466   1.041   6.703   5.669  0.0281  0.2492  0.6334
 4684TIP3    H135467   1.067   6.622   5.714  0.8636  0.0771 -0.1434
 4684TIP3    H235468   1.102   6.769   5.702  1.1761 -0.0521 -0.8381
 4685TIP3   OH235469   1.590   4.547   0.391 -0.4763  0.4346 -0.1045
 4685TIP3    H135470   1.505   4.510   0.414 -0.5883  0.4126 -0.5446
 4685TIP3    H235471   1.651   4.473   0.394 -0.1691  0.7273  1.7266
 4686TIP3   OH235472   0.960   3.107  15.955 -0.1298  0.4319 -0.4636
 4686TIP3    H135473   0.865   3.099  15.964 -0.2253 -0.3929 -1.8719
 4686TIP3    H235474   0.991   3.016  15.952  0.9546  0.6551  1.9397
 4687TIP3   OH235475   0.747   1.260  16.875 -0.6099  0.5493 -0.2028
 4687TIP3    H135476   0.833   1.220  16.892  0.7355  3.2305 -0.0664
 4687TIP3    H235477   0.707   1.269  16.961 -0.0421  1.2520 -0.0021
 4688TIP3   OH235478   0.483   2.328   1.635 -0.3227 -0.2512 -0.3236
 4688TIP3    H135479   0.468   2.245   1.590 -0.2949 -0.8157  0.6671
 4688TIP3    H235480   0.402   2.342   1.685  1.1626 -1.8846  2.8534
 4689TIP3   OH235481   6.649   5.254  11.861  0.3279 -0.1272  0.3958
 4689TIP3    H135482   6.593   5.180  11.884  0.3056 -0.1869  0.1478
 4689TIP3    H235483   6.588   5.324  11.838  0.3466 -0.6250 -1.2883
 4690TIP3   OH235484   6.304   1.987   5.320 -0.6992  0.5478  0.4420
 4690TIP3    H135485   6.227   2.031   5.283 -0.9341  0.9067  1.3421
 4690TIP3    H235486   6.268   1.925   5.383 -0.2577  0.5344  0.6818
 4691TIP3   OH235487   0.312   1.659   3.703  0.4443  0.0237  0.3207
 4691TIP3    H135488   0.272   1.573   3.714  2.5384 -0.9160  1.1300
 4691TIP3    H235489   0.269   1.715   3.767 -1.7044 -0.0664 -0.9421
 4692TIP3   OH235490   1.541   2.926  15.288  0.2784  0.8681 -0.0720
 4692TIP3    H135491   1.574   3.009  15.254  0.7105  0.1616 -1.4256
 4692TIP3    H235492   1.593   2.910  15.367  2.1506  0.5553 -1.3065
 4693TIP3   OH235493   3.803   2.910  16.183 -0.5764  0.1702 -0.4683
 4693TIP3    H135494   3.770   2.945  16.100 -1.2790 -0.5483 -0.5125
 4693TIP3    H235495   3.726   2.909  16.240  0.1075  1.6028  0.5371
 4694TIP3   OH235496   6.720   5.898  12.684  0.0093 -0.2253  0.3838
 4694TIP3    H135497   6.763   5.979  12.711 -1.0815  0.9821 -1.2558
 4694TIP3    H235498   6.631   5.925  12.662  0.3710 -1.2607 -2.9007
 4695TIP3   OH235499   0.636   4.904  12.917  0.6128  0.3851 -0.3636
 4695TIP3    H135500   0.627   4.835  12.983 -0.8123  0.0820 -0.8478
 4695TIP3    H235501   0.621   4.859  12.834 -0.3252  1.2703 -0.6825
 4696TIP3   OH235502   3.075   3.396   5.753  0.3203 -0.0760 -0.1990
 4696TIP3    H135503   3.115   3.323   5.800 -1.3179 -0.8775  0.0340
 4696TIP3    H235504   3.039   3.357   5.673  2.8535  1.2172 -2.1296
 4697TIP3   OH235505   3.931   5.468  15.276  0.9909 -0.3358  0.3892
 4697TIP3    H135506   3.871   5.536  15.245  0.6531 -1.3814 -1.3968
 4697TIP3    H235507   3.966   5.502  15.358 -1.5769  0.5771  1.1889
 4698TIP3   OH235508   4.960   2.310   2.189 -0.0466  0.1677 -0.1519
 4698TIP3    H135509   4.925   2.268   2.110 -2.3608 -0.0848  0.9148
 4698TIP3    H235510   4.883   2.324   2.244  1.0904  2.8961  0.9009
 4699TIP3   OH235511   0.345   2.358   1.047 -1.0289 -0.3820  0.5040
 4699TIP3    H135512   0.313   2.271   1.071 -0.6146 -0.7741 -0.3249
 4699TIP3    H235513   0.417   2.342   0.985 -2.0615  0.5659 -1.0202
 4700TIP3   OH235514   4.275   5.116  14.582  0.1453  0.3833 -0.8164
 4700TIP3    H135515   4.224   5.102  14.662  0.4846 -1.2860 -0.8613
 4700TIP3    H235516   4.209   5.115  14.512 -0.1144  1.5313 -0.6081
 4701TIP3   OH235517   2.474   1.316   4.716  0.1854  0.1984  0.6378
 4701TIP3    H135518   2.469   1.408   4.689 -0.3166  0.9158  2.9730
 4701TIP3    H235519   2.436   1.315   4.804 -0.0288 -2.3038  0.5729
 4702TIP3   OH235520   2.443   6.589   5.598  0.3113 -0.2244 -0.0285
 4702TIP3    H135521   2.470   6.679   5.618  0.0221 -0.1124 -0.1382
 4702TIP3    H235522   2.426   6.589   5.504  1.3729 -0.6750 -0.2375
 4703TIP3   OH235523   6.338   4.927  14.514 -0.3078  0.3904  0.4964
 4703TIP3    H135524   6.355   4.905  14.606  0.6050  1.7084  0.6775
 4703TIP3    H235525   6.410   4.885  14.466  0.5199  1.5529  0.6657
 4704TIP3   OH235526   5.692   4.667  11.197 -0.3405  0.5007  0.2158
 4704TIP3    H135527   5.702   4.617  11.116 -2.8731 -1.3176  0.8908
 4704TIP3    H235528   5.688   4.758  11.168  0.2939  0.0163 -1.5270
 4705TIP3   OH235529   1.260   4.416  16.735  0.6886  0.3776  0.3621
 4705TIP3    H135530   1.323   4.364  16.684 -0.6106  1.3008 -2.3569
 4705TIP3    H235531   1.231   4.357  16.804  0.5677 -1.9816 -1.5625
 4706TIP3   OH235532   6.674   0.660   3.250  0.0941  0.9914 -0.3974
 4706TIP3    H135533   6.730   0.596   3.205 -0.4430  1.2666 -1.5108
 4706TIP3    H235534   6.691   0.646   3.343  1.1155  0.2643 -0.6716
 4707TIP3   OH235535   2.392   1.828  10.899 -0.6863  0.1536 -0.0187
 4707TIP3    H135536   2.354   1.890  10.961 -0.2286  1.0703 -0.6246
 4707TIP3    H235537   2.461   1.878  10.855  0.5788 -1.1661  0.3776
 4708TIP3   OH235538   1.642   1.136  15.613  0.2242  0.0953 -0.2147
 4708TIP3    H135539   1.630   1.068  15.680 -0.8566 -0.2130 -0.6985
 4708TIP3    H235540   1.735   1.158  15.618  0.0355  0.6783  1.9516
 4709TIP3   OH235541   3.411   5.763  11.720  0.5509 -0.3833  0.0140
 4709TIP3    H135542   3.353   5.692  11.744  1.0846  0.0720  2.9899
 4709TIP3    H235543   3.357   5.842  11.728  0.2736 -0.2936 -2.1620
 4710TIP3   OH235544   6.497   6.562   2.607 -0.1757  0.2620 -0.4210
 4710TIP3    H135545   6.444   6.518   2.540 -0.6485  0.1623  0.0103
 4710TIP3    H235546   6.587   6.536   2.588 -0.1326  1.3219 -1.8514
 4711TIP3   OH235547   1.332   3.069   4.340  0.0764  0.1581  0.2780
 4711TIP3    H135548   1.411   3.031   4.301  0.3033  1.7829 -0.9275
 4711TIP3    H235549   1.333   3.160   4.313 -1.8345  0.4107  0.8985
 4712TIP3   OH235550   4.761   6.123  13.848  1.0225 -0.2427  0.2249
 4712TIP3    H135551   4.751   6.098  13.940  0.9708 -1.3354 -0.0659
 4712TIP3    H235552   4.673   6.116  13.812  0.1702  3.9396  0.9210
 4713TIP3   OH235553   0.705   1.359   3.323 -0.3793 -0.2146 -0.4705
 4713TIP3    H135554   0.737   1.447   3.341  1.0394 -0.4340 -1.7572
 4713TIP3    H235555   0.612   1.371   3.303 -0.2549  0.9609 -0.4018
 4714TIP3   OH235556   4.259   0.458  15.853 -0.0983  0.5622  0.6026
 4714TIP3    H135557   4.284   0.370  15.880 -1.4754  0.3062  1.1292
 4714TIP3    H235558   4.342   0.505  15.844  0.7844 -1.1921 -1.2510
 4715TIP3   OH235559   4.405   2.730   1.088  0.5145 -0.3178 -0.1573
 4715TIP3    H135560   4.322   2.715   1.133 -0.8100 -0.9824 -2.6424
 4715TIP3    H235561   4.463   2.663   1.124 -0.1547 -0.1921  1.2414
 4716TIP3   OH235562   4.394   0.786   4.612 -0.1709  0.1030  0.0875
 4716TIP3    H135563   4.372   0.833   4.532 -1.1555  2.3132  1.5596
 4716TIP3    H235564   4.398   0.853   4.680  2.0272 -1.4819  1.6908
 4717TIP3   OH235565   0.978   2.392  14.784 -0.0240 -0.2029  0.3947
 4717TIP3    H135566   0.944   2.324  14.842 -0.5241 -0.0814  0.2465
 4717TIP3    H235567   1.024   2.344  14.715 -0.2313 -0.3866  0.3831
 4718TIP3   OH235568   5.616   1.415   5.800  0.1083  0.6772 -0.0381
 4718TIP3    H135569   5.672   1.386   5.872 -0.9146 -0.7369  0.2420
 4718TIP3    H235570   5.677   1.439   5.730  1.0968 -1.2855  0.0812
 4719TIP3   OH235571   4.693   4.047  15.413 -0.1438 -0.8856 -0.0829
 4719TIP3    H135572   4.689   4.135  15.448  0.7115  0.2327 -2.5571
 4719TIP3    H235573   4.718   3.992  15.487  1.1954  1.2433  1.1124
 4720TIP3   OH235574   4.518   0.625   3.944 -0.0056  0.2920  0.3852
 4720TIP3    H135575   4.434   0.634   3.899  0.4746 -1.0833 -0.8905
 4720TIP3    H235576   4.495   0.616   4.036 -1.3846 -1.4804 -0.0803
 4721TIP3   OH235577   4.244   2.285   3.174  0.3562 -0.6739  0.4402
 4721TIP3    H135578   4.206   2.305   3.259  0.5126  1.0963  0.1343
 4721TIP3    H235579   4.176   2.308   3.111  0.6181 -0.9807  0.0391
 4722TIP3   OH235580   1.740   1.605  11.139 -0.3499 -0.7814 -0.4815
 4722TIP3    H135581   1.793   1.526  11.134 -2.5631 -2.3579 -0.5474
 4722TIP3    H235582   1.667   1.582  11.197 -0.5124  1.5713  0.3519
 4723TIP3   OH235583   4.425   6.770   1.631  0.6311  0.4344 -0.0964
 4723TIP3    H135584   4.467   6.685   1.645  0.7014  0.3024 -1.0380
 4723TIP3    H235585   4.489   6.834   1.665  1.6834  0.2420 -1.6153
 4724TIP3   OH235586   2.527   1.882   5.250 -0.1896  0.5000 -0.2451
 4724TIP3    H135587   2.595   1.905   5.314  0.8030 -0.7679 -0.7957
 4724TIP3    H235588   2.465   1.954   5.254  1.3702  1.9026  0.0427
 4725TIP3   OH235589   0.324   6.742  13.350 -0.0917  0.4858  0.3823
 4725TIP3    H135590   0.230   6.737  13.366 -0.1076 -2.0148  0.0368
 4725TIP3    H235591   0.335   6.708  13.261  1.1840 -0.1503  0.7504
 4726TIP3   OH235592   6.032   2.408   0.912 -0.1056  0.1474 -0.3409
 4726TIP3    H135593   6.056   2.473   0.977 -1.0827 -1.3619  1.6162
 4726TIP3    H235594   5.946   2.377   0.939  0.0909 -1.5741 -1.5124
 4727TIP3   OH235595   0.276   5.212   0.531  0.0307  0.2309  0.1373
 4727TIP3    H135596   0.231   5.281   0.481 -1.3168 -0.2775  0.6113
 4727TIP3    H235597   0.259   5.234   0.622  0.5491 -0.1105  0.3153
 4728TIP3   OH235598   0.308   3.518  11.642  0.0400  0.4004  0.1102
 4728TIP3    H135599   0.230   3.487  11.687 -1.5635  0.8072 -2.2615
 4728TIP3    H235600   0.349   3.439  11.607 -1.3514  0.4428 -1.7326
 4729TIP3   OH235601   1.625   4.756   2.367  0.0697 -0.4995  0.1846
 4729TIP3    H135602   1.612   4.824   2.433 -1.2360 -1.5540  1.0843
 4729TIP3    H235603   1.717   4.729   2.378 -0.0753 -0.5306  1.4791
 4730TIP3   OH235604   4.216   1.067   5.561 -0.3215  0.3093 -0.1053
 4730TIP3    H135605   4.191   1.020   5.482  0.3539  1.2627 -0.9086
 4730TIP3    H235606   4.261   1.002   5.615  1.6121  0.2273 -1.6824
 4731TIP3   OH235607   4.607   1.136   3.574 -0.1682  0.2765  0.0873
 4731TIP3    H135608   4.692   1.128   3.618 -0.4006 -2.1044  0.2208
 4731TIP3    H235609   4.629   1.141   3.481  0.1057 -1.3334  0.0511
 4732TIP3   OH235610   1.642   4.197  13.416  0.0700 -0.0669 -0.0382
 4732TIP3    H135611   1.557   4.197  13.461  0.4688 -0.9420  0.7355
 4732TIP3    H235612   1.669   4.105  13.414  0.9620  0.1882 -0.3473
 4733TIP3   OH235613   2.914   2.017  12.659  0.5600 -0.6133  0.4799
 4733TIP3    H135614   3.006   2.038  12.647  0.8568 -1.6373  0.8788
 4733TIP3    H235615   2.885   2.076  12.728  0.9051 -0.2765  0.3419
 4734TIP3   OH235616   1.193   1.719  13.726 -0.5518 -0.2373  0.2410
 4734TIP3    H135617   1.165   1.750  13.812 -0.3027  1.0191 -0.1142
 4734TIP3    H235618   1.188   1.623  13.732 -1.2890 -0.1393  1.3893
 4735TIP3   OH235619   1.326   2.072  12.746 -0.2555  0.0506  0.4080
 4735TIP3    H135620   1.392   2.083  12.815  0.6673  0.4949 -0.5161
 4735TIP3    H235621   1.282   2.156  12.742 -0.3844 -0.0110  0.5273
 4736TIP3   OH235622   6.125   3.057  14.347 -0.6073  0.2111  0.0750
 4736TIP3    H135623   6.198   3.047  14.286  1.0512  0.6644  1.8874
 4736TIP3    H235624   6.091   2.968  14.358  1.3852 -0.4691  1.1600
 4737TIP3   OH235625   4.720   0.559   4.625  0.3715 -0.7104 -0.0689
 4737TIP3    H135626   4.637   0.518   4.603 -1.0751  1.2332  1.3877
 4737TIP3    H235627   4.732   0.626   4.557  0.6553 -0.8803 -0.1858
 4738TIP3   OH235628   5.205   0.085  11.427 -0.0620  0.3670  0.0089
 4738TIP3    H135629   5.301   0.090  11.423  0.0938 -0.3176  2.0640
 4738TIP3    H235630   5.182   0.017  11.364  0.7978  0.4915 -0.4538
 4739TIP3   OH235631   6.726   1.975   0.329  0.3316 -0.5503 -0.1189
 4739TIP3    H135632   6.807   1.939   0.365  0.9925 -0.1098 -1.1260
 4739TIP3    H235633   6.667   1.982   0.404  1.5227 -0.0247  0.7943
 4740TIP3   OH235634   5.545   4.291   4.528  0.1520  1.2165  0.2998
 4740TIP3    H135635   5.455   4.292   4.561 -0.3526  1.4866 -1.0339
 4740TIP3    H235636   5.536   4.281   4.434  1.5567  0.5420  0.2129
 4741TIP3   OH235637   0.690   0.412   2.780  0.3546 -0.1947 -0.2861
 4741TIP3    H135638   0.727   0.494   2.812 -2.1401  1.0335 -0.3550
 4741TIP3    H235639   0.747   0.387   2.707  1.9998  0.6604  0.6408
 4742TIP3   OH235640   6.321   5.166  13.445  0.1527 -0.4356 -0.1972
 4742TIP3    H135641   6.356   5.245  13.404  0.0876  0.5729  1.5626
 4742TIP3    H235642   6.383   5.146  13.515 -0.8224 -0.8360  0.5781
 4743TIP3   OH235643   1.544   2.626   4.096 -0.1713 -0.2232  0.4052
 4743TIP3    H135644   1.578   2.683   4.027 -1.2721  1.4520  1.1849
 4743TIP3    H235645   1.573   2.667   4.178  0.2123 -1.5954  0.9974
 4744TIP3   OH235646   4.751   6.104   4.200  0.1488  0.4711  0.3863
 4744TIP3    H135647   4.704   6.116   4.118  0.0469  2.9237  0.7293
 4744TIP3    H235648   4.701   6.037   4.247  1.3404 -2.5738 -2.2450
 4745TIP3   OH235649   0.665   2.532   1.658 -0.0145 -0.1167  0.0783
 4745TIP3    H135650   0.602   2.460   1.662 -0.5369  0.3520  0.4636
 4745TIP3    H235651   0.626   2.601   1.711 -0.4456  1.1712 -1.8365
 4746TIP3   OH235652   6.311   5.992   0.317 -0.2802  0.1436  0.1794
 4746TIP3    H135653   6.297   5.909   0.361 -1.2086 -0.8326 -1.8487
 4746TIP3    H235654   6.347   6.049   0.385 -0.9636 -1.4655  1.9769
 4747TIP3   OH235655   1.358   2.606   0.226  0.2361 -0.1926  0.9635
 4747TIP3    H135656   1.323   2.633   0.142  1.6373  1.0006  0.7312
 4747TIP3    H235657   1.280   2.585   0.279 -0.6394 -1.7966 -0.8521
 4748TIP3   OH235658   4.150   5.702  11.734 -0.0722  0.4671 -0.1390
 4748TIP3    H135659   4.215   5.709  11.804  1.8384 -1.1131 -1.6427
 4748TIP3    H235660   4.149   5.788  11.693  1.6122  0.3350 -0.5090
 4749TIP3   OH235661   4.137   5.790  10.476 -0.4995  0.6981 -0.5550
 4749TIP3    H135662   4.194   5.788  10.553 -2.0336 -0.0752  0.6268
 4749TIP3    H235663   4.093   5.874  10.481  0.5945  1.3506 -1.5405
 4750TIP3   OH235664   0.392   4.838   1.861 -0.0047  0.0926  0.3473
 4750TIP3    H135665   0.302   4.846   1.829 -0.1654 -1.2676  0.3958
 4750TIP3    H235666   0.446   4.861   1.786 -0.3923  0.4072  0.1596
 4751TIP3   OH235667   4.415   2.941   1.428 -0.0458 -0.0781 -0.1974
 4751TIP3    H135668   4.461   2.887   1.364  1.2413  1.0102 -0.2392
 4751TIP3    H235669   4.480   2.957   1.496 -0.9879 -0.1132  0.7253
 4752TIP3   OH235670   1.658   0.160   3.146 -0.2037 -1.1603  0.0828
 4752TIP3    H135671   1.595   0.224   3.113 -1.8833 -1.1345  2.9269
 4752TIP3    H235672   1.744   0.198   3.128 -1.0927  0.4618 -0.9300
 4753TIP3   OH235673   0.940   6.268  12.772  0.3045  0.6219 -0.1749
 4753TIP3    H135674   1.029   6.240  12.793  0.7894  1.7861 -0.5566
 4753TIP3    H235675   0.903   6.294  12.857  0.3355  0.1663 -0.0187
 4754TIP3   OH235676   6.479   2.097  14.506  0.1647 -0.5171  1.0258
 4754TIP3    H135677   6.551   2.137  14.457 -0.9747  0.3676 -0.0112
 4754TIP3    H235678   6.463   2.157  14.579 -1.7123  1.2108 -0.6724
 4755TIP3   OH235679   5.379   5.466  16.274 -0.0859  0.1165  0.1165
 4755TIP3    H135680   5.324   5.407  16.326  2.6681 -4.1625 -1.3646
 4755TIP3    H235681   5.321   5.496  16.204 -2.1942  1.1580  2.1834
 4756TIP3   OH235682   6.269   3.281  15.620  0.5282  0.0164 -0.2233
 4756TIP3    H135683   6.352   3.281  15.572  0.0327  1.8752 -1.1770
 4756TIP3    H235684   6.290   3.323  15.703  0.6266  0.1306 -0.3054
 4757TIP3   OH235685   1.654   6.109  15.926 -0.0451  0.1025  0.1583
 4757TIP3    H135686   1.733   6.163  15.931 -0.3667  0.6366 -0.4189
 4757TIP3    H235687   1.676   6.039  15.864 -0.4881  1.0623 -1.1130
 4758TIP3   OH235688   2.030   0.861  15.567 -0.0064  0.3313  0.2962
 4758TIP3    H135689   2.075   0.815  15.638 -1.1928 -0.4811  0.5712
 4758TIP3    H235690   2.000   0.791  15.509 -0.3327  0.8903 -0.2218
 4759TIP3   OH235691   2.204   3.933   2.746 -0.5718 -0.0422 -0.5518
 4759TIP3    H135692   2.255   4.011   2.769  1.3147 -1.3324 -0.1770
 4759TIP3    H235693   2.146   3.920   2.822  1.1188 -0.5987  0.7079
 4760TIP3   OH235694   1.896   3.454  16.248 -0.0765 -0.3837 -0.7158
 4760TIP3    H135695   1.834   3.393  16.206  0.0378 -0.5004 -0.7132
 4760TIP3    H235696   1.971   3.400  16.271 -0.8079 -0.6810  1.1590
 4761TIP3   OH235697   5.459   3.850   2.323  0.2293  0.4888 -0.2827
 4761TIP3    H135698   5.523   3.781   2.306 -0.1520 -0.0455  0.4098
 4761TIP3    H235699   5.375   3.810   2.298 -0.0429  0.5569  0.5199
 4762TIP3   OH235700   2.965   2.290   3.528  0.3147  0.1091  0.5079
 4762TIP3    H135701   2.954   2.270   3.435 -0.0400  0.1362  0.5409
 4762TIP3    H235702   2.985   2.383   3.531 -0.3042  0.2455  0.4972
 4763TIP3   OH235703   0.503   4.772  13.411 -0.3018 -0.1776  0.8951
 4763TIP3    H135704   0.581   4.807  13.455 -0.3248  0.4051  0.4871
 4763TIP3    H235705   0.444   4.847  13.404 -0.4028 -0.3145  0.1107
 4764TIP3   OH235706   5.201   3.008  11.380 -0.6204  0.0845 -0.0769
 4764TIP3    H135707   5.193   2.915  11.358 -0.8169 -0.2151  1.2172
 4764TIP3    H235708   5.149   3.053  11.313 -1.9268 -0.8628  0.2799
 4765TIP3   OH235709   6.111   0.828   3.720 -0.2606  0.0035 -0.2089
 4765TIP3    H135710   6.058   0.772   3.777  0.5862 -1.6452 -0.9582
 4765TIP3    H235711   6.199   0.825   3.758  0.1419 -0.5025 -1.1274
 4766TIP3   OH235712   6.245   0.753   0.893 -0.3476  0.0222  0.2680
 4766TIP3    H135713   6.333   0.717   0.885 -0.7160 -0.6772 -0.9494
 4766TIP3    H235714   6.191   0.678   0.916 -0.5648  0.5407  1.4958
 4767TIP3   OH235715   2.204   1.149  15.591 -0.3839  0.4046  0.3332
 4767TIP3    H135716   2.252   1.199  15.658  0.5327  1.0166 -0.7577
 4767TIP3    H235717   2.221   1.195  15.509  1.5706 -2.3786 -0.9622
 4768TIP3   OH235718   1.897   3.988   1.792  0.4611  0.0945  0.0195
 4768TIP3    H135719   1.924   4.053   1.727  0.8961  1.6667  1.6879
 4768TIP3    H235720   1.978   3.962   1.835 -0.0346  0.9599  1.5759
 4769TIP3   OH235721   6.179   2.841   3.084 -0.5078  0.2265  0.2061
 4769TIP3    H135722   6.169   2.754   3.046  1.3987 -0.6415  1.5872
 4769TIP3    H235723   6.143   2.833   3.172 -0.6958  0.9681  0.2018
 4770TIP3   OH235724   0.597   3.065  14.705 -0.3067 -0.6323  0.2173
 4770TIP3    H135725   0.637   3.080  14.620  0.0342 -0.3524  0.4242
 4770TIP3    H235726   0.663   3.093  14.768 -0.6207 -0.6725  0.5717
 4771TIP3   OH235727   2.698   3.058   4.320  0.2231 -0.2883 -0.9467
 4771TIP3    H135728   2.710   3.120   4.392  0.4597 -1.1315 -0.2558
 4771TIP3    H235729   2.609   3.076   4.289 -0.0545 -0.2401 -0.1403
 4772TIP3   OH235730   2.639   1.105  12.209 -0.3372 -0.2203 -0.0682
 4772TIP3    H135731   2.610   1.027  12.257  2.3180 -1.6396 -0.5895
 4772TIP3    H235732   2.720   1.131  12.252  0.5979  0.1794 -1.9770
 4773TIP3   OH235733   4.469   2.517  10.810  0.3308  0.0373 -0.6880
 4773TIP3    H135734   4.549   2.487  10.853 -0.7356  0.0575  1.4403
 4773TIP3    H235735   4.461   2.462  10.732  1.5795 -1.0415 -0.0913
 4774TIP3   OH235736   5.503   3.808  12.151 -0.0839 -0.0332  0.8907
 4774TIP3    H135737   5.584   3.860  12.156  0.8288 -1.2328 -0.7094
 4774TIP3    H235738   5.503   3.757  12.232  0.4770  0.3584  1.1491
 4775TIP3   OH235739   6.404   3.517   1.354 -0.0743  0.9894 -0.1373
 4775TIP3    H135740   6.432   3.484   1.268 -0.5745  0.7055 -0.1959
 4775TIP3    H235741   6.316   3.480   1.366  0.3564  0.2693  0.9136
 4776TIP3   OH235742   1.863   6.295  16.383  0.1722 -0.0287 -0.5691
 4776TIP3    H135743   1.853   6.285  16.478 -0.2285 -1.1699 -0.7104
 4776TIP3    H235744   1.784   6.340  16.354  0.0278 -0.1996 -0.4368
 4777TIP3   OH235745   4.704   4.804   0.309  0.4275 -0.3026  0.0847
 4777TIP3    H135746   4.672   4.715   0.297 -2.5758  0.5211  0.9593
 4777TIP3    H235747   4.762   4.820   0.235 -0.2733 -2.4249 -0.9941
 4778TIP3   OH235748   0.883   3.402   5.249 -0.1491 -0.3094 -0.4193
 4778TIP3    H135749   0.838   3.322   5.274  0.0805  0.0613  1.3989
 4778TIP3    H235750   0.951   3.374   5.188  0.4710 -1.6484  0.8281
 4779TIP3   OH235751   2.010   0.308  13.259 -0.3487  0.1311 -0.0008
 4779TIP3    H135752   2.009   0.392  13.213 -1.2045  0.6488  0.9257
 4779TIP3    H235753   2.078   0.318  13.326 -2.2086  1.0924  1.8443
 4780TIP3   OH235754   1.479   5.243   2.012  0.6631 -0.3519 -0.0843
 4780TIP3    H135755   1.454   5.152   1.995 -0.6301 -0.2662  1.1579
 4780TIP3    H235756   1.397   5.288   2.030  1.3862  0.7999  0.5038
 4781TIP3   OH235757   1.535   3.148   1.059  0.0184 -0.0502 -0.5688
 4781TIP3    H135758   1.533   3.053   1.071  0.2782  0.0220  0.0312
 4781TIP3    H235759   1.457   3.180   1.104  0.9871  0.2154  1.0031
 4782TIP3   OH235760   3.863   0.261  15.373 -0.1342 -0.6772  0.1529
 4782TIP3    H135761   3.878   0.347  15.332 -0.4650 -1.0392 -0.7549
 4782TIP3    H235762   3.889   0.273  15.464 -0.7978  0.5812  0.2017
 4783TIP3   OH235763   3.057   3.502  15.758 -0.4327  0.3655  0.1541
 4783TIP3    H135764   3.039   3.590  15.790 -2.3501 -0.5605  1.9109
 4783TIP3    H235765   2.992   3.488  15.689 -0.9038 -0.0405  0.6675
 4784TIP3   OH235766   4.498   2.095   3.366 -0.6211  0.3431  0.2840
 4784TIP3    H135767   4.500   2.187   3.393 -2.1341  0.6323 -0.4445
 4784TIP3    H235768   4.582   2.079   3.324 -0.3482  1.4036  0.4093
 4785TIP3   OH235769   4.159   5.447   5.516  0.1503 -0.4109 -0.0873
 4785TIP3    H135770   4.253   5.463   5.516  0.0110  0.6073 -0.9921
 4785TIP3    H235771   4.149   5.358   5.547  1.3698 -0.3162  0.6398
 4786TIP3   OH235772   5.558   4.334  16.914 -0.1810  0.1631  0.5026
 4786TIP3    H135773   5.557   4.304  17.005 -2.8220  0.4911  0.6757
 4786TIP3    H235774   5.594   4.261  16.865  3.0127  0.6116  1.9026
 4787TIP3   OH235775   5.763   4.569   2.879  0.3811 -0.5199  0.0914
 4787TIP3    H135776   5.774   4.664   2.889 -0.4462 -0.5136  0.9609
 4787TIP3    H235777   5.810   4.531   2.953  0.4320 -0.7844 -0.0732
 4788TIP3   OH235778   2.492   3.518  11.746 -0.2345  0.0943  0.3722
 4788TIP3    H135779   2.489   3.484  11.657  0.1434 -0.5553  0.6024
 4788TIP3    H235780   2.555   3.462  11.791 -2.0318 -0.9984  1.6549
 4789TIP3   OH235781   1.256   1.625   2.119 -0.2070 -0.1027 -0.2106
 4789TIP3    H135782   1.181   1.639   2.177  0.0040 -0.2031  0.0885
 4789TIP3    H235783   1.298   1.711   2.114 -0.5510  0.0389 -0.6716
 4790TIP3   OH235784   4.942   0.238  11.491 -0.0824 -0.0750  0.1206
 4790TIP3    H135785   5.036   0.228  11.509 -0.5884 -2.0442  2.1373
 4790TIP3    H235786   4.939   0.286  11.409  2.6968  0.0009 -0.0515
 4791TIP3   OH235787   2.628   6.667   4.170 -0.2316 -0.1856 -0.1117
 4791TIP3    H135788   2.683   6.595   4.139 -1.0935 -0.9946  0.1794
 4791TIP3    H235789   2.650   6.676   4.263 -0.0886 -0.0399 -0.1597
 4792TIP3   OH235790   0.198   2.210   6.096  0.0623  0.6798  0.3085
 4792TIP3    H135791   0.176   2.303   6.099  1.7465  1.0660  1.9282
 4792TIP3    H235792   0.226   2.189   6.185  1.2923 -0.9776 -0.4349
 4793TIP3   OH235793   6.135   1.545   4.895  0.2161 -0.3989  0.1627
 4793TIP3    H135794   6.040   1.550   4.908 -0.1212 -3.0960 -0.6694
 4793TIP3    H235795   6.157   1.453   4.913  2.4709 -0.1189 -0.8339
 4794TIP3   OH235796   6.398   1.671  10.337 -0.1810 -0.1822  0.2736
 4794TIP3    H135797   6.461   1.742  10.349  1.0614 -1.1499 -0.3095
 4794TIP3    H235798   6.380   1.671  10.243  2.6044 -2.8181 -0.4352
 4795TIP3   OH235799   4.406   4.606   2.790 -0.6249 -0.3726  0.0624
 4795TIP3    H135800   4.470   4.563   2.848 -1.2040 -0.0731  0.9392
 4795TIP3    H235801   4.330   4.622   2.846 -1.0598  0.2565 -0.6936
 4796TIP3   OH235802   5.908   1.054   3.863 -0.1162  0.1979  0.7614
 4796TIP3    H135803   5.819   1.087   3.874 -1.1848 -1.7129 -1.3801
 4796TIP3    H235804   5.923   1.000   3.941 -1.1468 -0.1161  0.7592
 4797TIP3   OH235805   4.155   5.026  10.778 -0.0571  0.1067 -0.0478
 4797TIP3    H135806   4.213   4.950  10.773  1.5539  1.1656  1.4770
 4797TIP3    H235807   4.067   4.989  10.768  0.7498 -1.7317 -0.9791
 4798TIP3   OH235808   6.750   0.094  15.041  0.4996  0.0947 -0.3119
 4798TIP3    H135809   6.830   0.115  15.089 -0.6911  0.6347  1.5379
 4798TIP3    H235810   6.680   0.141  15.088 -1.1442 -1.7293 -0.7771
 4799TIP3   OH235811   5.295   3.986   4.636  0.3012 -0.1981 -0.5015
 4799TIP3    H135812   5.376   3.943   4.610 -0.7814 -2.2069 -0.7979
 4799TIP3    H235813   5.268   4.035   4.558  1.5678  1.1440 -0.1490
 4800TIP3   OH235814   5.307   4.438  11.126  1.3376 -0.6081  0.3423
 4800TIP3    H135815   5.310   4.457  11.219 -0.7733 -0.5471  0.4429
 4800TIP3    H235816   5.247   4.363  11.119  0.7324 -0.0349 -1.0179
 4801TIP3   OH235817   6.174   0.526  14.990 -0.1053 -0.0157 -0.3730
 4801TIP3    H135818   6.173   0.430  14.993 -0.1144 -0.0202 -0.5218
 4801TIP3    H235819   6.099   0.552  15.044  0.5754 -0.0655  0.6050
 4802TIP3   OH235820   5.703   4.272  13.320  0.2019  0.9310 -0.2260
 4802TIP3    H135821   5.654   4.344  13.281  2.5110  1.7611 -1.7400
 4802TIP3    H235822   5.753   4.234  13.248  1.5197 -0.1135  1.1641
 4803TIP3   OH235823   1.177   5.240   0.331 -0.7727  0.2043 -0.6243
 4803TIP3    H135824   1.123   5.223   0.254  0.9389 -1.5521 -1.5304
 4803TIP3    H235825   1.267   5.244   0.297  0.1362 -1.5161  1.3416
 4804TIP3   OH235826   0.895   4.238   5.350  0.5498  0.0206 -0.1662
 4804TIP3    H135827   0.854   4.183   5.282  3.6735 -2.6996 -0.1270
 4804TIP3    H235828   0.836   4.231   5.425 -0.5509 -1.0072 -1.0754
 4805TIP3   OH235829   6.053   3.992   0.054 -0.3653  0.4272 -0.2843
 4805TIP3    H135830   6.003   3.928   0.103  0.1331  0.1281 -0.1526
 4805TIP3    H235831   6.076   4.060   0.118  1.1407 -0.4576  0.1701
 4806TIP3   OH235832   3.875   0.767   0.452 -0.2010 -0.1614  0.0755
 4806TIP3    H135833   3.964   0.761   0.487  0.2175 -2.5131 -1.1761
 4806TIP3    H235834   3.888   0.781   0.358 -1.2182  1.4447  0.1372
 4807TIP3   OH235835   6.751   2.179   1.103  0.0862 -0.0375  0.3690
 4807TIP3    H135836   6.775   2.115   1.170 -0.4596 -1.6089 -0.8904
 4807TIP3    H235837   6.683   2.232   1.144 -0.4140 -1.1320  1.0031
 4808TIP3   OH235838   3.211   4.202   4.212 -0.2093 -0.2938 -0.1136
 4808TIP3    H135839   3.184   4.293   4.207  0.9959  0.0297 -1.0210
 4808TIP3    H235840   3.137   4.153   4.175 -0.7901  0.3029  0.2279
 4809TIP3   OH235841   0.921   3.779  12.987  0.3327  0.1512 -0.3772
 4809TIP3    H135842   0.933   3.686  12.970  0.6249  0.3514 -1.3407
 4809TIP3    H235843   0.962   3.793  13.072 -1.8247 -1.0379  0.9706
 4810TIP3   OH235844   3.753   1.735   0.672 -0.0507  0.7376  0.4151
 4810TIP3    H135845   3.835   1.753   0.627  0.0561  0.8221  0.6422
 4810TIP3    H235846   3.776   1.673   0.740 -0.8093 -2.2561 -1.8356
 4811TIP3   OH235847   2.378   2.691   2.697  0.1405 -0.6999  0.2082
 4811TIP3    H135848   2.329   2.713   2.776 -0.1038  1.1026 -0.4062
 4811TIP3    H235849   2.319   2.716   2.625  0.9468 -0.9123 -0.5351
 4812TIP3   OH235850   1.619   6.283   2.729  0.2376 -0.0201 -0.5064
 4812TIP3    H135851   1.603   6.191   2.753  1.8907  0.2206  1.9251
 4812TIP3    H235852   1.532   6.322   2.721 -0.5394 -1.9305 -2.5014
 4813TIP3   OH235853   0.787   6.209   3.728 -0.6828 -0.0357  0.2434
 4813TIP3    H135854   0.698   6.235   3.752 -0.5212  2.6207 -1.6323
 4813TIP3    H235855   0.843   6.264   3.783 -0.2097 -0.7306  0.4578
 4814TIP3   OH235856   5.112   5.262   4.301 -0.1000 -0.0550  0.0614
 4814TIP3    H135857   5.157   5.180   4.318 -0.1270 -0.2977 -0.9746
 4814TIP3    H235858   5.033   5.237   4.253  0.8655  0.7025 -2.0388
 4815TIP3   OH235859   2.000   6.690   2.814  0.2475  0.1138 -0.3079
 4815TIP3    H135860   1.932   6.754   2.834  0.5173  0.8746 -1.6824
 4815TIP3    H235861   2.051   6.731   2.744  0.9190 -1.2743 -0.6594
 4816TIP3   OH235862   4.541   0.546  11.472 -0.0530  0.5180  0.5200
 4816TIP3    H135863   4.519   0.561  11.564  0.8433 -1.1650  1.0508
 4816TIP3    H235864   4.637   0.539  11.471 -0.0987 -0.1781 -0.4228
 4817TIP3   OH235865   6.149   5.245   5.922  0.4347  0.2306 -0.1763
 4817TIP3    H135866   6.175   5.259   5.831  1.1011 -1.3268 -0.2475
 4817TIP3    H235867   6.231   5.246   5.972  0.2419 -0.5375  0.1730
 4818TIP3   OH235868   2.332   3.128  16.586  0.1288  0.1560  0.1722
 4818TIP3    H135869   2.351   3.222  16.589  0.9823 -0.0025 -0.1269
 4818TIP3    H235870   2.349   3.097  16.675  0.1847  0.2167  0.1828
 4819TIP3   OH235871   0.839   0.003   1.446  0.1000  0.0917 -0.0338
 4819TIP3    H135872   0.823   0.058   1.522 -1.9436  1.7041 -1.5076
 4819TIP3    H235873   0.916   0.042   1.404  1.0503 -0.6239  0.9829
 4820TIP3   OH235874   2.687   5.379   1.889  0.7120  0.5692 -0.1293
 4820TIP3    H135875   2.768   5.331   1.872 -0.0694 -1.1029  0.6622
 4820TIP3    H235876   2.708   5.434   1.965  1.1353  0.2293  0.0038
 4821TIP3   OH235877   4.583   0.399  16.702  0.0309  0.4321 -0.4329
 4821TIP3    H135878   4.517   0.334  16.726  0.3277  0.5146  0.6458
 4821TIP3    H235879   4.538   0.459  16.643 -1.4753  1.6605  1.8497
 4822TIP3   OH235880   2.798   1.113   6.092 -0.1039 -0.2464  0.0096
 4822TIP3    H135881   2.833   1.064   6.166 -0.7446  0.1871  0.6106
 4822TIP3    H235882   2.711   1.142   6.121 -0.5808 -0.5114 -1.0968
 4823TIP3   OH235883   6.816   6.320  15.108  0.2066 -0.4787  0.1904
 4823TIP3    H135884   6.837   6.334  15.201  1.0167 -2.6186  0.3853
 4823TIP3    H235885   6.743   6.258  15.110 -1.3227  1.2083 -0.6247
 4824TIP3   OH235886   1.460   4.265  13.211  0.0482  0.3650 -0.1227
 4824TIP3    H135887   1.473   4.294  13.120 -0.2979 -0.4592 -0.4458
 4824TIP3    H235888   1.548   4.262  13.248  0.1249  1.4615 -0.1838
 4825TIP3   OH235889   1.029   2.242   1.599  0.1647  0.0385 -0.3283
 4825TIP3    H135890   1.018   2.337   1.609 -0.3904  0.0186 -0.7348
 4825TIP3    H235891   1.009   2.225   1.507 -0.5638 -0.5840 -0.0664
 4826TIP3   OH235892   1.746   5.294   3.966 -0.0155 -0.0453  0.2862
 4826TIP3    H135893   1.826   5.245   3.949  0.1320  0.7363 -1.4548
 4826TIP3    H235894   1.774   5.386   3.969 -0.8286  0.2320 -0.2250
 4827TIP3   OH235895   6.632   6.755  12.489  0.0746 -0.4357 -0.1488
 4827TIP3    H135896   6.560   6.719  12.540  1.0663 -1.9673  0.2499
 4827TIP3    H235897   6.612   6.731  12.399 -0.1628 -0.4043 -0.1055
 4828TIP3   OH235898   3.960   3.392  13.084 -0.0042 -0.2138 -0.1721
 4828TIP3    H135899   3.877   3.367  13.044 -0.1324 -1.9470  1.0902
 4828TIP3    H235900   4.019   3.404  13.010 -1.2265  0.6171 -1.0684
 4829TIP3   OH235901   3.013   5.923   6.470  0.0687  0.6199 -0.1184
 4829TIP3    H135902   3.092   5.878   6.499 -0.2955 -0.7199 -1.0738
 4829TIP3    H235903   2.943   5.858   6.479 -1.1369  2.0724  1.5955
 4830TIP3   OH235904   3.814   5.686   1.734 -0.1944 -0.4328  0.6334
 4830TIP3    H135905   3.730   5.731   1.726 -1.3481 -2.5444  0.3728
 4830TIP3    H235906   3.812   5.619   1.666  2.5243  0.6147 -0.6254
 4831TIP3   OH235907   2.788   1.837   4.584 -0.9004 -0.7358  0.1333
 4831TIP3    H135908   2.720   1.868   4.645 -1.8631  2.3280 -2.2400
 4831TIP3    H235909   2.869   1.844   4.634 -1.9099 -1.0750  1.9260
 4832TIP3   OH235910   6.519   5.232   4.719  0.0640 -0.2663  0.1019
 4832TIP3    H135911   6.541   5.317   4.758  0.4228  0.7735 -2.1878
 4832TIP3    H235912   6.457   5.193   4.781 -0.7374  2.0134  0.8801
 4833TIP3   OH235913   2.213   5.194  16.385 -0.1328  0.5581 -0.0729
 4833TIP3    H135914   2.234   5.282  16.414 -0.6847  0.3233  1.0669
 4833TIP3    H235915   2.156   5.158  16.453 -0.2665 -0.5259 -0.7269
 4834TIP3   OH235916   1.657   4.804   0.334 -0.1027 -0.1280  0.2522
 4834TIP3    H135917   1.655   4.719   0.378 -0.0879  0.2787  1.0485
 4834TIP3    H235918   1.751   4.825   0.327 -0.0913 -0.3278 -0.2522
 4835TIP3   OH235919   4.993   3.366   0.691  0.5299 -0.2963 -0.3959
 4835TIP3    H135920   5.057   3.367   0.762  0.3975 -0.2320 -0.2789
 4835TIP3    H235921   4.908   3.371   0.734  0.4222 -0.8789 -0.5260
 4836TIP3   OH235922   3.909   4.598  11.706  0.6563 -0.2260  0.1504
 4836TIP3    H135923   3.968   4.658  11.752 -0.9220  0.9884  0.6736
 4836TIP3    H235924   3.902   4.635  11.617 -0.4731  0.5344  0.5304
 4837TIP3   OH235925   0.092   2.511  12.051 -0.2178 -0.3403  0.2438
 4837TIP3    H135926   0.124   2.476  11.968  0.5332  1.0146 -0.0757
 4837TIP3    H235927   0.122   2.448  12.117  1.6565 -0.0208 -0.2444
 4838TIP3   OH235928   0.063   6.356  14.018  0.2325  0.6377 -0.3555
 4838TIP3    H135929   0.103   6.276  14.053 -2.6274 -1.0290 -0.6244
 4838TIP3    H235930   0.069   6.419  14.089  1.0713 -0.3429  0.4823
 4839TIP3   OH235931   4.446   3.055  13.654 -0.1086 -0.4193 -0.1435
 4839TIP3    H135932   4.423   2.969  13.689 -2.5673 -0.1409 -0.8582
 4839TIP3    H235933   4.362   3.095  13.633  1.0338  1.6492 -1.0701
 4840TIP3   OH235934   1.930   1.234  14.010 -0.2441  0.8513 -0.5052
 4840TIP3    H135935   1.871   1.280  14.069  0.9023  0.4859  0.9890
 4840TIP3    H235936   1.876   1.164  13.972 -0.5201 -0.3343  1.8623
 4841TIP3   OH235937   4.370   1.825  15.988  0.4730 -0.2947  0.0489
 4841TIP3    H135938   4.432   1.838  15.916  0.7647  0.1080  0.3689
 4841TIP3    H235939   4.366   1.730  15.999 -1.0992 -0.5037 -1.8174
 4842TIP3   OH235940   6.026   4.393  14.199  0.3683 -0.0766  0.2060
 4842TIP3    H135941   6.048   4.332  14.128  1.8712  0.3163  0.3049
 4842TIP3    H235942   6.060   4.350  14.278 -0.7771 -0.2415  0.6174
 4843TIP3   OH235943   3.584   3.310  11.215  0.5989 -0.1407  0.4297
 4843TIP3    H135944   3.625   3.308  11.301  1.3286  0.4985  0.1048
 4843TIP3    H235945   3.653   3.339  11.156 -0.5400  2.0319  0.0298
 4844TIP3   OH235946   0.682   1.412   5.517 -0.1613 -0.0477  0.5920
 4844TIP3    H135947   0.695   1.354   5.593  0.3309  0.5514  0.9777
 4844TIP3    H235948   0.770   1.425   5.482 -0.0108  1.7793  1.5119
 4845TIP3   OH235949   0.902   4.886  14.886 -0.2814 -0.4005  0.1084
 4845TIP3    H135950   0.932   4.972  14.855 -0.0804 -1.3032 -2.4716
 4845TIP3    H235951   0.968   4.859  14.950  0.3154  0.8444  0.0472
 4846TIP3   OH235952   0.360   3.982   1.594 -0.0127 -0.1554  0.3253
 4846TIP3    H135953   0.351   4.065   1.640 -2.4332  0.7439 -1.5659
 4846TIP3    H235954   0.270   3.953   1.579  0.7554 -2.3824 -0.3791
 4847TIP3   OH235955   6.035   0.561   0.359 -0.1679 -0.2082  0.2816
 4847TIP3    H135956   6.015   0.604   0.276 -1.2094  2.3774  1.7569
 4847TIP3    H235957   5.983   0.481   0.357  0.4075 -0.6085 -1.8098
 4848TIP3   OH235958   0.639   4.595  10.424  0.5301 -0.0371  0.1802
 4848TIP3    H135959   0.653   4.501  10.411  0.1886 -0.3745  1.9595
 4848TIP3    H235960   0.639   4.606  10.519 -1.2645  1.4644  0.0699
 4849TIP3   OH235961   1.147   5.515   2.067  0.2135 -0.9022  0.0943
 4849TIP3    H135962   1.137   5.609   2.051  1.2884 -1.1804 -2.8997
 4849TIP3    H235963   1.225   5.509   2.122 -0.1099 -0.0487  0.6723
 4850TIP3   OH235964   4.568   3.619  10.665  0.1252  0.3742 -0.5179
 4850TIP3    H135965   4.536   3.533  10.692 -1.2442  1.1739  0.5473
 4850TIP3    H235966   4.607   3.656  10.744 -1.3553  1.6147 -0.3217
 4851TIP3   OH235967   6.350   5.555   4.865 -0.0674 -0.8801 -0.3115
 4851TIP3    H135968   6.304   5.503   4.931 -1.8685  0.4705 -0.4090
 4851TIP3    H235969   6.392   5.625   4.915 -3.7937  1.8803 -0.5846
 4852TIP3   OH235970   5.558   0.524  13.242 -0.6717 -0.4389  0.7468
 4852TIP3    H135971   5.535   0.490  13.156 -1.6183 -0.3364  0.9434
 4852TIP3    H235972   5.638   0.477  13.266  0.5680  0.7388 -0.8767
 4853TIP3   OH235973   6.018   3.053  11.119 -0.3204  0.0513 -0.1023
 4853TIP3    H135974   5.973   3.081  11.199  1.1127  2.2715  0.0138
 4853TIP3    H235975   6.111   3.061  11.140  0.0827  0.4123 -1.9083
 4854TIP3   OH235976   5.398   1.677   5.285 -0.5234 -0.6745 -0.3313
 4854TIP3    H135977   5.324   1.632   5.325 -0.2183  0.4233  1.5875
 4854TIP3    H235978   5.473   1.655   5.340 -0.1092  0.9984 -0.1570
 4855TIP3   OH235979   2.327   0.878  16.066 -0.6789 -0.1310 -0.1591
 4855TIP3    H135980   2.277   0.815  16.014 -0.2865 -2.5374  2.1430
 4855TIP3    H235981   2.260   0.932  16.108 -1.0569  0.5807 -1.6328
 4856TIP3   OH235982   2.250   5.055   5.609 -0.1160  0.9274  0.5393
 4856TIP3    H135983   2.332   5.076   5.564  0.0661 -0.6456  0.0597
 4856TIP3    H235984   2.183   5.066   5.542  0.1561 -1.4234 -0.2155
 4857TIP3   OH235985   5.036   4.363   0.608  0.3781  0.7941  0.6149
 4857TIP3    H135986   5.065   4.275   0.632 -0.8951 -0.0011 -0.6047
 4857TIP3    H235987   5.008   4.402   0.690  3.0599  0.9615  1.5619
 4858TIP3   OH235988   4.316   5.414  13.047  0.5030 -0.6310  0.2164
 4858TIP3    H135989   4.344   5.441  12.959  1.2319  0.7230  0.8281
 4858TIP3    H235990   4.244   5.353  13.031  0.8832 -0.7335 -1.3269
 4859TIP3   OH235991   4.885   1.358   3.955  0.2774 -0.4141  0.1657
 4859TIP3    H135992   4.808   1.404   3.987  0.0251 -1.6629  1.4330
 4859TIP3    H235993   4.913   1.304   4.028  0.0669 -2.9302 -1.5030
 4860TIP3   OH235994   4.486   3.450   2.279  0.3998 -0.6839  0.3820
 4860TIP3    H135995   4.451   3.536   2.255  2.8970  1.0366  2.3566
 4860TIP3    H235996   4.547   3.428   2.209  0.4010 -0.4128  0.2983
 4861TIP3   OH235997   1.634   5.931   5.407 -0.0771 -0.2644 -0.1347
 4861TIP3    H135998   1.626   5.910   5.500 -0.3911 -2.2567 -0.5687
 4861TIP3    H235999   1.725   5.960   5.397 -0.0186 -0.1074  0.7740
 4862TIP3   OH236000   2.749   1.295   3.126 -0.4847  0.9091  0.2709
 4862TIP3    H136001   2.826   1.239   3.116  0.6899  2.1788  1.7368
 4862TIP3    H236002   2.690   1.244   3.182  0.5085  1.0384  1.4780
 4863TIP3   OH236003   0.534   2.521  12.386  0.2369 -0.0336 -0.0486
 4863TIP3    H136004   0.520   2.505  12.293  0.6883  1.5602 -0.4058
 4863TIP3    H236005   0.504   2.440  12.429  1.1963 -1.3091 -1.6461
 4864TIP3   OH236006   3.521   6.341   1.042 -0.1803 -0.0377 -0.2993
 4864TIP3    H136007   3.580   6.405   1.081  0.5323 -0.7946 -0.0822
 4864TIP3    H236008   3.580   6.279   0.998 -0.8193 -0.7651 -0.1454
 4865TIP3   OH236009   4.953   3.695   2.107  0.2843 -0.0922 -0.0919
 4865TIP3    H136010   4.994   3.731   2.028  0.8954  0.3920  0.4346
 4865TIP3    H236011   5.022   3.700   2.174 -0.3043 -0.2655  0.5346
 4866TIP3   OH236012   3.344   0.403  14.076 -0.1115 -0.1573 -0.1371
 4866TIP3    H136013   3.336   0.403  14.171  2.7109 -0.5083  0.2003
 4866TIP3    H236014   3.303   0.485  14.048  1.2899  1.2695  1.7024
 4867TIP3   OH236015   3.377   2.630  13.637 -0.0757 -0.1277  0.5147
 4867TIP3    H136016   3.400   2.539  13.616 -0.4737 -0.8056  2.7311
 4867TIP3    H236017   3.448   2.682  13.600  1.2077 -1.5341  0.8893
 4868TIP3   OH236018   2.054   6.271  14.393  0.1294 -0.4451  0.3101
 4868TIP3    H136019   2.054   6.220  14.474 -0.1385  0.2781  0.7783
 4868TIP3    H236020   2.108   6.347  14.413 -1.4411  0.6693  0.4244
 4869TIP3   OH236021   2.629   5.638   5.651 -0.2799  0.1289 -0.2124
 4869TIP3    H136022   2.661   5.719   5.691 -0.5107  0.9812 -1.6633
 4869TIP3    H236023   2.594   5.587   5.724  3.8718 -0.6907  1.4785
 4870TIP3   OH236024   1.235   5.071  13.722 -0.1173  0.5068  0.4685
 4870TIP3    H136025   1.198   5.087  13.635 -0.9710  1.0140  0.9091
 4870TIP3    H236026   1.184   4.997  13.756 -0.6359  1.0998  1.0152
 4871TIP3   OH236027   1.462   5.317   4.723 -0.2050 -0.3578  0.4968
 4871TIP3    H136028   1.442   5.406   4.751 -0.2172 -0.3864  0.5813
 4871TIP3    H236029   1.492   5.273   4.802 -0.3373 -0.4677  0.4864
 4872TIP3   OH236030   0.176   4.271   5.436  0.4608 -0.6617 -0.2383
 4872TIP3    H136031   0.091   4.312   5.420  0.6668 -0.1994 -0.1784
 4872TIP3    H236032   0.163   4.179   5.413 -0.7468 -1.1521  2.1136
 4873TIP3   OH236033   0.674   6.051  16.463  0.3558 -0.1305 -0.0502
 4873TIP3    H136034   0.623   6.042  16.383  1.4433  0.1863 -0.7986
 4873TIP3    H236035   0.667   5.966  16.506  1.7246 -1.1123 -1.6854
 4874TIP3   OH236036   0.361   0.113   0.631  0.1784 -0.1142  0.2826
 4874TIP3    H136037   0.392   0.158   0.552  0.4820  0.0266  0.4806
 4874TIP3    H236038   0.388   0.169   0.703 -2.5470  1.2192  0.3792
 4875TIP3   OH236039   1.052   4.100   2.271 -0.0554  0.3065 -0.1825
 4875TIP3    H136040   1.051   4.049   2.191  2.1479  1.7658 -1.2561
 4875TIP3    H236041   0.996   4.052   2.332 -3.0883 -0.0661 -3.0149
 4876TIP3   OH236042   1.619   3.407  10.761  0.6164 -0.4373  0.0955
 4876TIP3    H136043   1.640   3.497  10.738 -0.8668 -0.4578 -1.4952
 4876TIP3    H236044   1.581   3.370  10.682  0.3755 -2.2038  0.9931
 4877TIP3   OH236045   4.366   0.681  13.601  0.0313  0.2361  0.0614
 4877TIP3    H136046   4.446   0.685  13.547  0.2702 -0.1938  0.3691
 4877TIP3    H236047   4.398   0.684  13.691 -0.4422  2.2025  0.2093
 4878TIP3   OH236048   6.447   2.985   5.306  0.0110 -0.2308  0.7030
 4878TIP3    H136049   6.475   3.033   5.384  0.6305  0.5642  0.0089
 4878TIP3    H236050   6.472   3.041   5.233 -0.4128 -1.0396 -0.0813
 4879TIP3   OH236051   1.233   5.008   4.871 -0.2809 -0.1221  0.1556
 4879TIP3    H136052   1.169   5.065   4.915 -1.8308 -0.4084 -1.6058
 4879TIP3    H236053   1.262   5.058   4.795 -0.6757 -1.1480 -0.6912
 4880TIP3   OH236054   0.156   4.367  12.178 -0.0519  0.7216 -0.5867
 4880TIP3    H136055   0.104   4.290  12.153  0.1253  0.5653 -0.4832
 4880TIP3    H236056   0.221   4.375  12.108  0.6326  0.1053 -0.0471
 4881TIP3   OH236057   0.404   3.663  13.693 -0.5268 -0.3147 -0.6363
 4881TIP3    H136058   0.424   3.714  13.615 -1.0460  1.4486  0.3430
 4881TIP3    H236059   0.461   3.699  13.761 -1.0469 -0.9108  0.1339
 4882TIP3   OH236060   0.361   3.777  12.718 -0.7678  0.3835  0.2240
 4882TIP3    H136061   0.375   3.869  12.739  1.0646 -0.1317  1.6005
 4882TIP3    H236062   0.321   3.777  12.631 -3.3971  2.5201  1.2966
 4883TIP3   OH236063   1.991   4.416  12.080  0.7998  0.2244  0.3278
 4883TIP3    H136064   2.010   4.507  12.059 -0.3116  0.6969  1.2415
 4883TIP3    H236065   2.039   4.399  12.160  0.1257  0.3658  0.7701
 4884TIP3   OH236066   5.352   1.168   1.156  0.2238 -0.6888  0.1291
 4884TIP3    H136067   5.444   1.193   1.166  0.1946 -0.1081 -0.9563
 4884TIP3    H236068   5.322   1.154   1.246  1.7924 -2.5421  0.4385
 4885TIP3   OH236069   0.940   1.801  16.468 -0.3898  0.5646  0.3086
 4885TIP3    H136070   0.964   1.737  16.534  1.2737  1.2378  0.4004
 4885TIP3    H236071   0.883   1.753  16.408  2.2848 -1.6231 -0.6849
 4886TIP3   OH236072   6.203   1.793   1.533  0.0390  0.4791 -0.5581
 4886TIP3    H136073   6.155   1.711   1.550  1.1378 -0.6046 -2.3810
 4886TIP3    H236074   6.242   1.816   1.617  1.5606 -2.1326 -0.4546
 4887TIP3   OH236075   3.118   4.343  11.121  0.3209  0.4875  0.1687
 4887TIP3    H136076   3.075   4.427  11.105  0.2373  0.3916 -0.1265
 4887TIP3    H236077   3.172   4.329  11.043 -0.4472 -0.2172 -0.2546
 4888TIP3   OH236078   1.843   3.203  12.014  0.0064 -0.3785  0.4033
 4888TIP3    H136079   1.862   3.280  12.067 -0.4717 -1.6965  2.5969
 4888TIP3    H236080   1.851   3.129  12.074 -1.6794 -1.8860 -1.0818
 4889TIP3   OH236081   2.170   5.898  12.120 -0.1279  0.0334  0.4633
 4889TIP3    H136082   2.172   5.922  12.027  1.6296  0.8777  0.6888
 4889TIP3    H236083   2.255   5.858  12.136  1.1808  3.2360  2.5202
 4890TIP3   OH236084   3.536   1.978   3.618  0.1564 -0.3797  0.1835
 4890TIP3    H136085   3.579   2.048   3.667 -1.4117  1.3681 -0.7699
 4890TIP3    H236086   3.443   1.993   3.633 -0.3230 -0.5869 -2.1681
 4891TIP3   OH236087   1.520   1.238   4.767 -0.1245  0.1851  0.3118
 4891TIP3    H136088   1.562   1.218   4.851  0.0887 -0.1478  0.1259
 4891TIP3    H236089   1.427   1.238   4.787 -0.0372  1.0892  0.7638
 4892TIP3   OH236090   6.549   4.947  10.872  0.1518  0.1436  0.4130
 4892TIP3    H136091   6.628   5.000  10.864 -1.2660  2.3057 -0.1384
 4892TIP3    H236092   6.519   4.934  10.782 -1.9031  2.3260  0.6801
 4893TIP3   OH236093   0.869   0.491  11.222  0.1031  0.3539 -0.1663
 4893TIP3    H136094   0.859   0.516  11.130  0.4987 -1.1098 -0.6301
 4893TIP3    H236095   0.955   0.525  11.246  1.1978 -1.5387 -1.1680
 4894TIP3   OH236096   5.927   4.212   3.873 -0.0337  0.3240 -0.8737
 4894TIP3    H136097   5.873   4.288   3.896 -2.5107 -1.8905  1.4091
 4894TIP3    H236098   5.883   4.174   3.797  0.0021  0.0893 -0.7774
 4895TIP3   OH236099   0.610   2.439   4.620 -0.0762  0.1386  0.3948
 4895TIP3    H136100   0.553   2.407   4.550 -0.7189  2.4780 -0.2260
 4895TIP3    H236101   0.585   2.530   4.632  0.8614  0.1555  2.8631
 4896TIP3   OH236102   4.922   1.101  15.740  0.0127 -0.2992  0.1012
 4896TIP3    H136103   5.010   1.137  15.734 -0.0004 -0.1100  0.9005
 4896TIP3    H236104   4.927   1.035  15.808  0.4056 -3.0229 -2.3665
 4897TIP3   OH236105   3.663   0.839  14.650 -0.2939  0.5612 -0.3378
 4897TIP3    H136106   3.609   0.918  14.664 -0.0187  0.6834  0.0554
 4897TIP3    H236107   3.604   0.767  14.671 -0.0475  0.7268  1.0106
 4898TIP3   OH236108   6.688   3.088   5.439  0.3924 -0.3795 -0.3360
 4898TIP3    H136109   6.753   3.158   5.442 -0.1527  0.0929  0.7153
 4898TIP3    H236110   6.731   3.014   5.480 -0.0549  0.2289  1.2956
 4899TIP3   OH236111   4.946   4.521  14.498  0.3489 -0.0662  0.3197
 4899TIP3    H136112   4.964   4.566  14.416  0.7143  0.9313  0.9319
 4899TIP3    H236113   5.031   4.491  14.529  0.0094 -2.1933 -0.6075
 4900TIP3   OH236114   1.392   6.322  13.060 -0.1005 -0.0377 -0.1235
 4900TIP3    H136115   1.450   6.297  13.132 -1.5338  0.6300  1.3126
 4900TIP3    H236116   1.413   6.260  12.990  0.0838 -1.8959  1.4985
 4901TIP3   OH236117   0.459   4.974   3.701  0.3146  0.0725 -0.7572
 4901TIP3    H136118   0.435   5.037   3.769 -2.5678 -2.5014  0.8649
 4901TIP3    H236119   0.554   4.984   3.692  0.5452  1.9175  2.2013
 4902TIP3   OH236120   5.709   1.880  14.567  0.2063  0.2812  0.3137
 4902TIP3    H136121   5.732   1.906  14.478 -1.6713  0.2935 -0.2131
 4902TIP3    H236122   5.778   1.820  14.593  0.2394 -0.5649 -1.5666
 4903TIP3   OH236123   6.319   1.711   0.551 -0.4007 -0.4642 -0.0051
 4903TIP3    H136124   6.355   1.677   0.469 -1.9016 -0.7985 -0.5573
 4903TIP3    H236125   6.395   1.715   0.610  0.7094 -0.2313 -1.3835
 4904TIP3   OH236126   2.451   5.032  14.264  0.3553 -0.2033  0.3392
 4904TIP3    H136127   2.415   5.120  14.256 -1.5818 -1.0261 -0.4901
 4904TIP3    H236128   2.497   5.017  14.181  1.2223  0.2072  0.7228
 4905TIP3   OH236129   0.956   6.792   4.369  0.9707  0.3288  0.3894
 4905TIP3    H136130   0.981   6.854   4.301 -0.9593  0.9537  0.1705
 4905TIP3    H236131   0.935   6.848   4.444  0.8344 -0.1883  0.7398
 4906TIP3   OH236132   1.432   4.995  14.317 -0.5400 -0.2984  0.1401
 4906TIP3    H136133   1.381   5.053  14.261 -0.2230  1.2209  1.3798
 4906TIP3    H236134   1.513   4.980  14.268  1.5080  4.2075  1.6324
 4907TIP3   OH236135   5.673   5.420   2.533 -0.5607  0.0611  0.2834
 4907TIP3    H136136   5.629   5.386   2.610 -1.3872  0.4832  0.0085
 4907TIP3    H236137   5.610   5.480   2.493 -1.4248 -2.4062 -2.4016
 4908TIP3   OH236138   5.476   1.299  12.528  0.2897  0.6337 -0.4400
 4908TIP3    H136139   5.383   1.306  12.550  0.4208  1.2212 -0.0347
 4908TIP3    H236140   5.478   1.288  12.433 -0.1732  1.3131 -0.5370
 4909TIP3   OH236141   0.401   6.540  16.005 -0.0985 -0.6470  0.2320
 4909TIP3    H136142   0.346   6.560  16.081 -0.7480 -0.0671 -0.3784
 4909TIP3    H236143   0.370   6.454  15.976 -1.0358 -0.1194 -0.3923
 4910TIP3   OH236144   0.719   0.276  15.304  0.3216  0.9832 -0.0707
 4910TIP3    H136145   0.639   0.234  15.274  2.0741 -1.0364 -2.2781
 4910TIP3    H236146   0.742   0.229  15.385 -0.1467  0.8415 -0.0191
 4911TIP3   OH236147   1.664   3.218   2.964  0.2075  0.3514  0.4921
 4911TIP3    H136148   1.595   3.282   2.979 -1.4109 -1.1026 -0.3974
 4911TIP3    H236149   1.619   3.143   2.925  2.3148 -0.6327 -0.1855
 4912TIP3   OH236150   1.819   4.362  15.840  0.0674 -0.1924 -0.3886
 4912TIP3    H136151   1.791   4.333  15.927 -0.9260  1.4147 -0.1247
 4912TIP3    H236152   1.792   4.292  15.781 -1.0882 -0.3944  0.3521
 4913TIP3   OH236153   6.539   5.683  14.922  0.0813  0.0221  0.7377
 4913TIP3    H136154   6.611   5.620  14.924 -1.3381 -1.6797  0.6963
 4913TIP3    H236155   6.555   5.735  14.843  2.0364  0.7029  1.5203
 4914TIP3   OH236156   1.928   4.446   4.317 -0.2076  0.2985 -0.1625
 4914TIP3    H136157   1.909   4.522   4.262  2.2650 -1.0422 -3.2131
 4914TIP3    H236158   2.015   4.464   4.354 -0.6060 -0.0918  1.0307
 4915TIP3   OH236159   2.870   1.448   1.433  0.1016 -0.1803 -0.1416
 4915TIP3    H136160   2.957   1.474   1.404  0.2256 -0.7419 -0.2789
 4915TIP3    H236161   2.830   1.409   1.355 -0.7663  1.2668 -0.4700
 4916TIP3   OH236162   6.259   6.308   5.985  0.6138  0.1025  0.0002
 4916TIP3    H136163   6.325   6.238   5.982  0.2242 -0.2676  0.0285
 4916TIP3    H236164   6.187   6.271   6.035  1.8509  1.7532  3.2963
 4917TIP3   OH236165   5.520   5.000  12.576 -0.2591  0.5769 -0.0622
 4917TIP3    H136166   5.474   5.058  12.636  2.4107  3.3001 -0.3777
 4917TIP3    H236167   5.611   5.032  12.576  1.2729 -3.1709 -0.9180
 4918TIP3   OH236168   3.452   0.187  16.171  1.1817 -0.1387  0.3673
 4918TIP3    H136169   3.376   0.198  16.115  1.2000  0.7145  0.4993
 4918TIP3    H236170   3.416   0.183  16.260  1.3204  0.8823  0.4839
 4919TIP3   OH236171   1.521   1.716  14.436  0.1187  0.2029 -0.1637
 4919TIP3    H136172   1.550   1.633  14.399  1.8453 -0.0727  1.6380
 4919TIP3    H236173   1.528   1.704  14.531 -1.7268  1.6875  0.2174
 4920TIP3   OH236174   3.700   5.117   3.624 -0.0853 -0.0119  0.7878
 4920TIP3    H136175   3.607   5.101   3.638 -0.1582  1.5002  2.2858
 4920TIP3    H236176   3.714   5.097   3.531 -1.7547 -0.8401  0.6823
 4921TIP3   OH236177   3.045   5.437  15.362 -0.0392  0.6763  0.4269
 4921TIP3    H136178   3.043   5.345  15.335  2.2036  0.9101 -0.8133
 4921TIP3    H236179   3.035   5.434  15.457 -0.5006 -0.7917  0.3611
 4922TIP3   OH236180   4.573   3.528  11.574  0.1042  0.3938 -0.5527
 4922TIP3    H136181   4.536   3.583  11.643 -1.3375  0.1006 -1.0599
 4922TIP3    H236182   4.518   3.449  11.573  1.2624 -0.4490 -0.7882
 4923TIP3   OH236183   5.173   5.924   2.547  0.0280 -0.1108 -0.0161
 4923TIP3    H136184   5.171   5.947   2.639 -0.8156  0.7868 -0.2405
 4923TIP3    H236185   5.247   5.974   2.511  0.0944 -0.1346  0.0875
 4924TIP3   OH236186   5.223   0.674  14.778 -0.3418 -0.5101  0.2082
 4924TIP3    H136187   5.257   0.588  14.755  0.4226 -0.0172 -0.5528
 4924TIP3    H236188   5.270   0.735  14.721 -0.8873  0.4116  0.7153
 4925TIP3   OH236189   2.108   2.825  14.800  0.0306  0.8682 -0.1316
 4925TIP3    H136190   2.057   2.848  14.721  0.8003  0.6603 -0.7001
 4925TIP3    H236191   2.172   2.895  14.808  1.7261 -0.4576 -1.2856
 4926TIP3   OH236192   5.915   0.552   5.363 -0.0860 -0.0274  0.7799
 4926TIP3    H136193   5.833   0.554   5.413 -0.5223 -2.1431  0.2547
 4926TIP3    H236194   5.960   0.474   5.394  0.3202 -0.5741 -1.0565
 4927TIP3   OH236195   6.313   1.371   2.887 -0.6455  0.3777  0.3947
 4927TIP3    H136196   6.380   1.422   2.840  0.1051  0.1385  1.1798
 4927TIP3    H236197   6.233   1.423   2.878 -0.2003  1.0151  0.0212
 4928TIP3   OH236198   1.566   2.345  15.606 -0.5813  0.9711 -0.4270
 4928TIP3    H136199   1.551   2.324  15.698 -1.7205  1.8993 -0.3802
 4928TIP3    H236200   1.661   2.336  15.594 -0.4053  1.0184  0.8722
 4929TIP3   OH236201   6.168   6.373  13.217 -0.3062  0.5682  0.0312
 4929TIP3    H136202   6.254   6.332  13.203  0.1192  1.4905 -0.1203
 4929TIP3    H236203   6.120   6.309  13.270  0.2718 -0.2089 -0.3468
 4930TIP3   OH236204   2.071   6.200   1.384  0.4423  0.5000 -0.6583
 4930TIP3    H136205   2.004   6.248   1.434 -1.0246 -2.8186  0.8976
 4930TIP3    H236206   2.143   6.189   1.446  0.0777 -0.6277 -0.4140
 4931TIP3   OH236207   5.446   3.706  12.399 -0.2086  0.2690 -0.1415
 4931TIP3    H136208   5.434   3.614  12.374 -2.1530 -0.0601  1.6962
 4931TIP3    H236209   5.466   3.702  12.493  0.4628  1.7044 -0.2047
 4932TIP3   OH236210   1.549   0.483   4.137 -0.0155 -0.5696  0.2680
 4932TIP3    H136211   1.631   0.529   4.154 -0.3671  0.0823  0.2484
 4932TIP3    H236212   1.560   0.398   4.180  0.7345 -0.5582  0.1080
 4933TIP3   OH236213   5.716   5.870  15.649 -0.6385  0.5647  0.2813
 4933TIP3    H136214   5.706   5.905  15.560  1.2312 -1.1519 -0.6720
 4933TIP3    H236215   5.796   5.818  15.646  0.5364  1.9346  3.4976
 4934TIP3   OH236216   4.949   1.306  13.503 -0.4790 -0.0695  0.1144
 4934TIP3    H136217   4.933   1.349  13.587 -0.0018  0.1460  0.0971
 4934TIP3    H236218   4.981   1.219  13.527 -1.4372 -0.4259  0.1488
 4935TIP3   OH236219   1.336   3.997   4.229  0.4942  0.4207  0.1007
 4935TIP3    H136220   1.403   4.062   4.247 -0.5440  1.8743 -1.0894
 4935TIP3    H236221   1.283   3.994   4.309 -0.7479  2.6893 -0.5708
 4936TIP3   OH236222   6.040   4.976  15.479 -0.1089  0.4804  0.0129
 4936TIP3    H136223   6.046   5.070  15.496  0.7176  0.2341  1.1803
 4936TIP3    H236224   5.945   4.959  15.476 -0.2651  1.3233 -0.0886
 4937TIP3   OH236225   4.631   0.888   3.829  0.5114 -0.0546  0.1999
 4937TIP3    H136226   4.628   0.806   3.778  0.7814 -0.1691  0.3677
 4937TIP3    H236227   4.723   0.912   3.829  0.3946  0.4018 -0.0830
 4938TIP3   OH236228   5.574   4.181   3.535  0.3551 -0.3082 -0.1741
 4938TIP3    H136229   5.619   4.127   3.600  0.6377  0.0215 -0.0891
 4938TIP3    H236230   5.508   4.124   3.496  0.0361 -0.4429  0.5605
 4939TIP3   OH236231   1.476   2.544   3.127 -0.2198 -0.0976  0.1564
 4939TIP3    H136232   1.469   2.610   3.197 -0.4016 -0.3360  0.3635
 4939TIP3    H236233   1.521   2.471   3.168  1.9665  0.7179 -0.6634
 4940TIP3   OH236234   0.030   2.215   0.297  0.0768 -0.1872 -0.3362
 4940TIP3    H136235  -0.005   2.127   0.279  2.0047 -0.5557 -2.7795
 4940TIP3    H236236   0.063   2.210   0.387  0.2731 -2.0140 -0.4799
 4941TIP3   OH236237   3.146   1.008   2.135 -0.0781  0.8985 -0.0371
 4941TIP3    H136238   3.138   1.005   2.230 -0.3625 -0.0847 -0.0828
 4941TIP3    H236239   3.056   1.012   2.102 -0.0368  0.0413 -0.2844
 4942TIP3   OH236240   0.937   5.160   0.578  0.2075 -0.1847  0.7694
 4942TIP3    H136241   0.905   5.251   0.582  0.4077 -0.0438 -0.3835
 4942TIP3    H236242   0.858   5.107   0.581  0.1205 -0.0060  2.0426
 4943TIP3   OH236243   6.452   5.576  12.866  0.2418 -0.3745  0.4148
 4943TIP3    H136244   6.453   5.506  12.930  0.1917  0.0773  0.9149
 4943TIP3    H236245   6.374   5.560  12.813  0.7735 -1.2637 -0.1222
 4944TIP3   OH236246   6.392   2.076  15.791 -0.2754 -0.6401 -0.6396
 4944TIP3    H136247   6.461   2.028  15.835 -0.3221 -1.7699 -1.7468
 4944TIP3    H236248   6.423   2.087  15.701 -1.8584 -1.9537 -1.4138
 4945TIP3   OH236249   6.782   3.580  13.131 -0.1827  0.1802  0.0047
 4945TIP3    H136250   6.834   3.606  13.207  0.9548 -0.3982 -0.5667
 4945TIP3    H236251   6.691   3.599  13.157  0.1306 -0.4806  1.7029
 4946TIP3   OH236252   4.210   0.603  13.170 -0.1788 -0.2155 -0.3462
 4946TIP3    H136253   4.120   0.615  13.141 -0.3225 -1.3369 -0.4144
 4946TIP3    H236254   4.263   0.647  13.103 -0.6318 -0.4312 -0.8533
 4947TIP3   OH236255   2.217   1.619   3.962 -0.2175  0.2964 -0.1494
 4947TIP3    H136256   2.210   1.643   3.870  1.2805  0.5212 -0.2324
 4947TIP3    H236257   2.296   1.663   3.993 -0.8036  0.3945  1.3122
 4948TIP3   OH236258   2.187   2.660  11.369 -0.3767 -0.0329  0.0583
 4948TIP3    H136259   2.258   2.598  11.385 -0.7566 -0.0378  1.9354
 4948TIP3    H236260   2.114   2.605  11.340  0.1826 -0.0866 -1.3215
 4949TIP3   OH236261   1.696   5.882  11.454  0.2892  0.1008 -0.0580
 4949TIP3    H136262   1.767   5.819  11.466 -0.4893 -0.7538  0.1786
 4949TIP3    H236263   1.695   5.899  11.360 -0.8294 -1.8875 -0.4622
 4950TIP3   OH236264   5.353   3.575  11.228  0.6688 -0.0864 -0.3720
 4950TIP3    H136265   5.416   3.533  11.287 -1.2531  0.6387  2.4161
 4950TIP3    H236266   5.306   3.502  11.187  1.1197 -0.6410  0.0728
 4951TIP3   OH236267   3.756   0.818   4.998 -0.1313  0.1843 -0.6411
 4951TIP3    H136268   3.696   0.892   4.987 -0.1473  0.3090  0.1665
 4951TIP3    H236269   3.837   0.858   5.030 -0.9019 -0.3342  2.2186
 4952TIP3   OH236270   4.582   4.631   0.637  0.2197  0.0657  0.0845
 4952TIP3    H136271   4.500   4.680   0.627 -0.1311 -0.8618 -2.2208
 4952TIP3    H236272   4.559   4.542   0.611  1.9238 -0.2678 -0.3782
 4953TIP3   OH236273   0.767   1.827  14.444 -0.2296 -0.6926 -0.4894
 4953TIP3    H136274   0.726   1.811  14.530  0.5512 -1.7899 -0.3000
 4953TIP3    H236275   0.709   1.890  14.402  0.4042  1.4549  1.6033
 4954TIP3   OH236276   6.574   6.202   4.381  0.2375 -0.2838  0.1562
 4954TIP3    H136277   6.508   6.145   4.420 -0.8255  0.3355 -0.6828
 4954TIP3    H236278   6.630   6.143   4.330  1.2306 -1.0045  1.9849
 4955TIP3   OH236279   1.682   4.896  13.728  0.1465  0.3208  0.3181
 4955TIP3    H136280   1.686   4.923  13.636 -1.6348 -1.7040 -0.4378
 4955TIP3    H236281   1.709   4.804  13.727 -1.7649 -0.3017  1.5005
 4956TIP3   OH236282   0.906   4.581  16.565 -0.0890  0.0756  0.3210
 4956TIP3    H136283   0.832   4.604  16.510 -0.1197  0.4423  0.5135
 4956TIP3    H236284   0.885   4.494  16.599  0.3630 -0.5796 -0.9892
 4957TIP3   OH236285   0.982   3.853  14.020 -0.3639 -0.1280  0.0329
 4957TIP3    H136286   0.905   3.796  14.025 -0.0290 -0.5230  0.8357
 4957TIP3    H236287   0.963   3.912  13.947 -1.9209  0.4852  0.8813
 4958TIP3   OH236288   2.169   5.031   0.787 -0.2779  0.2659 -0.3508
 4958TIP3    H136289   2.133   5.112   0.751 -0.6535  0.3751  0.2478
 4958TIP3    H236290   2.256   5.055   0.818 -0.4827  0.5062  0.0459
 4959TIP3   OH236291   0.228   0.938  13.523  0.2420 -0.3094 -0.1049
 4959TIP3    H136292   0.220   0.968  13.433 -0.3045 -1.3127 -0.3984
 4959TIP3    H236293   0.140   0.947  13.559  0.4838  0.2113  0.3796
 4960TIP3   OH236294   5.447   6.501   2.322 -0.1786 -0.2959  0.1027
 4960TIP3    H136295   5.384   6.564   2.286  0.2210 -0.2112 -0.4661
 4960TIP3    H236296   5.393   6.429   2.355 -0.5624 -0.3137 -0.5552
 4961TIP3   OH236297   0.329   2.183  11.517 -0.0528  0.0101 -0.1584
 4961TIP3    H136298   0.248   2.161  11.472 -1.2894  1.2740  1.3300
 4961TIP3    H236299   0.311   2.167  11.610  1.8557 -0.9343  0.0984
 4962TIP3   OH236300   3.815   5.057   1.149  0.0383 -0.8351  0.2660
 4962TIP3    H136301   3.720   5.070   1.151  0.0389 -0.5459 -1.0096
 4962TIP3    H236302   3.850   5.129   1.201 -0.4275 -0.9305  0.7260
 4963TIP3   OH236303   5.226   6.707  16.740 -0.2315 -0.2991  0.8168
 4963TIP3    H136304   5.168   6.745  16.806  0.7491  0.4900  1.2637
 4963TIP3    H236305   5.171   6.695  16.663 -1.1952 -0.4474  1.5211
 4964TIP3   OH236306   6.212   2.115  11.963  0.2095 -0.4099 -0.8673
 4964TIP3    H136307   6.230   2.205  11.987  0.8519 -1.0982  1.4708
 4964TIP3    H236308   6.225   2.112  11.868 -3.5051  2.7405 -1.7059
 4965TIP3   OH236309   6.535   0.268   0.814 -0.4304 -0.0749 -0.3096
 4965TIP3    H136310   6.457   0.218   0.837 -0.1539  0.0732  1.0615
 4965TIP3    H236311   6.595   0.252   0.887 -0.2099  1.9925  0.0029
 4966TIP3   OH236312   4.859   6.663   0.197 -0.9076 -0.4595 -0.1316
 4966TIP3    H136313   4.932   6.724   0.185 -1.2497  0.0286  0.2057
 4966TIP3    H236314   4.863   6.606   0.121  0.4982 -1.1523  0.4253
 4967TIP3   OH236315   0.228   3.835  12.266  0.0988  0.3972  0.1150
 4967TIP3    H136316   0.135   3.819  12.253 -0.1257  1.9959 -0.4133
 4967TIP3    H236317   0.264   3.841  12.178  0.8705 -0.9554  0.3037
 4968TIP3   OH236318   6.252   6.337   1.693  0.2690 -0.3596  0.2481
 4968TIP3    H136319   6.206   6.276   1.635 -0.0638  0.8258 -0.7579
 4968TIP3    H236320   6.345   6.323   1.673  0.2120 -0.7701  0.2629
 4969TIP3   OH236321   3.575   1.080   2.635 -0.5150 -0.3029  0.8187
 4969TIP3    H136322   3.537   1.031   2.562  1.6351 -0.8370 -0.0107
 4969TIP3    H236323   3.577   1.018   2.707 -0.6017 -0.4675  0.6815
 4970TIP3   OH236324   4.238   6.302   5.913 -0.0541 -0.1713  0.4059
 4970TIP3    H136325   4.196   6.216   5.917  0.4781 -0.4474  0.2226
 4970TIP3    H236326   4.290   6.307   5.993 -0.0232 -0.0480  0.3779
 4971TIP3   OH236327   4.888   4.120   4.129  0.5781 -0.2180 -0.3998
 4971TIP3    H136328   4.830   4.056   4.088  1.8168 -1.0355 -0.9022
 4971TIP3    H236329   4.963   4.126   4.071  1.1569  0.5891  0.4085
 4972TIP3   OH236330   2.237   2.608   6.106 -0.0886  0.1135 -0.1221
 4972TIP3    H136331   2.286   2.689   6.120 -2.2743  1.7856 -1.5221
 4972TIP3    H236332   2.178   2.601   6.181 -0.0984 -0.0570 -0.1444
 4973TIP3   OH236333   2.239   1.885   0.066  0.3233  0.5516 -0.4090
 4973TIP3    H136334   2.228   1.939   0.144 -0.1362  0.9484 -0.7431
 4973TIP3    H236335   2.154   1.841   0.054  0.2384  0.8456 -0.9400
 4974TIP3   OH236336   5.680   0.977  12.044 -0.4368  0.2389  0.2000
 4974TIP3    H136337   5.621   0.952  11.973 -0.4726  1.5410 -0.2729
 4974TIP3    H236338   5.725   1.056  12.011 -1.6684  1.9043  2.2344
 4975TIP3   OH236339   5.631   2.725  15.907 -0.4533 -0.4533  0.3062
 4975TIP3    H136340   5.712   2.683  15.937  0.7534  1.1981 -0.4732
 4975TIP3    H236341   5.661   2.803  15.859 -2.5555  0.9056  1.0817
 4976TIP3   OH236342   6.120   0.391  12.685  0.2846  0.1011 -0.2758
 4976TIP3    H136343   6.076   0.429  12.608 -0.0161 -0.2059 -0.2587
 4976TIP3    H236344   6.212   0.390  12.662  0.3473  1.1712 -0.1417
 4977TIP3   OH236345   3.304   1.981   3.789 -0.1370  0.0349 -0.0515
 4977TIP3    H136346   3.252   2.056   3.762 -0.7713 -0.2843  0.2374
 4977TIP3    H236347   3.299   1.982   3.885 -1.1172 -1.0190 -0.0717
 4978TIP3   OH236348   1.231   0.514  13.666 -0.4264  0.1073 -0.0575
 4978TIP3    H136349   1.267   0.555  13.588 -0.5884 -1.1942 -0.8481
 4978TIP3    H236350   1.307   0.491  13.719 -0.3715  2.6865  1.1227
 4979TIP3   OH236351   4.698   3.657  15.480 -0.3255 -0.3217  0.0951
 4979TIP3    H136352   4.639   3.685  15.550  0.7185  3.0720 -0.1869
 4979TIP3    H236353   4.775   3.713  15.490  1.3915 -2.1895 -1.6704
 4980TIP3   OH236354   5.715   5.552   5.187 -0.5199  0.1915  0.0839
 4980TIP3    H136355   5.635   5.603   5.177 -0.7362 -0.3382 -1.0858
 4980TIP3    H236356   5.712   5.488   5.115  0.1368 -0.9256  1.0084
 4981TIP3   OH236357   3.586   0.029  15.132  0.1004 -0.1155 -0.3091
 4981TIP3    H136358   3.581  -0.044  15.070 -1.1722 -1.1949  1.0000
 4981TIP3    H236359   3.496   0.043  15.160  0.6414  0.3488  1.2734
 4982TIP3   OH236360   6.417   0.377  15.514 -0.4736 -0.1947  0.0380
 4982TIP3    H136361   6.504   0.396  15.548 -0.3547 -0.9714  0.1740
 4982TIP3    H236362   6.420   0.404  15.422  0.3072 -1.3660 -0.3021
 4983TIP3   OH236363   6.492   6.040   2.656 -0.3867  0.0394 -0.1351
 4983TIP3    H136364   6.567   5.981   2.667 -0.6153 -0.1841  0.2568
 4983TIP3    H236365   6.418   5.981   2.645 -0.7664  0.2328  1.2137
 4984TIP3   OH236366   2.577   2.217  14.735  0.4670 -0.2562  0.5773
 4984TIP3    H136367   2.506   2.206  14.672 -0.2771 -3.1197  1.7635
 4984TIP3    H236368   2.537   2.260  14.810  0.8589  1.2291 -0.0274
 4985TIP3   OH236369   5.706   4.246  15.821  0.0293  0.1342 -0.4333
 4985TIP3    H136370   5.661   4.218  15.900 -0.8650 -0.6756 -1.2023
 4985TIP3    H236371   5.723   4.339  15.834 -0.5635  0.1190  0.4928
 4986TIP3   OH236372   0.710   4.480  13.702  0.0295 -0.1312 -0.1021
 4986TIP3    H136373   0.712   4.450  13.793 -0.6870 -1.3492 -0.4660
 4986TIP3    H236374   0.757   4.412  13.653 -1.6049 -0.7025 -0.9454
 4987TIP3   OH236375   3.993   0.043  15.641  0.1724  0.0429 -0.5237
 4987TIP3    H136376   3.941  -0.020  15.690 -0.6053  1.2333  0.2482
 4987TIP3    H236377   3.979   0.020  15.549  0.1488 -1.0699 -0.2577
 4988TIP3   OH236378   6.088   4.803   4.341  0.1005  0.5965 -0.1503
 4988TIP3    H136379   6.028   4.737   4.377 -2.1119  2.3945 -0.2877
 4988TIP3    H236380   6.162   4.803   4.401 -2.0607  1.3163  2.7574
 4989TIP3   OH236381   1.869   6.719  12.604 -0.1465 -0.3931 -0.1431
 4989TIP3    H136382   1.958   6.719  12.638 -0.8935 -0.7994  1.9706
 4989TIP3    H236383   1.869   6.786  12.536  1.0806  1.7793  1.8583
 4990TIP3   OH236384   5.286   6.196   4.032 -0.7065 -0.5909 -0.0451
 4990TIP3    H136385   5.219   6.240   4.085 -0.1263  1.4212 -0.8545
 4990TIP3    H236386   5.360   6.257   4.032 -0.7127 -0.4291 -3.1789
 4991TIP3   OH236387   0.163   2.612  14.907 -0.4709  0.3490  0.2424
 4991TIP3    H136388   0.234   2.618  14.843 -0.8862 -1.8768 -0.5393
 4991TIP3    H236389   0.091   2.570  14.858 -1.3769  0.0921  1.7415
 4992TIP3   OH236390   0.968   0.125   0.288 -0.4782  0.1789  0.1216
 4992TIP3    H136391   0.956   0.218   0.308 -0.8345  0.6597 -2.0968
 4992TIP3    H236392   1.037   0.097   0.348 -1.2091  1.5399  1.6840
 4993TIP3   OH236393   6.544   3.246   3.314  0.1552 -0.1601 -1.0173
 4993TIP3    H136394   6.530   3.153   3.300 -2.4568 -0.4899  2.4473
 4993TIP3    H236395   6.632   3.252   3.352  1.2266 -0.8622 -3.2630
 4994TIP3   OH236396   6.001   2.823  10.470  0.1351 -0.0562 -0.5690
 4994TIP3    H136397   5.965   2.858  10.551 -0.0244  0.2284 -0.7635
 4994TIP3    H236398   5.925   2.807  10.414  0.3257  0.8459 -1.1004
 4995TIP3   OH236399   5.879   1.113   2.511 -0.4639 -0.4579 -0.2794
 4995TIP3    H136400   5.816   1.185   2.512  0.2977  0.2151 -0.1663
 4995TIP3    H236401   5.959   1.152   2.476 -0.4335 -1.5809 -1.5394
 4996TIP3   OH236402   5.998   6.031   5.423  0.0447  0.0281  0.4716
 4996TIP3    H136403   6.009   5.941   5.452 -2.4060 -0.7202 -0.6300
 4996TIP3    H236404   6.044   6.036   5.340 -1.4804 -0.8404 -0.4555
 4997TIP3   OH236405   2.890   6.655  17.014 -0.7118  0.4716 -0.7534
 4997TIP3    H136406   2.976   6.630  16.983 -1.6009 -1.8681 -1.5280
 4997TIP3    H236407   2.872   6.597  17.088 -1.7625  0.6803 -0.8224
 4998TIP3   OH236408   4.052   2.085   4.242  0.0509 -0.2444  0.1897
 4998TIP3    H136409   3.975   2.037   4.273 -0.1022 -0.6287 -0.7528
 4998TIP3    H236410   4.074   2.144   4.314 -0.8481 -0.4567  0.6553
 4999TIP3   OH236411   2.433   1.157  16.717  0.4124 -0.1995 -0.3484
 4999TIP3    H136412   2.344   1.126  16.705 -0.1718  1.3162 -0.1467
 4999TIP3    H236413   2.485   1.107  16.654 -0.7089 -0.5424 -1.0171
 5000TIP3   OH236414   6.037   0.568   5.757  0.5050  0.1743 -0.1423
 5000TIP3    H136415   6.131   0.573   5.770  0.5941  0.2085 -0.7396
 5000TIP3    H236416   6.027   0.554   5.663 -0.1087  0.9455 -0.2087
 5001TIP3   OH236417   4.239   6.740  13.239  0.0066  0.2242 -0.0461
 5001TIP3    H136418   4.318   6.731  13.185  0.6557  0.4824  0.8508
 5001TIP3    H236419   4.271   6.745  13.329 -1.0698 -0.2906  0.3891
 5002TIP3   OH236420   2.426   5.701   1.169 -0.0156  0.2871 -0.1004
 5002TIP3    H136421   2.480   5.623   1.186  1.0960  1.1921  0.6797
 5002TIP3    H236422   2.443   5.758   1.244 -0.6551  1.3752 -0.7648
 5003TIP3   OH236423   3.381   4.459   5.695 -0.4382 -0.5895  0.4308
 5003TIP3    H136424   3.333   4.384   5.660  1.1170 -0.8716 -1.2259
 5003TIP3    H236425   3.431   4.423   5.768 -1.0011 -0.7723  0.7361
 5004TIP3   OH236426   4.512   2.805  11.262  0.2196  0.1034 -0.2852
 5004TIP3    H136427   4.581   2.827  11.199  0.9379  0.7706  0.7043
 5004TIP3    H236428   4.530   2.714  11.285  0.7635  0.2678 -0.0464
 5005TIP3   OH236429   1.160   1.153   2.720 -0.0639 -0.0764  0.1828
 5005TIP3    H136430   1.116   1.141   2.804 -0.1506 -0.7249  0.0451
 5005TIP3    H236431   1.248   1.183   2.744 -0.3212  0.4653  0.4788
 5006TIP3   OH236432   4.876   1.502  14.361  0.6172  0.5466 -0.2347
 5006TIP3    H136433   4.832   1.586  14.357  1.2958  0.9095 -0.2031
 5006TIP3    H236434   4.908   1.495  14.451  0.6985  0.3244 -0.2779
 5007TIP3   OH236435   5.176   3.841   3.932 -0.2693  0.0248 -0.3361
 5007TIP3    H136436   5.173   3.917   3.873 -2.8120  0.0818 -0.2555
 5007TIP3    H236437   5.249   3.788   3.900  1.3468  2.2878 -0.6324
 5008TIP3   OH236438   0.257   0.742  16.868  0.1958 -1.0330  0.3233
 5008TIP3    H136439   0.201   0.707  16.936  0.4497 -1.5592  0.2657
 5008TIP3    H236440   0.197   0.771  16.799 -0.0863 -0.0688  0.9585
 5009TIP3   OH236441   5.846   5.846   4.429  0.2978  0.0878 -0.2663
 5009TIP3    H136442   5.820   5.823   4.340  0.1584  2.9208 -1.0539
 5009TIP3    H236443   5.787   5.918   4.454  1.8834  0.9747  1.1569
 5010TIP3   OH236444   4.485   0.112   0.383  0.6171  0.4819 -0.2254
 5010TIP3    H136445   4.494   0.203   0.412 -0.3535  0.7492 -0.7131
 5010TIP3    H236446   4.562   0.097   0.328  0.9381  0.9146  0.0979
 5011TIP3   OH236447   0.123   1.077   2.862 -0.3557  0.0710 -0.1350
 5011TIP3    H136448   0.135   1.100   2.954 -2.4098 -1.6393  0.6514
 5011TIP3    H236449   0.054   1.137   2.832  0.6868  0.9922 -0.7651
 5012TIP3   OH236450   6.164   0.594   2.287 -0.4272  0.1278  0.1626
 5012TIP3    H136451   6.132   0.662   2.346 -0.3964  0.1830  0.1157
 5012TIP3    H236452   6.084   0.553   2.254 -0.4293 -0.4174  0.8372
 5013TIP3   OH236453   2.170   2.347  13.910 -0.3863 -0.0802  0.3823
 5013TIP3    H136454   2.218   2.280  13.958  0.0978 -0.2980 -0.3950
 5013TIP3    H236455   2.188   2.428  13.957 -0.1386 -0.3309  0.7243
 5014TIP3   OH236456   1.509   1.420   4.536 -0.0954 -0.2702  0.4449
 5014TIP3    H136457   1.428   1.374   4.518 -0.4591  0.5990 -0.2026
 5014TIP3    H236458   1.555   1.364   4.600 -1.5975 -0.3304  1.5265
 5015TIP3   OH236459   6.769   1.332  12.499 -0.4629 -0.0907  0.6296
 5015TIP3    H136460   6.701   1.300  12.439 -3.1286  1.6194  2.4769
 5015TIP3    H236461   6.799   1.414  12.460 -1.2215  0.3386  0.9173
 5016TIP3   OH236462   4.816   6.134   2.743  0.4605  0.2095 -0.3952
 5016TIP3    H136463   4.852   6.205   2.688 -0.4584  0.4268 -0.7428
 5016TIP3    H236464   4.724   6.127   2.715 -0.2470  0.8033  1.5913
 5017TIP3   OH236465   6.329   4.114   0.123  0.2602  0.0548  0.2814
 5017TIP3    H136466   6.278   4.193   0.142 -1.0727 -0.6941 -0.1225
 5017TIP3    H236467   6.350   4.121   0.030  1.6519  0.7579  0.6081
 5018TIP3   OH236468   4.852   6.564   6.138 -0.6439 -0.0902  0.2657
 5018TIP3    H136469   4.837   6.655   6.114  0.3154 -0.1603 -0.6934
 5018TIP3    H236470   4.896   6.526   6.062 -0.7244 -1.2665  0.7825
 5019TIP3   OH236471   5.171   2.826  10.620 -0.1311  0.2109  0.1635
 5019TIP3    H136472   5.170   2.826  10.524  0.4486 -0.7787  0.1428
 5019TIP3    H236473   5.170   2.733  10.643  0.2421  0.4368  1.1057
 5020TIP3   OH236474   3.884   1.329   3.133  0.5288  0.1159 -0.0328
 5020TIP3    H136475   3.925   1.415   3.133  0.0315  0.4142  1.8045
 5020TIP3    H236476   3.955   1.268   3.114  1.1625  0.8427 -0.0491
 5021TIP3   OH236477   0.779   5.944  11.731  0.6341  0.2247  0.5579
 5021TIP3    H136478   0.865   5.916  11.762  0.5957  0.1934  0.6366
 5021TIP3    H236479   0.717   5.904  11.792  0.5460 -0.0101  0.3150
 5022TIP3   OH236480   2.359   4.912  16.476  0.1035  0.4653 -0.3394
 5022TIP3    H136481   2.449   4.916  16.446  1.1625  2.2401  2.6622
 5022TIP3    H236482   2.342   4.999  16.514 -0.7697 -1.4448  4.3915
 5023TIP3   OH236483   0.183   5.086  12.839  0.3648  0.1635  0.0103
 5023TIP3    H136484   0.214   5.001  12.871 -0.7536 -0.2629  0.0068
 5023TIP3    H236485   0.213   5.148  12.905  3.1476  0.1277 -1.0896
 5024TIP3   OH236486   4.010   6.377   1.219 -0.3465 -0.3782 -0.2387
 5024TIP3    H136487   3.947   6.327   1.168  0.2299 -0.6021 -0.7510
 5024TIP3    H236488   4.091   6.372   1.168  0.0208  0.1041  0.2841
 5025TIP3   OH236489   5.638   4.164  15.560  0.0434 -0.2252  0.4645
 5025TIP3    H136490   5.655   4.194  15.649 -1.5965 -0.4903  0.9105
 5025TIP3    H236491   5.589   4.235  15.519 -1.4310 -1.0983  0.6322
 5026TIP3   OH236492   3.285   1.393  13.390  0.0970  0.3095  0.4117
 5026TIP3    H136493   3.215   1.444  13.349  1.1454  1.0159 -0.5677
 5026TIP3    H236494   3.358   1.399  13.328  0.7965 -1.0109  1.0662
 5027TIP3   OH236495   2.793   5.133  13.521 -0.4076  0.7031  0.2208
 5027TIP3    H136496   2.722   5.074  13.495  1.9414 -1.9444 -0.7259
 5027TIP3    H236497   2.833   5.160  13.438  0.8180  0.6121  0.7621
 5028TIP3   OH236498   2.907   3.818  15.946  0.1218  0.0700 -0.5034
 5028TIP3    H136499   2.913   3.903  15.990 -0.9830 -0.0523 -0.0994
 5028TIP3    H236500   2.898   3.754  16.017  1.6365 -0.4875 -0.7615
 5029TIP3   OH236501   4.465   1.026  13.063  0.5464 -0.3836  0.1681
 5029TIP3    H136502   4.536   1.037  13.126 -1.5129  0.2566  2.5758
 5029TIP3    H236503   4.432   0.938  13.079 -2.3802  0.9759  2.9426
 5030TIP3   OH236504   0.967   2.861  12.806  0.2224 -0.1880  0.3475
 5030TIP3    H136505   0.909   2.849  12.731  1.5796  1.1956 -0.9929
 5030TIP3    H236506   1.047   2.816  12.782  0.2252 -0.8666  1.5637
 5031TIP3   OH236507   5.017   2.737   5.439  0.2787  0.4848 -0.7100
 5031TIP3    H136508   5.065   2.659   5.410 -0.9094  0.3963 -2.6608
 5031TIP3    H236509   4.969   2.708   5.516  2.8348  0.4441  1.0042
 5032TIP3   OH236510   2.471   4.082  15.882  0.3376 -0.1755 -0.1687
 5032TIP3    H136511   2.406   4.153  15.882 -0.0772 -0.5399  0.4836
 5032TIP3    H236512   2.517   4.091  15.799  0.4529  1.0137  0.0066
 5033TIP3   OH236513   3.272   2.916  16.303 -0.2914  0.1163  0.3280
 5033TIP3    H136514   3.235   2.997  16.268  1.0566  0.5137 -0.2569
 5033TIP3    H236515   3.269   2.929  16.398  2.7442  2.3092  0.2867
 5034TIP3   OH236516   3.349   2.000  10.827 -0.5183 -0.3375 -0.1157
 5034TIP3    H136517   3.299   2.071  10.787  0.6796  0.3768 -0.4172
 5034TIP3    H236518   3.386   2.038  10.907  2.2691  0.3200 -1.5599
 5035TIP3   OH236519   0.629   1.912   0.003 -0.2600  0.0802 -0.2844
 5035TIP3    H136520   0.564   1.979  -0.018 -2.2975 -1.6214  0.1212
 5035TIP3    H236521   0.657   1.878  -0.082  1.1404  1.6930 -0.5093
 5036TIP3   OH236522   6.521   2.723  13.121  0.6318  0.0377  0.4811
 5036TIP3    H136523   6.499   2.631  13.128  2.3972 -0.3227  2.1253
 5036TIP3    H236524   6.462   2.757  13.054 -1.6699 -1.7411  1.4715
 5037TIP3   OH236525   0.277   0.448  12.873 -0.7858 -0.5758  0.0103
 5037TIP3    H136526   0.308   0.536  12.850  0.5600 -0.9397  0.3465
 5037TIP3    H236527   0.182   0.456  12.875 -0.6734  0.9857  0.4540
 5038TIP3   OH236528   5.726   1.712   4.271 -0.7249 -0.1944  0.3624
 5038TIP3    H136529   5.677   1.673   4.344  0.2088 -1.9618  0.0912
 5038TIP3    H236530   5.812   1.730   4.308 -0.2594 -1.0601 -0.2691
 5039TIP3   OH236531   4.694   6.589   4.413  0.2421 -0.1206  0.2924
 5039TIP3    H136532   4.707   6.495   4.410  0.4177 -0.0998  0.4128
 5039TIP3    H236533   4.740   6.618   4.492 -0.0031  0.0347  0.3831
 5040TIP3   OH236534   6.124   2.254  15.726  0.5941 -0.5525 -0.1556
 5040TIP3    H136535   6.156   2.344  15.720  1.7980 -0.9398  0.0206
 5040TIP3    H236536   6.115   2.237  15.820 -0.8923 -0.2142 -0.2179
 5041TIP3   OH236537   3.998   0.268  12.054  0.4804  0.2438  0.7729
 5041TIP3    H136538   3.969   0.268  11.963  1.4348  2.3929  0.3894
 5041TIP3    H236539   4.013   0.176  12.075 -3.3788 -0.7047  0.0131
 5042TIP3   OH236540   1.307   2.363   2.656 -0.3096  0.4935 -0.0483
 5042TIP3    H136541   1.227   2.404   2.690 -0.8021 -1.4242  1.3067
 5042TIP3    H236542   1.376   2.390   2.717 -0.0997  1.3483 -0.6482
 5043TIP3   OH236543   0.252   3.700   0.968 -0.0552  0.1262  0.5753
 5043TIP3    H136544   0.171   3.648   0.966  0.1529 -0.2172  0.9382
 5043TIP3    H236545   0.233   3.776   0.913 -0.7776  0.2731  1.0165
 5044TIP3   OH236546   5.958   3.872  16.297  0.0908 -0.6268 -0.0457
 5044TIP3    H136547   5.891   3.813  16.263  0.7379 -1.3566 -0.0877
 5044TIP3    H236548   5.952   3.864  16.392 -0.7652  0.3294 -0.0073
 5045TIP3   OH236549   0.885   1.147  11.520 -0.4553  0.4497 -0.2764
 5045TIP3    H136550   0.829   1.203  11.573 -0.1429  0.6176 -0.1252
 5045TIP3    H236551   0.963   1.133  11.573 -0.7474 -0.5686 -0.0861
 5046TIP3   OH236552   6.076   6.182  13.975 -0.3509  0.6095  0.1721
 5046TIP3    H136553   5.985   6.157  13.990  0.1494 -1.5086 -0.0797
 5046TIP3    H236554   6.116   6.107  13.932  1.3167  1.8442 -0.5716
 5047TIP3   OH236555   3.499   1.764  15.158  0.2071  0.2151  0.1875
 5047TIP3    H136556   3.571   1.823  15.175 -0.7783  1.5276 -0.0490
 5047TIP3    H236557   3.430   1.819  15.122 -0.9927 -0.9583  0.5795
 5048TIP3   OH236558   3.841   5.065  15.403  0.1689 -0.4026 -0.2623
 5048TIP3    H136559   3.856   5.158  15.385  0.3836 -0.2434  0.6625
 5048TIP3    H236560   3.919   5.021  15.370 -0.1655 -0.3221 -1.1796
 5049TIP3   OH236561   6.492   3.172  12.920 -0.2814 -0.1579 -0.1808
 5049TIP3    H136562   6.416   3.208  12.965  0.3865  1.7169 -0.4802
 5049TIP3    H236563   6.528   3.108  12.982  0.1095  1.7187  1.6653
 5050TIP3   OH236564   3.456   5.500  14.677 -0.1764  0.2355  0.3656
 5050TIP3    H136565   3.416   5.442  14.742 -0.7144 -0.7732 -0.7984
 5050TIP3    H236566   3.532   5.538  14.721  1.0555 -2.4712  0.7666
 5051TIP3   OH236567   0.707   5.191   2.409 -0.2345  0.1248  0.1164
 5051TIP3    H136568   0.703   5.115   2.350  0.5631  0.2444 -0.0929
 5051TIP3    H236569   0.705   5.267   2.351 -0.2450  0.2583  0.2901
 5052TIP3   OH236570   3.838   0.358  12.440  0.0660  0.1251 -0.1164
 5052TIP3    H136571   3.802   0.386  12.524 -0.8243  1.0685 -0.7833
 5052TIP3    H236572   3.929   0.387  12.442  0.0452  0.1533  0.5192
 5053TIP3   OH236573   1.642   3.203   0.603  0.0504 -0.2306 -0.2593
 5053TIP3    H136574   1.715   3.174   0.549  0.5296 -1.2455  0.8816
 5053TIP3    H236575   1.574   3.137   0.590 -0.9051  0.9874 -1.7230
 5054TIP3   OH236576   3.908   4.905   5.840 -0.0811  0.0125  0.5511
 5054TIP3    H136577   4.002   4.915   5.854 -0.2119  0.4588  1.1872
 5054TIP3    H236578   3.890   4.812   5.855  0.4280 -0.3122 -0.7252
 5055TIP3   OH236579   6.068   0.884   0.702 -0.1827 -0.0980 -0.6316
 5055TIP3    H136580   6.091   0.792   0.690  0.6276  0.2611 -2.1240
 5055TIP3    H236581   6.103   0.907   0.788  0.3733 -0.9707 -0.6107
 5056TIP3   OH236582   2.279   3.852   4.507  0.4298  0.1518 -0.0255
 5056TIP3    H136583   2.375   3.847   4.509  0.4963  1.2861  1.4416
 5056TIP3    H236584   2.253   3.833   4.598 -0.7243  0.1521 -0.3455
 5057TIP3   OH236585   0.705   4.209  12.775  0.6553 -0.2366  0.2269
 5057TIP3    H136586   0.697   4.134  12.715  0.1396 -1.6536  1.9934
 5057TIP3    H236587   0.645   4.274  12.739  0.6723 -0.8636 -1.0305
 5058TIP3   OH236588   6.572   4.972   4.601 -1.0667 -0.7759 -0.1541
 5058TIP3    H136589   6.568   5.068   4.596  1.4828 -0.6100 -0.5101
 5058TIP3    H236590   6.577   4.952   4.694  0.1540 -0.4010 -0.1211
 5059TIP3   OH236591   0.984   6.284   6.353 -0.1791 -0.2263  0.4525
 5059TIP3    H136592   1.038   6.206   6.356 -0.8386 -0.7386 -0.5467
 5059TIP3    H236593   1.041   6.352   6.317 -0.9387 -1.4666 -3.5298
 5060TIP3   OH236594   3.931   6.077   4.077  0.5951  0.1613 -0.5491
 5060TIP3    H136595   3.911   6.140   4.007 -1.3957 -1.2179 -1.3294
 5060TIP3    H236596   3.937   6.130   4.156 -2.3255  1.2601 -0.9509
 5061TIP3   OH236597   0.953   4.190  14.843 -0.2869  0.0790 -0.0702
 5061TIP3    H136598   0.919   4.271  14.879  1.1764  0.4659  0.5067
 5061TIP3    H236599   0.904   4.177  14.762 -1.4349  0.8449  0.4780
 5062TIP3   OH236600   1.134   4.903   5.412  0.1121 -0.4353 -0.1090
 5062TIP3    H136601   1.150   4.810   5.429 -2.2381 -0.7317  0.7294
 5062TIP3    H236602   1.039   4.911   5.409  0.2571  2.0169  0.1561
 5063TIP3   OH236603   0.419   5.475  14.139 -0.0056 -0.6677 -0.1243
 5063TIP3    H136604   0.364   5.553  14.142 -0.0685 -0.7093 -0.1844
 5063TIP3    H236605   0.469   5.483  14.057  1.7795  0.5173  1.0160
 5064TIP3   OH236606   5.369   3.410  13.867 -0.2766 -0.7190  0.0777
 5064TIP3    H136607   5.360   3.417  13.962  2.8878  1.3595  0.3844
 5064TIP3    H236608   5.455   3.369  13.854  0.7067  1.6383 -1.7635
 5065TIP3   OH236609   6.610   1.053   1.959 -0.1320  0.8743 -0.1852
 5065TIP3    H136610   6.659   0.971   1.958  1.4754  1.7833  0.6132
 5065TIP3    H236611   6.518   1.026   1.969  0.5180 -0.7898  2.2502
 5066TIP3   OH236612   3.659   6.178  11.894  0.7717 -0.2110 -0.0220
 5066TIP3    H136613   3.587   6.131  11.936  1.4409 -0.4887  0.8714
 5066TIP3    H236614   3.618   6.252  11.851  0.1304  0.8441  2.2237
 5067TIP3   OH236615   2.197   1.426   0.728  0.3350  0.0472 -0.1960
 5067TIP3    H136616   2.185   1.476   0.809  1.1259  1.9612 -1.1876
 5067TIP3    H236617   2.291   1.427   0.712  0.4911 -2.5743  0.1656
 5068TIP3   OH236618   1.260   5.917   1.742 -0.7936 -0.2295 -0.2927
 5068TIP3    H136619   1.204   5.850   1.702 -0.9177 -0.5982  0.4972
 5068TIP3    H236620   1.343   5.910   1.694 -1.7253  1.0735 -2.2402
 5069TIP3   OH236621   2.008   0.763  10.425 -0.2531 -0.5487  0.4897
 5069TIP3    H136622   1.924   0.778  10.382 -0.3721 -1.2776  0.4579
 5069TIP3    H236623   2.051   0.849  10.424 -0.6433 -0.3520 -0.2435
 5070TIP3   OH236624   0.891   2.507   2.856  0.1113  0.1884  0.0044
 5070TIP3    H136625   0.889   2.454   2.935  1.1704  0.9713  0.5838
 5070TIP3    H236626   0.841   2.586   2.879 -1.2837 -0.4315 -0.7816
 5071TIP3   OH236627   3.427   1.905  11.267 -0.1439  0.5901 -0.3765
 5071TIP3    H136628   3.431   1.837  11.334  0.2618 -0.2716 -1.2403
 5071TIP3    H236629   3.447   1.986  11.313  0.8427 -0.0802  0.4195
 5072TIP3   OH236630   4.470   3.333  13.570  0.3323 -0.4900 -0.3766
 5072TIP3    H136631   4.489   3.240  13.556  0.4044 -0.6095  0.4878
 5072TIP3    H236632   4.430   3.337  13.657 -1.8667  0.0013 -1.3469
 5073TIP3   OH236633   6.459   1.715  15.899 -0.1233 -0.4403 -0.1595
 5073TIP3    H136634   6.481   1.707  15.992 -1.0658 -0.5119  0.0629
 5073TIP3    H236635   6.385   1.775  15.898  1.8430  2.1630 -1.1356
 5074TIP3   OH236636   6.567   1.511   6.206  0.3789  0.0980  0.2455
 5074TIP3    H136637   6.614   1.445   6.257  0.9263 -0.9157 -1.4978
 5074TIP3    H236638   6.636   1.568   6.171 -0.0213  1.0433  0.9658
 5075TIP3   OH236639   5.839   0.638  16.586  0.1350 -0.1651 -0.7136
 5075TIP3    H136640   5.857   0.725  16.551 -1.3936 -0.0455 -1.3172
 5075TIP3    H236641   5.815   0.586  16.509  1.2988 -1.2022 -0.3919
 5076TIP3   OH236642   0.191   6.079   5.660  0.2195  0.1014 -0.5254
 5076TIP3    H136643   0.142   6.154   5.696  0.0195  0.1037 -0.7999
 5076TIP3    H236644   0.126   6.030   5.610 -0.3055 -1.6636  1.6960
 5077TIP3   OH236645   4.697   0.278   2.223 -0.3359  0.1213 -0.0579
 5077TIP3    H136646   4.699   0.278   2.319  1.4098 -0.0487 -0.0681
 5077TIP3    H236647   4.705   0.370   2.199  0.5080  0.0666 -0.0266
 5078TIP3   OH236648   1.440   5.681   3.415 -0.3139 -1.1688 -1.4871
 5078TIP3    H136649   1.350   5.649   3.422 -1.3523  1.5195 -1.6252
 5078TIP3    H236650   1.455   5.690   3.321 -1.0506  1.2453 -1.4250
 5079TIP3   OH236651   6.569   0.990   5.492 -0.3434 -0.1969  0.4533
 5079TIP3    H136652   6.559   0.956   5.403 -3.3540  2.9079 -0.6247
 5079TIP3    H236653   6.653   1.035   5.491  0.5485 -1.7974 -0.1586
 5080TIP3   OH236654   2.743   6.595  11.548 -0.1405 -0.9927  0.0910
 5080TIP3    H136655   2.742   6.608  11.453  0.0524  0.7315  0.2825
 5080TIP3    H236656   2.834   6.579  11.569  0.1718  0.6665  0.1712
 5081TIP3   OH236657   4.791   0.098   3.414 -0.3919  0.0355  0.5392
 5081TIP3    H136658   4.823   0.159   3.347 -3.3084  0.7984 -0.2698
 5081TIP3    H236659   4.744   0.031   3.364 -1.4302 -0.1402  1.7262
 5082TIP3   OH236660   4.337   6.140   2.878  0.1102  0.0966 -0.1460
 5082TIP3    H136661   4.404   6.208   2.873 -0.5283  0.8351  0.7800
 5082TIP3    H236662   4.270   6.167   2.816  0.0134  0.1305 -0.0273
 5083TIP3   OH236663   1.717   1.433  13.232  0.1086  0.4955  0.1833
 5083TIP3    H136664   1.653   1.381  13.184 -0.2208 -0.6668  1.7833
 5083TIP3    H236665   1.785   1.370  13.256  2.0604  1.7589 -1.7190
 5084TIP3   OH236666   6.295   3.890   4.261  0.5480 -0.4764 -0.4408
 5084TIP3    H136667   6.256   3.805   4.241  2.1707 -1.1135 -0.9913
 5084TIP3    H236668   6.220   3.949   4.267 -0.4964 -1.6134 -1.6846
 5085TIP3   OH236669   3.326   3.658   0.054 -0.0986  0.0980 -0.7304
 5085TIP3    H136670   3.307   3.590   0.118  0.4759  0.6486  0.0504
 5085TIP3    H236671   3.297   3.622  -0.030 -2.1410 -0.1185  0.0106
 5086TIP3   OH236672   2.604   4.202  13.316  0.0931  0.1774 -0.0180
 5086TIP3    H136673   2.669   4.236  13.255 -0.8864 -0.3431 -1.4166
 5086TIP3    H236674   2.624   4.109  13.323 -0.7843 -0.1084 -0.9093
 5087TIP3   OH236675   2.007   6.560  12.397 -0.0141 -0.7644 -0.4809
 5087TIP3    H136676   2.027   6.652  12.378  0.4527 -0.6201  0.6040
 5087TIP3    H236677   2.032   6.513  12.317  0.1363  0.0009 -0.8933
 5088TIP3   OH236678   0.848   3.616   3.154  0.3779  0.2332 -0.4146
 5088TIP3    H136679   0.843   3.711   3.162 -4.3480  0.1231  0.4778
 5088TIP3    H236680   0.802   3.596   3.073  0.3175 -1.3432 -0.0274
 5089TIP3   OH236681   4.895   6.393  16.612  0.2704  0.2973  0.5061
 5089TIP3    H136682   4.947   6.331  16.663 -0.4201 -0.0090  0.8528
 5089TIP3    H236683   4.804   6.364  16.625  0.0330  0.6701 -0.2886
 5090TIP3   OH236684   3.487   6.303   6.116 -0.1787  0.2028 -0.8803
 5090TIP3    H136685   3.468   6.300   6.210 -1.6719 -0.1158 -1.1725
 5090TIP3    H236686   3.437   6.378   6.084  2.3316  1.9323 -1.0431
 5091TIP3   OH236687   2.675   6.320   9.957 -0.3619  0.2708 -0.5731
 5091TIP3    H136688   2.754   6.286   9.916 -1.0177 -0.7147 -1.0480
 5091TIP3    H236689   2.703   6.402   9.999  1.6662 -1.5867  2.0331
 5092TIP3   OH236690   3.007   0.166   3.912  0.0514 -0.3621  0.3134
 5092TIP3    H136691   3.054   0.109   3.973  0.4387 -2.2686 -1.6187
 5092TIP3    H236692   3.067   0.238   3.894  1.3117 -1.5324 -0.3230
 5093TIP3   OH236693   5.932   0.771   2.021 -0.2758 -0.1524  0.5051
 5093TIP3    H136694   5.924   0.853   2.069  1.5317  0.2437  0.2249
 5093TIP3    H236695   6.017   0.735   2.049  0.1769 -0.5959 -1.2922
 5094TIP3   OH236696   3.644   1.900  14.547 -0.5424  0.5996  0.2890
 5094TIP3    H136697   3.701   1.942  14.611  0.4855 -1.2213  0.6675
 5094TIP3    H236698   3.685   1.918  14.462  0.9958 -1.1446  0.5994
 5095TIP3   OH236699   2.864   0.114   0.832 -0.0250  0.0094  0.4055
 5095TIP3    H136700   2.780   0.105   0.876  0.0877  0.2204  0.6656
 5095TIP3    H236701   2.912   0.178   0.884  0.0354  0.4172 -0.1378
 5096TIP3   OH236702   1.804   5.524   3.142 -0.7688  0.3660  0.0182
 5096TIP3    H136703   1.875   5.504   3.202 -0.4034  0.4480 -0.3786
 5096TIP3    H236704   1.728   5.479   3.178 -0.0284 -1.5927 -0.7279
 5097TIP3   OH236705   6.648   1.179  13.926 -0.2088  0.1400 -0.6315
 5097TIP3    H136706   6.699   1.099  13.941 -1.2583 -0.2512  1.1559
 5097TIP3    H236707   6.706   1.250  13.952 -0.4210 -0.2824  1.0842
 5098TIP3   OH236708   1.067   1.378  11.565 -0.4483 -0.1958 -0.0710
 5098TIP3    H136709   1.017   1.363  11.485 -0.0034 -0.7891 -0.2443
 5098TIP3    H236710   1.001   1.387  11.634 -0.8351  0.4017 -0.5115
 5099TIP3   OH236711   4.614   0.255   2.497 -0.2441  0.1377  0.4592
 5099TIP3    H136712   4.667   0.283   2.573 -0.3500 -0.5473  0.7909
 5099TIP3    H236713   4.523   0.265   2.527 -0.3151  1.0849 -0.0293
 5100TIP3   OH236714   2.068   3.786  16.341  0.3394  0.2267  0.6690
 5100TIP3    H136715   2.100   3.852  16.402  0.0331 -0.9558  2.1776
 5100TIP3    H236716   2.067   3.705  16.392  0.4022 -0.8911 -1.0257
 5101TIP3   OH236717   0.217   0.602   3.801 -0.0958 -0.7874 -0.0736
 5101TIP3    H136718   0.191   0.511   3.810 -0.7948 -0.5542  0.3793
 5101TIP3    H236719   0.148   0.641   3.746  0.1978 -0.5371 -0.2667
 5102TIP3   OH236720   3.109   6.065  14.191 -0.5137  0.2295  0.0519
 5102TIP3    H136721   3.122   6.062  14.286 -1.3574 -0.0672  0.1656
 5102TIP3    H236722   3.072   5.979  14.169 -0.5744  0.3931 -0.5014
 5103TIP3   OH236723   0.074   1.622   5.648  0.3500  0.2755  1.0190
 5103TIP3    H136724   0.106   1.595   5.734  1.7361 -1.1762  0.1047
 5103TIP3    H236725   0.008   1.556   5.626  0.6058  0.1511  0.6220
 5104TIP3   OH236726   3.795   4.513  16.440  0.1750  0.6371  0.3674
 5104TIP3    H136727   3.794   4.450  16.368  2.8187 -0.6511  1.3333
 5104TIP3    H236728   3.736   4.583  16.412 -0.9402 -1.0602 -1.8444
 5105TIP3   OH236729   4.436   2.599  11.826 -0.3446 -0.6681  0.1361
 5105TIP3    H136730   4.388   2.519  11.848  0.6670 -1.2674  0.1992
 5105TIP3    H236731   4.522   2.587  11.865  0.1996 -0.0368 -0.8314
 5106TIP3   OH236732   1.757   5.610  16.303  0.0105 -0.2062  0.1678
 5106TIP3    H136733   1.806   5.690  16.282  1.9803 -1.2695  0.5022
 5106TIP3    H236734   1.703   5.595  16.226  0.1308  1.0516 -0.1932
 5107TIP3   OH236735   3.135   5.805  12.811 -0.3662  0.0438 -0.3869
 5107TIP3    H136736   3.128   5.861  12.734 -0.1165  0.3792 -0.1654
 5107TIP3    H236737   3.071   5.841  12.873 -0.7388 -0.3694 -0.5214
 5108TIP3   OH236738   4.399   3.847  13.072  0.2673 -0.6460 -0.1710
 5108TIP3    H136739   4.470   3.893  13.027  0.6390 -0.5690  0.4859
 5108TIP3    H236740   4.405   3.757  13.040  0.2814 -0.5053 -0.5699
 5109TIP3   OH236741   0.047   4.865   5.791 -0.7737  0.4989  0.2532
 5109TIP3    H136742   0.111   4.808   5.834 -1.3578  0.0254  0.5181
 5109TIP3    H236743   0.097   4.942   5.765 -0.3561  0.7027  1.5844
 5110TIP3   OH236744   6.519   6.586  16.043  0.5275 -0.2983  0.1580
 5110TIP3    H136745   6.561   6.660  15.998  1.8918 -0.5156  0.9978
 5110TIP3    H236746   6.484   6.532  15.973 -0.1381  0.9249 -0.4935
 5111TIP3   OH236747   3.625   2.167   3.806 -0.1185 -0.0442 -0.7897
 5111TIP3    H136748   3.711   2.179   3.848  0.7438 -1.6830 -1.9703
 5111TIP3    H236749   3.570   2.132   3.876  0.2435  0.7335 -0.0910
 5112TIP3   OH236750   6.388   1.754   1.179 -0.3853 -0.7424 -0.0411
 5112TIP3    H136751   6.356   1.665   1.195 -1.5783  0.0120  2.1551
 5112TIP3    H236752   6.324   1.811   1.222  1.9268  1.0275  1.3307
 5113TIP3   OH236753   5.702   6.055   2.399 -0.6979  0.1447  0.7165
 5113TIP3    H136754   5.755   6.092   2.470  0.3472 -0.6730  0.3869
 5113TIP3    H236755   5.691   6.127   2.337  2.8826 -0.4409 -0.8313
 5114TIP3   OH236756   4.606   3.756  16.669 -0.1429 -0.8778  0.1640
 5114TIP3    H136757   4.522   3.768  16.626  1.0326 -0.5046 -2.2169
 5114TIP3    H236758   4.671   3.777  16.602  1.8728 -0.7806  2.0015
 5115TIP3   OH236759   0.185   6.391  14.912 -0.0070  0.2071 -0.3459
 5115TIP3    H136760   0.192   6.486  14.910 -0.2518  0.2234 -0.4685
 5115TIP3    H236761   0.111   6.373  14.971 -0.4737  0.1216 -0.9445
 5116TIP3   OH236762   5.217   5.035  10.897 -0.5526 -0.7452  0.0149
 5116TIP3    H136763   5.289   5.075  10.947 -0.0197  0.0972 -1.3632
 5116TIP3    H236764   5.138   5.071  10.937 -0.1797 -0.8320  0.8562
 5117TIP3   OH236765   2.755   6.041  15.559  0.1524  0.4703 -0.8100
 5117TIP3    H136766   2.844   6.009  15.543 -0.4649 -1.6476 -0.3312
 5117TIP3    H236767   2.701   5.994  15.495 -0.7088  1.2579 -0.6772
 5118TIP3   OH236768   2.028   1.846  11.043  0.5691 -0.4261 -0.0236
 5118TIP3    H136769   2.041   1.812  10.955  2.3654 -0.2464  0.1242
 5118TIP3    H236770   2.100   1.808  11.094  0.5906  0.8460  0.9407
 5119TIP3   OH236771   1.572   5.123  11.006  0.7229  0.4846 -0.3370
 5119TIP3    H136772   1.613   5.205  11.033  2.1405 -0.3815  0.2733
 5119TIP3    H236773   1.510   5.149  10.938  1.1980  2.0461 -0.2228
 5120TIP3   OH236774   3.258   4.485  14.491 -0.4997  0.3475  0.6542
 5120TIP3    H136775   3.252   4.402  14.443 -0.3332  1.1948 -0.8850
 5120TIP3    H236776   3.336   4.527  14.455  0.2252  0.5897  2.4110
 5121TIP3   OH236777   4.165   1.842   2.879 -0.7157  0.2866  0.1689
 5121TIP3    H136778   4.097   1.799   2.827  0.4080  0.2412 -1.3133
 5121TIP3    H236779   4.151   1.936   2.865  1.8700  0.3195 -3.4902
 5122TIP3   OH236780   3.150   3.684  12.012  0.0741 -0.3970  0.3467
 5122TIP3    H136781   3.203   3.608  11.986  0.2667 -0.3672  0.6427
 5122TIP3    H236782   3.214   3.754  12.024 -0.1359 -0.0981 -0.2298
 5123TIP3   OH236783   5.461   1.846  15.383 -0.0920 -0.1777 -0.0366
 5123TIP3    H136784   5.444   1.766  15.433  1.9072 -1.2750 -0.9775
 5123TIP3    H236785   5.491   1.909  15.448 -0.3174 -0.6431  0.5304
 5124TIP3   OH236786   2.666   1.421  13.502  0.5294  0.3978  0.0138
 5124TIP3    H136787   2.729   1.470  13.556  1.5197 -0.4492 -0.3451
 5124TIP3    H236788   2.581   1.441  13.542  1.3892 -3.1336  4.4650
 5125TIP3   OH236789   1.967   0.812  14.438 -0.2038 -0.1424 -0.0112
 5125TIP3    H136790   2.023   0.748  14.481 -0.1948  0.8756  1.5932
 5125TIP3    H236791   1.888   0.815  14.493 -0.0229  1.5030  0.2106
 5126TIP3   OH236792   2.142   2.210   5.469 -0.4464 -0.3000  0.5096
 5126TIP3    H136793   2.189   2.254   5.540 -0.5343 -0.9651  0.9801
 5126TIP3    H236794   2.142   2.275   5.398 -0.9557  0.6314  1.3344
 5127TIP3   OH236795   5.964   0.715   3.924 -0.0800  0.0474 -0.4449
 5127TIP3    H136796   5.870   0.722   3.908 -0.3843 -3.2819 -0.7829
 5127TIP3    H236797   5.971   0.691   4.017  0.4178  0.0847 -0.4691
 5128TIP3   OH236798   4.737   0.155   0.266  0.2592  0.5211 -0.3677
 5128TIP3    H136799   4.815   0.149   0.211  0.3913  2.9847 -0.5672
 5128TIP3    H236800   4.765   0.207   0.341 -0.9735  0.7337 -0.0400
 5129TIP3   OH236801   0.775   4.391  11.933  0.1330 -0.0845 -0.0645
 5129TIP3    H136802   0.847   4.347  11.979 -0.7757 -1.9887 -0.3351
 5129TIP3    H236803   0.802   4.482  11.927  0.3496  0.3055  4.1516
 5130TIP3   OH236804   4.916   1.013   3.110 -0.0770  0.0388 -0.3296
 5130TIP3    H136805   4.866   1.081   3.156 -0.8157 -0.4723 -0.3634
 5130TIP3    H236806   4.891   0.931   3.153  1.0138 -0.1985 -0.1085
 5131TIP3   OH236807   4.136   0.991  15.128  0.2752  0.4233  0.8468
 5131TIP3    H136808   4.071   0.998  15.197  0.2866 -0.1260  0.9203
 5131TIP3    H236809   4.153   0.897  15.120  0.8894  0.5419  0.6707
 5132TIP3   OH236810   5.193   4.857   0.206  0.1916  0.1161  0.1271
 5132TIP3    H136811   5.273   4.810   0.181 -0.3213 -0.5578 -0.2851
 5132TIP3    H236812   5.208   4.883   0.297  1.5135  1.3449 -0.3936
 5133TIP3   OH236813   5.346   4.911   2.607 -0.5088  0.2321  0.4512
 5133TIP3    H136814   5.396   4.973   2.553 -0.9172 -2.5261 -3.6063
 5133TIP3    H236815   5.413   4.863   2.656  0.2735  0.5657 -0.2557
 5134TIP3   OH236816   6.023   0.464   6.038  0.0510  0.5739 -0.1125
 5134TIP3    H136817   6.007   0.515   5.958  1.1968  1.4968  0.2234
 5134TIP3    H236818   5.984   0.516   6.108  0.8626  0.7991  0.1824
 5135TIP3   OH236819   3.455   4.102  11.736 -0.3280  0.0151  0.7637
 5135TIP3    H136820   3.410   4.027  11.697 -0.9838  0.4325  0.6948
 5135TIP3    H236821   3.386   4.150  11.781  0.0284  0.7498  0.5331
 5136TIP3   OH236822   1.577   1.085  16.220 -0.8307 -0.2995  0.1748
 5136TIP3    H136823   1.526   1.068  16.299  1.1820 -0.1694  1.5675
 5136TIP3    H236824   1.566   1.178  16.204 -0.8864 -0.2346  0.5776
 5137TIP3   OH236825   3.848   0.401   2.848  0.7377  0.2846  0.0597
 5137TIP3    H136826   3.854   0.460   2.773  2.4489 -0.9507 -0.8490
 5137TIP3    H236827   3.765   0.423   2.890 -1.5220 -0.5266 -3.5523
 5138TIP3   OH236828   2.769   4.702   0.996  0.3583  0.5222  0.2728
 5138TIP3    H136829   2.785   4.674   1.086  1.2317  0.7277  0.1904
 5138TIP3    H236830   2.796   4.627   0.943 -1.2363 -0.0386  0.2157
 5139TIP3   OH236831   4.617   0.957  16.276  0.2212  0.3361 -0.1139
 5139TIP3    H136832   4.560   0.890  16.239 -0.0614  0.3843  0.2287
 5139TIP3    H236833   4.644   0.921  16.361 -1.4881  1.4812  0.9572
 5140TIP3   OH236834   6.408   2.583  12.100  0.6679  0.4199 -0.9535
 5140TIP3    H136835   6.424   2.671  12.066  0.8694  0.1833 -1.4902
 5140TIP3    H236836   6.379   2.597  12.190 -0.2835  1.0845 -1.3528
 5141TIP3   OH236837   6.349   1.272  11.859  0.6306  0.2968 -0.2042
 5141TIP3    H136838   6.358   1.186  11.818  0.7928  0.2145  0.0032
 5141TIP3    H236839   6.261   1.301  11.835 -0.2097 -0.8074  1.4036
 5142TIP3   OH236840   2.171   4.125  14.003  0.2238 -0.3414  0.0633
 5142TIP3    H136841   2.100   4.178  13.966  1.2441  0.0982 -1.3485
 5142TIP3    H236842   2.139   4.035  13.998 -0.2264 -0.1496 -0.5769
 5143TIP3   OH236843   5.139   1.389   0.005 -0.1988  0.7738  0.0161
 5143TIP3    H136844   5.192   1.455  -0.038  0.9764  0.6381  1.1806
 5143TIP3    H236845   5.200   1.318   0.025 -1.1180 -0.0091  0.1422
 5144TIP3   OH236846   5.283   0.667  14.137 -0.0732  0.2084 -0.4864
 5144TIP3    H136847   5.206   0.624  14.099 -0.3016  0.6038 -0.4804
 5144TIP3    H236848   5.275   0.758  14.109  0.4350  0.2379 -0.5479
 5145TIP3   OH236849   6.134   5.670   3.511  0.2624  0.0154  0.2754
 5145TIP3    H136850   6.165   5.731   3.578  0.0947  1.3451 -0.8135
 5145TIP3    H236851   6.144   5.583   3.550  0.9906  0.7094  1.6734
 5146TIP3   OH236852   2.254   2.889  11.605 -0.0771 -0.0620 -0.3727
 5146TIP3    H136853   2.190   2.882  11.675  0.5702 -1.0040  0.1505
 5146TIP3    H236854   2.219   2.956  11.546 -1.0001  0.1934  0.4518
 5147TIP3   OH236855   4.634   6.763   3.237 -0.5804  0.0328  0.1616
 5147TIP3    H136856   4.607   6.674   3.261  1.4722 -0.5997  0.3236
 5147TIP3    H236857   4.628   6.765   3.142 -2.6875  0.4766  0.2521
 5148TIP3   OH236858   5.901   3.592  12.560  0.6725  0.0894 -0.0963
 5148TIP3    H136859   5.934   3.635  12.639  0.5349 -0.4349  0.2523
 5148TIP3    H236860   5.952   3.511  12.555  0.4997  0.0011 -0.4072
 5149TIP3   OH236861   1.867   3.211   2.729  0.4143  0.3861  0.4514
 5149TIP3    H136862   1.889   3.123   2.698  0.1550  0.9537 -1.4277
 5149TIP3    H236863   1.807   3.196   2.802  0.3511 -1.0030  0.1366
 5150TIP3   OH236864   5.875   2.650   0.353  0.2513  0.0712 -0.2430
 5150TIP3    H136865   5.811   2.608   0.411 -0.1218 -1.6169 -1.7784
 5150TIP3    H236866   5.958   2.642   0.400 -0.4527  1.4560  1.3606
 5151TIP3   OH236867   4.212   2.870   1.656  0.0676  0.1871 -0.1680
 5151TIP3    H136868   4.254   2.793   1.617 -1.4830  0.5718 -2.8479
 5151TIP3    H236869   4.261   2.944   1.622 -0.2307  0.4941  0.0654
 5152TIP3   OH236870   3.726   3.640   0.174 -0.1263 -0.0748  0.4005
 5152TIP3    H136871   3.820   3.626   0.160  0.5334  2.9744  0.9490
 5152TIP3    H236872   3.688   3.642   0.087  0.4857 -0.4598  0.1223
 5153TIP3   OH236873   6.290   5.033  11.529  0.1964 -0.6455 -0.0091
 5153TIP3    H136874   6.199   5.062  11.525  0.4378  0.3777  1.2439
 5153TIP3    H236875   6.293   4.973  11.604  0.7729  0.2557  0.7092
 5154TIP3   OH236876   2.038   6.738   6.150 -0.4540 -0.0885  0.1501
 5154TIP3    H136877   2.046   6.829   6.121  0.8186  0.0617  0.8917
 5154TIP3    H236878   1.950   6.733   6.187 -0.5632  0.8253  0.0482
 5155TIP3   OH236879   0.150   1.459   1.979  0.0746  0.4837  0.7078
 5155TIP3    H136880   0.125   1.465   2.071  0.0468  0.7416  0.6822
 5155TIP3    H236881   0.128   1.369   1.955  0.6920  0.2172  1.1331
 5156TIP3   OH236882   4.107   0.678  13.668 -0.1873 -0.6299  0.1401
 5156TIP3    H136883   4.082   0.765  13.701 -0.8381 -1.0208  0.6951
 5156TIP3    H236884   4.198   0.688  13.642 -0.3851  0.3490 -0.2310
 5157TIP3   OH236885   2.698   0.555   5.685 -0.2600 -0.6300 -0.1837
 5157TIP3    H136886   2.630   0.506   5.731  0.4689 -1.4476  0.0503
 5157TIP3    H236887   2.779   0.530   5.729  0.1667  0.5869 -0.2302
 5158TIP3   OH236888   1.529   4.631  14.864 -0.4452 -0.2301  0.6352
 5158TIP3    H136889   1.473   4.559  14.837  1.0675 -1.0871 -0.3738
 5158TIP3    H236890   1.575   4.599  14.941  0.2043 -0.3422  0.2058
 5159TIP3   OH236891   5.940   0.784  12.685 -0.1487  0.1451  0.5406
 5159TIP3    H136892   5.859   0.822  12.650 -0.3088  0.2622  1.0355
 5159TIP3    H236893   5.926   0.689  12.679 -0.9800  0.1426  2.0840
 5160TIP3   OH236894   0.794   4.519  16.269  0.8379  0.1412 -0.4407
 5160TIP3    H136895   0.860   4.513  16.200  0.2021  1.6789 -1.2294
 5160TIP3    H236896   0.741   4.440  16.258  1.9811 -0.6642 -0.3613
 5161TIP3   OH236897   2.435   5.393  15.798 -0.0392  0.8644  0.6202
 5161TIP3    H136898   2.528   5.376  15.815 -0.3448  0.6372  2.1235
 5161TIP3    H236899   2.433   5.486  15.773  0.7604  0.4999 -0.9774
 5162TIP3   OH236900   1.314   4.728  11.748 -0.0223  0.6168  0.1444
 5162TIP3    H136901   1.334   4.791  11.679  0.2521 -1.1222 -1.4538
 5162TIP3    H236902   1.259   4.776  11.809  0.8410  2.6235 -0.5576
 5163TIP3   OH236903   4.283   3.149   1.693  0.4074  0.1574  0.3244
 5163TIP3    H136904   4.298   3.124   1.784  0.5647  1.2272  0.6092
 5163TIP3    H236905   4.209   3.210   1.697 -0.5589 -0.9174 -0.4491
 5164TIP3   OH236906   3.551   4.539  16.796  0.1293 -0.0835  0.1194
 5164TIP3    H136907   3.520   4.536  16.706  1.5929  0.5579 -0.4484
 5164TIP3    H236908   3.484   4.494  16.847 -1.1865  0.3909 -1.1444
 5165TIP3   OH236909   5.472   5.506  12.927  0.0446  0.5331  0.0372
 5165TIP3    H136910   5.531   5.433  12.947 -0.5634  0.0531  0.1205
 5165TIP3    H236911   5.397   5.492  12.984 -0.9172  0.1592 -1.2547
 5166TIP3   OH236912   2.505   4.588   2.331  0.0149  0.0674 -0.4336
 5166TIP3    H136913   2.417   4.573   2.296 -0.0081  0.6277 -0.6142
 5166TIP3    H236914   2.513   4.683   2.340  0.3430 -0.0122  0.2573
 5167TIP3   OH236915   6.642   1.071  13.193  0.2310  0.9854 -0.2930
 5167TIP3    H136916   6.678   1.149  13.149 -0.3755  0.9618 -0.8482
 5167TIP3    H236917   6.698   0.999  13.163 -0.3868  0.9172 -1.3181
 5168TIP3   OH236918   0.218   5.494  11.971 -0.8224 -0.8722  0.0062
 5168TIP3    H136919   0.150   5.428  11.987 -2.9736  1.4961  1.3472
 5168TIP3    H236920   0.270   5.494  12.052 -0.4882 -1.2476 -0.2031
 5169TIP3   OH236921   5.208   3.433   3.838 -0.3822  0.3660 -0.5803
 5169TIP3    H136922   5.256   3.501   3.792 -0.5562  0.7578 -0.1863
 5169TIP3    H236923   5.250   3.351   3.810  1.3198  0.7537  0.6520
 5170TIP3   OH236924   4.243   2.099  15.986 -0.0730  0.3520 -0.2502
 5170TIP3    H136925   4.301   2.161  16.032 -1.2747  0.9680  0.4802
 5170TIP3    H236926   4.283   2.014  16.002 -0.3979  0.5563  1.9205
 5171TIP3   OH236927   3.412   5.031  12.253  0.1199  0.1962  0.2173
 5171TIP3    H136928   3.448   5.003  12.337  0.5999 -1.2419 -0.4502
 5171TIP3    H236929   3.338   4.972  12.238  0.3701  0.0918 -0.6259
 5172TIP3   OH236930   0.554   3.680   3.554  0.2448 -0.5576  0.0949
 5172TIP3    H136931   0.643   3.690   3.589 -0.8422  1.6097  2.6616
 5172TIP3    H236932   0.559   3.715   3.465  1.7916  0.4014  0.5097
 5173TIP3   OH236933   5.839   5.997  13.788  0.0521  0.4995  0.7032
 5173TIP3    H136934   5.893   6.034  13.857  1.4538 -1.2204  0.5816
 5173TIP3    H236935   5.749   6.019  13.813  0.5986  0.7761  2.5354
 5174TIP3   OH236936   3.609   0.931   2.856 -0.3862  0.1386 -0.3766
 5174TIP3    H136937   3.653   0.848   2.874 -1.0134  0.1060  1.1892
 5174TIP3    H236938   3.639   0.990   2.924 -0.0797  1.1681 -1.3756
 5175TIP3   OH236939   0.922   0.961  13.179 -0.2001  0.0372  1.0245
 5175TIP3    H136940   0.910   0.882  13.126  0.3721 -1.0387  2.4242
 5175TIP3    H236941   0.965   1.023  13.120 -0.5029 -0.7470 -0.0624
 5176TIP3   OH236942   3.396   1.549  15.270 -0.2344  0.2577  0.1461
 5176TIP3    H136943   3.441   1.631  15.253  1.2590 -0.2634  1.3322
 5176TIP3    H236944   3.465   1.483  15.272 -1.2631 -0.8614  0.3208
 5177TIP3   OH236945   2.281   1.933   4.866  0.3453  0.1430 -0.6969
 5177TIP3    H136946   2.196   1.928   4.910 -0.1601  0.7000 -1.5984
 5177TIP3    H236947   2.260   1.927   4.773  1.3510 -0.3530 -0.8978
 5178TIP3   OH236948   0.996   0.375   5.536 -0.2805 -0.3397  0.1727
 5178TIP3    H136949   0.930   0.436   5.503  0.3635  0.6969  0.7722
 5178TIP3    H236950   0.997   0.304   5.471 -0.1574  0.8720 -1.2004
 5179TIP3   OH236951   0.324   1.111  13.767 -0.2180 -0.0738  0.4863
 5179TIP3    H136952   0.347   1.084  13.678  0.7046  0.6961  0.4805
 5179TIP3    H236953   0.243   1.160  13.758  0.7960  1.5643 -0.2041
 5180TIP3   OH236954   4.286   1.630   1.458 -0.8314  0.2151  0.0009
 5180TIP3    H136955   4.378   1.656   1.461 -0.8550  0.4133 -0.7682
 5180TIP3    H236956   4.244   1.681   1.528 -0.7235  1.6491 -0.9380
 5181TIP3   OH236957   3.996   1.155  16.120  0.0515 -0.3586  0.4260
 5181TIP3    H136958   4.053   1.111  16.057  0.8460  1.3572 -0.1371
 5181TIP3    H236959   4.042   1.147  16.204  0.5456  0.0065  0.1923
 5182TIP3   OH236960   4.963   1.186   5.858  0.3431 -0.0889 -0.3509
 5182TIP3    H136961   4.959   1.150   5.947 -2.1678  1.2188  0.1748
 5182TIP3    H236962   4.996   1.275   5.869 -0.6674  0.3341 -0.5802
 5183TIP3   OH236963   2.697   6.055   4.747 -0.1037  0.0749  0.4806
 5183TIP3    H136964   2.782   6.100   4.741 -0.1895 -0.0133 -3.0063
 5183TIP3    H236965   2.717   5.963   4.727 -1.0798  0.1588 -0.9664
 5184TIP3   OH236966   1.111   3.587  15.858  0.2351 -0.1371  0.5900
 5184TIP3    H136967   1.102   3.669  15.811  3.1735 -0.5896 -0.9580
 5184TIP3    H236968   1.105   3.519  15.791 -0.1536 -1.1052  1.5548
 5185TIP3   OH236969   1.313   6.253   1.783  0.3528 -0.2230  0.1021
 5185TIP3    H136970   1.273   6.225   1.865 -0.6225  0.2661 -0.1904
 5185TIP3    H236971   1.405   6.271   1.805 -0.1218  0.8468  1.3030
 5186TIP3   OH236972   6.564   4.799  14.424  0.3518  0.0465 -0.5990
 5186TIP3    H136973   6.647   4.827  14.462  0.4487 -1.6732  0.5830
 5186TIP3    H236974   6.573   4.704  14.416 -0.9028  0.0257 -1.9677
 5187TIP3   OH236975   5.978   5.799   5.040  0.0895 -0.7497  0.1789
 5187TIP3    H136976   6.015   5.837   4.960  0.5074 -2.0429 -0.2699
 5187TIP3    H236977   5.929   5.870   5.080  1.1635  0.3556 -0.4170
 5188TIP3   OH236978   4.994   6.046  16.862  0.1189 -0.0903  0.4179
 5188TIP3    H136979   4.931   5.994  16.812  0.3428  1.3855 -1.5078
 5188TIP3    H236980   5.059   6.073  16.798  2.2515 -0.7862  2.1821
 5189TIP3   OH236981   5.883   1.836   2.018 -0.2778 -0.3680  0.4871
 5189TIP3    H136982   5.946   1.883   1.963  0.0945 -1.0565  0.3134
 5189TIP3    H236983   5.842   1.773   1.958  0.4117 -1.3974  1.0637
 5190TIP3   OH236984   3.298   4.320  15.408 -0.2464  0.0986 -0.6242
 5190TIP3    H136985   3.211   4.324  15.448 -0.1636 -0.6766 -0.3418
 5190TIP3    H236986   3.331   4.409  15.412 -1.3848  0.5930 -1.5516
 5191TIP3   OH236987   4.264   5.552  12.157  0.2605 -0.6233  0.1046
 5191TIP3    H136988   4.213   5.603  12.219 -0.3792  1.2789 -1.8393
 5191TIP3    H236989   4.348   5.537  12.200  0.2677  1.6538  1.0011
 5192TIP3   OH236990   1.760   4.072   3.332 -0.3185  0.2565 -0.5336
 5192TIP3    H136991   1.812   4.152   3.322 -1.1697  0.8849 -0.1691
 5192TIP3    H236992   1.732   4.051   3.243  2.9181 -1.8058 -1.2089
 5193TIP3   OH236993   2.518   4.299  16.980  0.5196  0.7719  0.0907
 5193TIP3    H136994   2.451   4.367  16.967  2.2229  2.7524  1.2062
 5193TIP3    H236995   2.554   4.285  16.892 -0.7375  0.2863 -0.3787
 5194TIP3   OH236996   3.964   6.767   0.009 -0.4553  0.3140  0.4356
 5194TIP3    H136997   4.026   6.805  -0.053 -1.2397  3.6790  1.4879
 5194TIP3    H236998   3.933   6.688  -0.034  0.7677  1.2202 -2.3916
 5195TIP3   OH236999   1.697   5.850  11.853 -0.0128 -0.5675  0.2892
 5195TIP3    H137000   1.778   5.844  11.803  0.2180 -1.6087  0.7645
 5195TIP3    H237001   1.725   5.873  11.941 -0.4616  1.8547 -0.1502
 5196TIP3   OH237002   4.707   2.803  11.055  0.5882  0.2201  0.3005
 5196TIP3    H137003   4.622   2.784  11.016 -0.7357  0.5001  2.8590
 5196TIP3    H237004   4.720   2.897  11.042  0.2647  0.2736  0.3796
 5197TIP3   OH237005   3.514   3.436   1.396  0.1908  0.2146  0.0904
 5197TIP3    H137006   3.425   3.462   1.420  0.4310  0.1524  1.0964
 5197TIP3    H237007   3.571   3.498   1.442  0.7108 -0.7427  0.7870
 5198TIP3   OH237008   5.001   0.658   2.618  0.1551  0.3000  0.9633
 5198TIP3    H137009   5.084   0.659   2.667  1.0116 -2.2493 -0.2860
 5198TIP3    H237010   4.934   0.659   2.686  1.2503  0.1872  2.0885
 5199TIP3   OH237011   2.117   0.940  16.880 -0.3453 -0.2562  0.4216
 5199TIP3    H137012   2.064   0.941  16.960 -2.2877  0.5198 -0.7968
 5199TIP3    H237013   2.132   0.848  16.862 -2.1722 -0.5719  0.2966
 5200TIP3   OH237014   1.841   5.012  14.328 -0.7107  0.3185 -0.7466
 5200TIP3    H137015   1.904   5.063  14.278 -1.4341  2.5552  0.4717
 5200TIP3    H237016   1.769   4.997  14.267  0.0526 -0.4138 -1.4997
 5201TIP3   OH237017   3.632   1.154  10.666 -0.6615  0.5779 -0.4955
 5201TIP3    H137018   3.548   1.193  10.689  0.5918  4.6111 -1.9564
 5201TIP3    H237019   3.619   1.119  10.578 -0.9107  0.8088 -0.5507
 5202TIP3   OH237020   2.441   4.369  14.114  0.4011 -0.0440 -0.1087
 5202TIP3    H137021   2.402   4.424  14.047  0.3975  1.3027  0.9424
 5202TIP3    H237022   2.449   4.283  14.074 -0.6701  0.4418 -1.4166
 5203TIP3   OH237023   4.653   5.263   4.372  0.0957  0.1602  0.3522
 5203TIP3    H137024   4.654   5.331   4.440  1.0444 -0.0577  0.5630
 5203TIP3    H237025   4.569   5.217   4.386  0.7717 -0.6424  2.1580
 5204TIP3   OH237026   0.447   2.660  11.409 -0.2071 -0.4276 -0.4436
 5204TIP3    H137027   0.454   2.755  11.417 -1.4246 -0.2479 -1.1965
 5204TIP3    H237028   0.533   2.632  11.378  0.4936  0.2867  0.7823
 5205TIP3   OH237029   0.302   5.998   4.405 -0.1236  0.5574 -0.7161
 5205TIP3    H137030   0.295   5.909   4.372 -0.4543 -1.2193  3.5597
 5205TIP3    H237031   0.214   6.034   4.396 -0.8003 -0.7589  0.3770
 5206TIP3   OH237032   0.631   1.147  13.358  0.6014  0.5002 -0.1101
 5206TIP3    H137033   0.613   1.054  13.347 -1.6002  0.6946  1.1241
 5206TIP3    H237034   0.637   1.181  13.268  0.7771 -0.7028 -0.5735
 5207TIP3   OH237035   5.848   5.625   4.623  0.1043  0.3073 -0.4921
 5207TIP3    H137036   5.832   5.699   4.564  2.3019 -0.1982 -1.8383
 5207TIP3    H237037   5.869   5.552   4.565  1.5009 -0.4221  0.8584
 5208TIP3   OH237038   0.028   4.188  14.515 -0.8140 -0.4518  0.6848
 5208TIP3    H137039   0.015   4.220  14.426 -2.2750  1.2808  1.4754
 5208TIP3    H237040   0.109   4.230  14.543  0.0318 -1.5436 -0.0129
 5209TIP3   OH237041   5.317   5.705   0.857  0.2299 -0.4588 -0.5192
 5209TIP3    H137042   5.251   5.769   0.833 -1.1021 -1.6426 -0.1104
 5209TIP3    H237043   5.317   5.704   0.952  1.2913 -0.0362 -0.4981
 5210TIP3   OH237044   3.335   1.839  15.752 -0.4185 -0.4153 -0.1402
 5210TIP3    H137045   3.325   1.931  15.776  0.5265  0.2022 -1.8817
 5210TIP3    H237046   3.248   1.801  15.766 -1.0160  0.9135 -0.0582
 5211TIP3   OH237047   6.462   2.458  13.147  0.0211 -0.1870 -0.0329
 5211TIP3    H137048   6.499   2.425  13.229  0.4493 -1.3206 -0.6505
 5211TIP3    H237049   6.379   2.411  13.137  0.7915 -1.3840 -1.0859
 5212TIP3   OH237050   3.765   5.417  12.520 -0.0101  0.8769  0.0656
 5212TIP3    H137051   3.749   5.328  12.488 -0.1892  0.4805  1.2142
 5212TIP3    H237052   3.857   5.434  12.498 -0.5002  1.1779 -1.9116
 5213TIP3   OH237053   5.509   5.053   0.785  0.4423 -0.0483 -0.1822
 5213TIP3    H137054   5.463   5.113   0.727 -0.4102  0.0812  0.6154
 5213TIP3    H237055   5.602   5.069   0.767  0.3237  2.6503  1.0681
 5214TIP3   OH237056   2.481   1.100  13.503 -0.2890  0.3791  0.2476
 5214TIP3    H137057   2.428   1.162  13.553 -0.1116  3.1024 -2.6314
 5214TIP3    H237058   2.567   1.104  13.545 -1.2745 -1.2210  2.6356
 5215TIP3   OH237059   0.066   5.761  15.079 -0.4359  0.5868  0.0239
 5215TIP3    H137060   0.136   5.735  15.139  0.3700  0.6491 -0.8740
 5215TIP3    H237061  -0.005   5.699  15.097  0.8039 -1.1639 -0.8405
 5216TIP3   OH237062   4.421   1.104   0.897  0.0674 -0.2460  0.5417
 5216TIP3    H137063   4.412   1.042   0.969  2.4469 -1.5567 -0.1945
 5216TIP3    H237064   4.483   1.170   0.929  2.0043 -1.4304 -0.5759
 5217TIP3   OH237065   3.970   2.793   5.018  0.0975 -0.0843 -0.0429
 5217TIP3    H137066   4.064   2.809   5.006  0.0799  0.3894  0.3956
 5217TIP3    H237067   3.950   2.833   5.102  0.0175 -2.4351  1.1209
 5218TIP3   OH237068   6.485   3.510   4.556  0.1571 -0.5692  0.4823
 5218TIP3    H137069   6.404   3.496   4.507 -0.3025 -1.5337  1.4844
 5218TIP3    H237070   6.499   3.605   4.551 -0.9608 -0.4041  0.1897
 5219TIP3   OH237071   3.499   2.111  13.794 -0.1873 -0.0427  0.3695
 5219TIP3    H137072   3.536   2.105  13.882 -0.6463  2.6133  0.8317
 5219TIP3    H237073   3.574   2.125  13.737  0.1576 -2.2112  0.2085
 5220TIP3   OH237074   6.577   1.831   1.990  0.2237 -0.6548  0.1170
 5220TIP3    H137075   6.564   1.861   2.080  0.1016 -0.2306 -0.0388
 5220TIP3    H237076   6.600   1.911   1.942  0.2195 -0.8691 -0.2397
 5221TIP3   OH237077   3.225   5.427   2.883 -0.1187 -0.2884  0.1281
 5221TIP3    H137078   3.281   5.500   2.909 -2.0825  1.3782 -0.0974
 5221TIP3    H237079   3.193   5.391   2.966 -0.6810  0.4004  0.2263
 5222TIP3   OH237080   0.967   5.485   3.374  1.3188 -0.5597  0.2200
 5222TIP3    H137081   0.883   5.522   3.347 -0.4020 -2.0489  3.0476
 5222TIP3    H237082   0.978   5.408   3.319  0.6810 -0.5110  0.0124
 5223TIP3   OH237083   0.270   4.564  13.087 -0.1356  0.0697  0.3826
 5223TIP3    H137084   0.284   4.503  13.014  0.0527  0.5022  0.0472
 5223TIP3    H237085   0.267   4.509  13.165  0.1585 -0.3555  0.0995
 5224TIP3   OH237086   0.336   5.044  16.316  0.2646  0.1350 -0.0805
 5224TIP3    H137087   0.317   4.974  16.254  1.3961 -0.1494 -0.1308
 5224TIP3    H237088   0.253   5.060  16.360 -0.5369  0.2774 -1.5922
 5225TIP3   OH237089   0.141   2.081  16.361  0.7749  0.8153  0.0945
 5225TIP3    H137090   0.117   2.050  16.273  0.2048 -1.7087  1.0746
 5225TIP3    H237091   0.225   2.127  16.347  1.3409 -0.5953 -1.5991
 5226TIP3   OH237092   4.015   6.706  12.113  0.5135 -0.5062 -0.2584
 5226TIP3    H137093   3.965   6.659  12.180 -0.8425  0.3044 -0.6745
 5226TIP3    H237094   3.955   6.716  12.040  0.9797  1.2372 -0.4559
 5227TIP3   OH237095   3.283   4.924   0.711  0.0519  0.0273  0.1043
 5227TIP3    H137096   3.296   5.016   0.690 -1.8201  0.7566  1.7829
 5227TIP3    H237097   3.188   4.911   0.705  0.2087 -1.5978  0.5907
 5228TIP3   OH237098   6.439   6.070   3.823 -0.1708  0.1891  0.2929
 5228TIP3    H137099   6.513   6.046   3.879  0.7545 -1.1667 -1.4223
 5228TIP3    H237100   6.465   6.153   3.782  2.4813 -2.1843 -3.4950
 5229TIP3   OH237101   4.022   0.927  16.929 -0.4447  0.0703  0.4785
 5229TIP3    H137102   4.073   0.902  17.007  1.5489  1.1021 -0.4058
 5229TIP3    H237103   4.078   0.901  16.856 -0.6176  2.3338 -0.5307
 5230TIP3   OH237104   3.506   3.566  14.408 -0.0662 -0.2625 -0.3207
 5230TIP3    H137105   3.494   3.525  14.494  1.4851 -0.2122 -0.0522
 5230TIP3    H237106   3.597   3.550  14.386  0.2041  1.7719 -0.8816
 5231TIP3   OH237107   5.967   0.125  11.818 -0.0421  0.0144  0.1386
 5231TIP3    H137108   5.881   0.146  11.854 -1.3676 -1.0167 -2.1645
 5231TIP3    H237109   5.961   0.032  11.795  1.4182  0.1170 -0.7868
 5232TIP3   OH237110   4.096   1.745   6.072 -0.0253  0.5654  0.1127
 5232TIP3    H137111   4.162   1.687   6.111  1.4439 -0.2778 -3.2611
 5232TIP3    H237112   4.132   1.768   5.986 -2.9558  2.3033 -0.7860
 5233TIP3   OH237113   3.325   3.285  15.987  0.3792  0.5932 -0.5341
 5233TIP3    H137114   3.377   3.293  16.066  0.7014 -1.5177 -0.4804
 5233TIP3    H237115   3.301   3.375  15.964  1.1870  1.3171  1.3308
 5234TIP3   OH237116   4.839   4.075   3.087 -0.3362 -0.4409 -0.0075
 5234TIP3    H137117   4.917   4.120   3.054  1.0067 -2.1580  0.6075
 5234TIP3    H237118   4.803   4.031   3.010 -1.7092  1.6366 -0.6288
 5235TIP3   OH237119   3.534   2.547  10.944 -0.1743 -0.1675 -0.1149
 5235TIP3    H137120   3.494   2.520  10.861  0.0378 -0.1583 -0.2195
 5235TIP3    H237121   3.606   2.485  10.957  0.8688  0.8858 -0.7899
 5236TIP3   OH237122   4.071   0.194  10.496 -0.4414 -0.4151 -0.9013
 5236TIP3    H137123   4.095   0.157  10.411  0.1054 -0.7026 -0.6251
 5236TIP3    H237124   4.079   0.122  10.557  0.2666  0.0608 -0.4222
 5237TIP3   OH237125   1.204   4.382  10.726 -0.0799 -0.2809 -0.4669
 5237TIP3    H137126   1.177   4.304  10.774 -1.2148 -0.0387 -0.6750
 5237TIP3    H237127   1.139   4.391  10.656  0.9013  0.0051 -1.3641
 5238TIP3   OH237128   3.345   4.858   0.264 -0.4210  0.1887 -0.2085
 5238TIP3    H137129   3.306   4.801   0.198  1.1178 -0.2678 -0.7740
 5238TIP3    H237130   3.282   4.930   0.274 -0.9863 -0.0663 -1.6979
 5239TIP3   OH237131   1.283   4.846   1.909 -0.2392  0.7252  0.2004
 5239TIP3    H137132   1.260   4.861   2.001  0.4728  0.0502  0.5021
 5239TIP3    H237133   1.254   4.756   1.892 -0.4856  0.8939 -0.2732
 5240TIP3   OH237134   4.298   6.711   5.035  0.1230 -0.2768  0.5063
 5240TIP3    H137135   4.388   6.686   5.016 -0.5457 -1.8146 -0.9839
 5240TIP3    H237136   4.276   6.777   4.969 -0.0878 -0.5273  0.3220
 5241TIP3   OH237137   6.712   2.336   4.980 -0.1542  0.1117 -0.3533
 5241TIP3    H137138   6.700   2.338   4.885  4.0745  1.0283 -1.0659
 5241TIP3    H237139   6.716   2.243   5.001  0.7030 -0.1335 -1.4603
 5242TIP3   OH237140   5.180   5.180   3.951 -0.8376  0.3554  0.9373
 5242TIP3    H137141   5.268   5.208   3.925 -0.8265 -0.8053 -0.4007
 5242TIP3    H237142   5.195   5.114   4.019 -0.6087 -0.6505 -0.0731
 5243TIP3   OH237143   6.547   1.616  10.614 -0.2457 -0.6967  0.5074
 5243TIP3    H137144   6.456   1.590  10.632  0.1405 -0.6502  2.7494
 5243TIP3    H237145   6.587   1.536  10.579 -1.0713 -0.7804 -0.3035
 5244TIP3   OH237146   5.427   0.232   2.185 -0.4170  0.2826 -0.3151
 5244TIP3    H137147   5.336   0.248   2.157 -1.2117 -1.5571  1.0338
 5244TIP3    H237148   5.428   0.255   2.278 -0.0408 -1.5212  0.1544
 5245TIP3   OH237149   6.550   5.866  14.315  0.2550 -0.2667 -0.0278
 5245TIP3    H137150   6.626   5.807  14.314 -0.7288 -1.5801  0.1291
 5245TIP3    H237151   6.588   5.954  14.325  1.7696 -0.8472 -0.4146
 5246TIP3   OH237152   6.774   4.894  16.513 -0.2081  0.5953 -0.5941
 5246TIP3    H137153   6.682   4.880  16.494 -0.4016  1.4068 -0.2573
 5246TIP3    H237154   6.789   4.850  16.597 -0.0617 -0.3270 -1.0843
 5247TIP3   OH237155   6.118   5.301  15.864 -0.6814  0.3463  0.3162
 5247TIP3    H137156   6.118   5.214  15.904  2.3880  0.1806  0.2511
 5247TIP3    H237157   6.137   5.360  15.937  1.0449  0.4752 -0.1916
 5248TIP3   OH237158   0.925   4.451  15.195 -0.0710  0.0637  0.2471
 5248TIP3    H137159   0.921   4.541  15.163  1.3998 -0.0736 -0.4187
 5248TIP3    H237160   0.847   4.408  15.161 -0.2954  0.8429 -0.2175
 5249TIP3   OH237161   3.318   4.443   0.978 -0.4634  0.1691 -0.5500
 5249TIP3    H137162   3.312   4.521   0.922 -0.4620 -1.2605 -2.6539
 5249TIP3    H237163   3.409   4.442   1.007 -0.7901  1.6703  0.6916
 5250TIP3   OH237164   5.986   2.818  13.248 -0.0105  0.1506 -0.9075
 5250TIP3    H137165   5.956   2.887  13.307 -2.5639 -0.5534 -1.2408
 5250TIP3    H237166   5.905   2.780  13.213  1.1695 -3.8376  0.1764
 5251TIP3   OH237167   2.554   6.815  13.755 -0.6223  0.0102 -0.5037
 5251TIP3    H137168   2.520   6.786  13.840  1.8266 -0.5453  0.3607
 5251TIP3    H237169   2.621   6.879  13.777  0.0116 -0.0934 -2.0244
 5252TIP3   OH237170   4.012   6.645   4.472 -0.2777  0.0797  0.0233
 5252TIP3    H137171   3.941   6.634   4.409 -0.3204  2.1110 -0.3482
 5252TIP3    H237172   4.082   6.588   4.439 -1.5049 -1.5476  0.1072
 5253TIP3   OH237173   5.437   3.076  12.026  0.2366  0.6826 -0.1368
 5253TIP3    H137174   5.517   3.107  12.069  0.7068 -0.4619 -0.1481
 5253TIP3    H237175   5.369   3.086  12.092  0.7907 -0.2555  0.6027
 5254TIP3   OH237176   4.216   5.831  16.538 -0.4903 -0.3505  0.5059
 5254TIP3    H137177   4.291   5.789  16.580  0.0908  0.4525  0.3187
 5254TIP3    H237178   4.238   5.831  16.445 -0.3530  0.5804  0.5279
 5255TIP3   OH237179   5.135   0.307   2.205  0.5369 -0.7780 -0.2866
 5255TIP3    H137180   5.088   0.263   2.134  1.5335 -0.8458 -0.9387
 5255TIP3    H237181   5.093   0.277   2.285  0.1398 -1.6232 -0.8053
 5256TIP3   OH237182   4.925   1.805  15.197 -0.0680  0.0041  0.5810
 5256TIP3    H137183   5.005   1.820  15.248 -0.9908  0.1449  2.0587
 5256TIP3    H237184   4.955   1.768  15.115  1.5221  0.0769  1.1032
 5257TIP3   OH237185   2.255   4.106   3.645 -0.1058 -0.4871 -0.2533
 5257TIP3    H137186   2.200   4.077   3.572  0.6645 -2.2293 -0.1793
 5257TIP3    H237187   2.327   4.044   3.647  0.6376  0.3685  1.1285
 5258TIP3   OH237188   3.103   0.835   3.353 -0.2511 -0.2336 -0.2310
 5258TIP3    H137189   3.122   0.810   3.444  0.7500  0.2228 -0.3011
 5258TIP3    H237190   3.012   0.864   3.355  0.2825  1.5205  1.0438
 5259TIP3   OH237191   0.020   2.074  11.392  0.3146  0.3339 -0.1176
 5259TIP3    H137192   0.015   2.140  11.323 -0.2234  1.3912  0.8955
 5259TIP3    H237193  -0.056   2.092  11.448 -0.0631 -1.4030 -0.0254
 5260TIP3   OH237194   4.367   1.517   4.097 -0.1610 -0.2811  0.0256
 5260TIP3    H137195   4.337   1.533   4.008 -0.7256 -0.1818  0.2298
 5260TIP3    H237196   4.310   1.571   4.152 -0.4602 -1.0836  0.5246
 5261TIP3   OH237197   4.539   5.620   2.282  0.3983  0.1146  0.1679
 5261TIP3    H137198   4.477   5.686   2.251  2.5663  2.0020 -0.4998
 5261TIP3    H237199   4.552   5.562   2.206  1.2657  1.2118 -0.5613
 5262TIP3   OH237200   2.104   2.972   3.536 -0.4599  0.2403 -0.3764
 5262TIP3    H137201   2.106   3.062   3.504 -0.9502  1.2134  2.0845
 5262TIP3    H237202   2.031   2.932   3.490 -1.0976  1.5352 -0.5452
 5263TIP3   OH237203   2.358   2.691   5.206 -0.3365  0.1134  0.0405
 5263TIP3    H137204   2.416   2.685   5.130  0.4206 -1.2120  0.6854
 5263TIP3    H237205   2.413   2.667   5.280 -1.2210  0.7872  0.9443
 5264TIP3   OH237206   3.434   5.730   3.737  0.1672 -0.1371 -0.1726
 5264TIP3    H137207   3.391   5.646   3.748 -0.1416  0.0174 -0.1961
 5264TIP3    H237208   3.364   5.794   3.743  0.1854  0.0517 -1.5683
 5265TIP3   OH237209   3.562   2.059   1.726  0.6085  0.5146  0.3066
 5265TIP3    H137210   3.581   2.105   1.643 -1.1486  0.7202 -0.0130
 5265TIP3    H237211   3.602   2.114   1.793 -0.9827  2.2692 -0.1194
 5266TIP3   OH237212   1.105   0.807   2.314 -0.7280 -0.1992  0.0030
 5266TIP3    H137213   1.137   0.817   2.404 -0.1060  1.4737 -0.3598
 5266TIP3    H237214   1.161   0.740   2.275 -1.7272 -1.7650  1.1539
 5267TIP3   OH237215   3.639   6.054  13.839  0.1641  0.4238 -0.3579
 5267TIP3    H137216   3.579   5.981  13.852 -0.3248  0.8898  0.0451
 5267TIP3    H237217   3.710   6.018  13.784 -0.9325  0.1014 -1.6212
 5268TIP3   OH237218   0.770   1.748   1.114 -0.5461 -0.3384  0.3193
 5268TIP3    H137219   0.817   1.812   1.061 -1.9235 -2.0566 -3.2419
 5268TIP3    H237220   0.767   1.788   1.201  0.9067  3.2126 -1.0661
 5269TIP3   OH237221   0.334   2.023  15.280  0.4429  0.4485  0.5250
 5269TIP3    H137222   0.279   1.949  15.305 -1.9209  1.4182 -1.3820
 5269TIP3    H237223   0.379   2.048  15.361  1.8168 -3.3225  1.1297
 5270TIP3   OH237224   0.803   4.571  12.561 -0.4490 -0.2806  0.1862
 5270TIP3    H137225   0.853   4.561  12.480 -1.1252 -0.7685 -0.1765
 5270TIP3    H237226   0.857   4.529  12.628  0.8960  1.5529  0.3294
 5271TIP3   OH237227   3.636   4.957   1.421 -0.0380  0.4588 -0.0077
 5271TIP3    H137228   3.690   4.902   1.364 -0.2549 -0.8266  0.9961
 5271TIP3    H237229   3.700   5.003   1.476  0.0902 -0.5526  0.7202
 5272TIP3   OH237230   1.131   0.791   4.538  0.1595  0.0445 -0.1410
 5272TIP3    H137231   1.155   0.880   4.564  2.8703  0.3588 -3.1151
 5272TIP3    H237232   1.038   0.797   4.515 -0.1487  1.6443  1.2972
 5273TIP3   OH237233   1.063   1.776  13.459 -0.1794  0.2676 -0.2384
 5273TIP3    H137234   1.108   1.792  13.542 -0.1708  2.7186 -0.6264
 5273TIP3    H237235   1.121   1.717  13.411 -0.6175 -1.9419  1.7771
 5274TIP3   OH237236   5.170   6.644  16.044 -0.1421  0.4487  0.6859
 5274TIP3    H137237   5.088   6.662  16.088 -0.4688 -0.8940  0.6730
 5274TIP3    H237238   5.234   6.634  16.115 -0.2180  0.4205  0.7506
 5275TIP3   OH237239   1.307   6.419  11.270  0.4342  0.7612  0.1528
 5275TIP3    H137240   1.320   6.339  11.322  0.9078  1.7639  1.6668
 5275TIP3    H237241   1.219   6.448  11.293  0.5299  1.0450  0.1678
 5276TIP3   OH237242   5.029   5.847  15.374  0.6291  0.6877 -0.6931
 5276TIP3    H137243   5.003   5.764  15.334  0.3595  1.0272 -1.2307
 5276TIP3    H237244   5.124   5.847  15.370  0.8304 -0.7578  1.6703
 5277TIP3   OH237245   6.368   6.621  13.143  0.5443 -0.5073  0.0067
 5277TIP3    H137246   6.363   6.625  13.048 -2.1738 -1.2002  0.0235
 5277TIP3    H237247   6.444   6.567  13.162  2.6936  1.7322 -1.6202
 5278TIP3   OH237248   3.113   0.568  10.552  0.0189 -0.2443 -0.3533
 5278TIP3    H137249   3.066   0.651  10.553  1.2264  0.5551 -2.8261
 5278TIP3    H237250   3.186   0.581  10.612 -1.2266 -0.5049  1.2964
 5279TIP3   OH237251   0.656   3.956   4.394  0.2539 -0.2741 -0.7260
 5279TIP3    H137252   0.657   3.887   4.461 -1.6735 -0.8663 -1.2181
 5279TIP3    H237253   0.690   4.033   4.438  1.6558 -1.3174  0.1038
 5280TIP3   OH237254   4.308   5.723  11.947 -0.4409 -0.5229 -0.0155
 5280TIP3    H137255   4.284   5.669  12.022 -0.4000 -0.5417 -0.0162
 5280TIP3    H237256   4.399   5.749  11.964 -1.3095  1.9519  1.4591
 5281TIP3   OH237257   0.633   5.347   3.050 -0.7077  0.0786 -0.1993
 5281TIP3    H137258   0.657   5.353   3.142  0.6345 -0.5781 -0.4854
 5281TIP3    H237259   0.590   5.262   3.041 -1.1384  0.2887 -0.1094
 5282TIP3   OH237260   5.093   3.118  11.959  0.0258  0.4071  0.1448
 5282TIP3    H137261   5.035   3.044  11.974  0.3061 -0.0342 -0.8564
 5282TIP3    H237262   5.048   3.192  11.999 -0.9991 -0.0119 -0.1840
 5283TIP3   OH237263   5.273   3.540  11.658  0.7495 -0.0253 -0.2358
 5283TIP3    H137264   5.341   3.503  11.601  1.8295  3.0068 -1.1152
 5283TIP3    H237265   5.314   3.543  11.744  1.1754  0.4327 -0.4529
 5284TIP3   OH237266   2.922   5.755   2.113  0.0292 -0.6291 -0.1137
 5284TIP3    H137267   2.941   5.812   2.187  1.8150  0.0959 -1.0717
 5284TIP3    H237268   2.932   5.811   2.036  2.4304 -2.2683 -1.1313
 5285TIP3   OH237269   6.269   4.434  13.851  0.2497  0.4459 -0.0202
 5285TIP3    H137270   6.291   4.436  13.757 -1.6663 -3.3391 -0.7479
 5285TIP3    H237271   6.346   4.397  13.893  0.7683  1.2726 -0.2247
 5286TIP3   OH237272   1.419   4.185  15.622 -0.4339  0.1163  0.2564
 5286TIP3    H137273   1.432   4.250  15.553 -0.9355  0.7655  0.7720
 5286TIP3    H237274   1.414   4.101  15.575  1.3645  0.2835 -0.3277
 5287TIP3   OH237275   0.555   4.480   2.385 -0.2303 -0.0272 -0.1540
 5287TIP3    H137276   0.501   4.530   2.324 -0.0087  0.9163  0.3987
 5287TIP3    H237277   0.587   4.545   2.448  0.8549 -0.6967  0.0263
 5288TIP3   OH237278   5.577   1.882   2.365  0.4258  0.6698  0.5083
 5288TIP3    H137279   5.591   1.947   2.434 -0.7337  1.3723  0.0926
 5288TIP3    H237280   5.538   1.930   2.293 -2.6067 -0.8325  1.0032
 5289TIP3   OH237281   5.804   6.511  11.715 -0.1741  0.0728 -0.3878
 5289TIP3    H137282   5.816   6.578  11.647  1.3733  0.0004 -0.2130
 5289TIP3    H237283   5.857   6.542  11.788  0.9838 -1.5840 -0.4806
 5290TIP3   OH237284   0.684   5.111  13.462  0.1930  0.0539 -0.2044
 5290TIP3    H137285   0.711   5.170  13.532 -0.1741  2.0344 -1.6479
 5290TIP3    H237286   0.701   5.023  13.497 -0.9346  0.8892  2.7220
 5291TIP3   OH237287   3.189   0.558   5.817  0.4665 -0.0092 -0.4241
 5291TIP3    H137288   3.195   0.536   5.910 -4.6971  0.6829  0.3534
 5291TIP3    H237289   3.212   0.651   5.812  1.2720 -0.1770  0.0324
 5292TIP3   OH237290   0.635   0.672  12.946  0.5158  0.8919  0.0582
 5292TIP3    H137291   0.570   0.611  12.980  1.5121  0.5735  1.4710
 5292TIP3    H237292   0.618   0.676  12.852  0.3539 -1.4626 -0.0572
 5293TIP3   OH237293   1.066   6.148  15.815 -0.4837  0.2097  0.1109
 5293TIP3    H137294   1.143   6.167  15.869  0.4466  0.4751 -1.2358
 5293TIP3    H237295   1.015   6.085  15.866  0.8014 -0.2197  0.9156
 5294TIP3   OH237296   5.361   0.587   6.344 -0.0983  0.1049  0.2423
 5294TIP3    H137297   5.308   0.512   6.318  0.2269 -0.2865  0.7004
 5294TIP3    H237298   5.298   0.655   6.367 -0.4152 -0.5148  1.2535
 5295TIP3   OH237299   2.656   3.683  11.555 -0.1163 -0.2366 -0.3540
 5295TIP3    H137300   2.729   3.642  11.602  0.9043  0.0848 -1.5827
 5295TIP3    H237301   2.596   3.611  11.536 -0.6206 -0.3519  1.4973
 5296TIP3   OH237302   4.696   5.947  14.727 -0.3897  0.0523 -0.1745
 5296TIP3    H137303   4.615   5.992  14.750 -1.5573 -0.9648 -2.0235
 5296TIP3    H237304   4.704   5.958  14.632  2.4618  1.3657  0.1219
 5297TIP3   OH237305   0.937   2.628  13.459 -0.2904 -0.3013 -0.1503
 5297TIP3    H137306   0.857   2.576  13.468 -0.8515  0.5948  0.1863
 5297TIP3    H237307   1.005   2.574  13.497 -0.9473 -0.6098  0.6285
 5298TIP3   OH237308   0.137   4.411  13.313  0.5864  0.3146 -0.3733
 5298TIP3    H137309   0.129   4.412  13.408  1.4338 -1.1046 -0.2550
 5298TIP3    H237310   0.122   4.320  13.288  1.4079  0.4542 -1.4907
 5299TIP3   OH237311   5.104   3.826  16.061 -0.3909  0.1612 -0.2759
 5299TIP3    H137312   5.018   3.787  16.074 -0.5919  0.9777  0.9644
 5299TIP3    H237313   5.163   3.750  16.050 -1.3183 -0.3925 -1.7884
 5300TIP3   OH237314   4.836   2.902   4.415  0.5585 -0.4045  0.1538
 5300TIP3    H137315   4.824   2.962   4.342  1.3462 -1.7089 -1.0946
 5300TIP3    H237316   4.930   2.888   4.419  0.6394  0.3097  2.0240
 5301TIP3   OH237317   0.236   2.728   5.710  0.1409  0.0981 -0.4586
 5301TIP3    H137318   0.273   2.777   5.636 -0.5886  2.5231  0.6651
 5301TIP3    H237319   0.144   2.716   5.688  0.3320 -0.8703 -0.7596
 5302TIP3   OH237320   1.738   6.749  13.192 -0.0815  0.0854 -0.3092
 5302TIP3    H137321   1.703   6.800  13.266  1.7269 -0.8481  1.2716
 5302TIP3    H237322   1.808   6.804  13.157 -0.1057 -0.0320 -0.5389
 5303TIP3   OH237323   5.725   4.540  15.862  0.1983 -0.2197  0.5874
 5303TIP3    H137324   5.672   4.545  15.941 -0.1447  0.7822  0.3162
 5303TIP3    H237325   5.719   4.628  15.824  2.4741  0.0847  0.8090
 5304TIP3   OH237326   1.730   4.244  11.687 -0.1063 -0.5880 -0.0069
 5304TIP3    H137327   1.724   4.340  11.693  2.8859 -0.2405 -0.8904
 5304TIP3    H237328   1.659   4.220  11.627 -1.1016  1.0107  0.4493
 5305TIP3   OH237329   1.812   3.054   5.713  0.7049 -0.4408  0.2074
 5305TIP3    H137330   1.902   3.069   5.744  1.0908 -0.1997 -0.9882
 5305TIP3    H237331   1.757   3.074   5.789  1.5812  0.7113  0.5628
 5306TIP3   OH237332   4.563   5.246   4.677  0.2659 -0.5488  0.4039
 5306TIP3    H137333   4.508   5.275   4.604 -2.6766  0.8531  2.9169
 5306TIP3    H237334   4.539   5.154   4.689  1.3953 -1.0335 -0.8375
 5307TIP3   OH237335   4.441   4.686  11.977  0.3471  0.0037  0.9216
 5307TIP3    H137336   4.496   4.738  11.919  0.6371  1.0054  2.0585
 5307TIP3    H237337   4.408   4.616  11.922  1.3707  0.3798 -0.2103
 5308TIP3   OH237338   5.168   5.198  12.950 -0.0416  0.2316  0.3107
 5308TIP3    H137339   5.181   5.107  12.976  2.3970  0.0018 -1.3832
 5308TIP3    H237340   5.250   5.223  12.908 -1.5037  2.4629 -1.4559
 5309TIP3   OH237341   2.699   2.962   1.261  0.2964 -0.3283 -0.2460
 5309TIP3    H137342   2.619   3.011   1.244  1.2343  0.9359 -1.1814
 5309TIP3    H237343   2.753   3.021   1.313  0.2415 -1.5636  1.2950
 5310TIP3   OH237344   2.650   5.891   5.081 -0.9866  0.0244 -0.0020
 5310TIP3    H137345   2.676   5.868   4.992 -0.6659 -0.0826  0.1170
 5310TIP3    H237346   2.634   5.807   5.124  0.1734  0.0079  0.4289
 5311TIP3   OH237347   1.201   0.320  12.162 -0.1885 -0.5502  0.0772
 5311TIP3    H137348   1.264   0.335  12.091 -1.2572 -0.3111 -0.8514
 5311TIP3    H237349   1.238   0.248  12.212  0.9900 -0.1996 -0.2387
 5312TIP3   OH237350   2.255   4.884   5.278  0.6811 -0.2622  0.0926
 5312TIP3    H137351   2.304   4.950   5.328 -0.1443 -0.8585  1.7497
 5312TIP3    H237352   2.234   4.928   5.196  1.8551  0.8485  0.3501
 5313TIP3   OH237353   1.574   0.488   5.269  0.2864  0.2883  0.1290
 5313TIP3    H137354   1.500   0.530   5.225  1.8624  1.4409 -1.5636
 5313TIP3    H237355   1.580   0.532   5.353 -0.7588  0.3889  0.1674
 5314TIP3   OH237356   1.322   6.611  14.633 -0.1917 -0.1918 -0.1299
 5314TIP3    H137357   1.290   6.540  14.689 -0.7080  0.6332  0.6421
 5314TIP3    H237358   1.321   6.574  14.545 -2.5676 -0.4823 -0.0549
 5315TIP3   OH237359   4.469   0.603   0.692 -0.4196 -0.1177  0.6040
 5315TIP3    H137360   4.491   0.679   0.746 -0.4029  0.2860  0.0405
 5315TIP3    H237361   4.429   0.641   0.613  1.4028 -0.5624 -0.5896
 5316TIP3   OH237362   5.269   6.468   0.035 -0.1075  0.1944  0.4004
 5316TIP3    H137363   5.315   6.449  -0.047  0.8458  0.0271  0.9539
 5316TIP3    H237364   5.262   6.384   0.079 -2.4427 -0.0739 -0.3872
 5317TIP3   OH237365   0.514   2.062   4.811  0.0707  0.1235  0.7274
 5317TIP3    H137366   0.591   2.005   4.819 -1.2187 -2.0192 -0.9318
 5317TIP3    H237367   0.514   2.090   4.719 -0.1477  1.6084  1.1640
 5318TIP3   OH237368   0.192   2.051  10.186  0.2020 -0.1554 -0.8647
 5318TIP3    H137369   0.107   2.008  10.199 -0.0946  1.1662  2.3726
 5318TIP3    H237370   0.177   2.142  10.212  2.7534 -0.0516  0.4912
 5319TIP3   OH237371   1.458   3.287  16.025  0.4541 -0.6997  0.0902
 5319TIP3    H137372   1.498   3.309  15.941  1.8949 -0.5773  0.7706
 5319TIP3    H237373   1.394   3.356  16.040 -0.0479 -0.8943 -1.0359
 5320TIP3   OH237374   6.563   0.346   3.822  0.2233 -0.3259  0.3707
 5320TIP3    H137375   6.543   0.286   3.894 -2.2620  0.1271  0.1652
 5320TIP3    H237376   6.579   0.430   3.864  0.2487 -0.3828  0.4757
 5321TIP3   OH237377   1.288   5.688   4.401 -0.2215  0.2261  0.2266
 5321TIP3    H137378   1.262   5.628   4.330  1.1473 -0.2934  0.1440
 5321TIP3    H237379   1.285   5.775   4.360 -0.3675  0.0303 -0.1916
 5322TIP3   OH237380   1.644   4.750   3.811  0.3147  0.3992  0.0282
 5322TIP3    H137381   1.706   4.678   3.796 -0.5059  0.1454 -2.8098
 5322TIP3    H237382   1.565   4.706   3.841  0.4974  0.3675  0.4683
 5323TIP3   OH237383   4.920   1.873  14.173  0.7249  0.2516 -0.3068
 5323TIP3    H137384   4.969   1.951  14.147  1.6040 -0.3232 -0.4044
 5323TIP3    H237385   4.913   1.821  14.093  0.4443  0.0639 -0.1636
 5324TIP3   OH237386   2.999   2.484  16.022  0.2752  0.1350  0.3139
 5324TIP3    H137387   2.977   2.572  15.990 -1.8689 -0.6202 -0.4657
 5324TIP3    H237388   3.060   2.450  15.957 -1.3687 -0.0932 -1.1848
 5325TIP3   OH237389   4.247   4.181   3.650 -0.1373  0.4365 -0.6418
 5325TIP3    H137390   4.306   4.243   3.695  0.5736  1.6550 -3.0431
 5325TIP3    H237391   4.163   4.192   3.693  0.1648  2.5811 -0.4905
 5326TIP3   OH237392   4.301   0.273   1.185 -0.0504  0.2036  0.0399
 5326TIP3    H137393   4.357   0.351   1.188 -0.7508  0.7022  0.4045
 5326TIP3    H237394   4.316   0.230   1.269  0.2797 -0.0243 -0.1316
 5327TIP3   OH237395   5.392   4.660   5.767  0.1199 -0.0125 -0.1836
 5327TIP3    H137396   5.315   4.612   5.798 -0.2189  0.3666 -0.4321
 5327TIP3    H237397   5.400   4.734   5.826 -1.2373  1.3885 -1.6557
 5328TIP3   OH237398   1.162   4.784   1.342 -0.5469 -0.4615 -0.0725
 5328TIP3    H137399   1.243   4.738   1.323 -0.9181 -1.1701  0.0294
 5328TIP3    H237400   1.095   4.716   1.343 -1.1964  0.1472 -0.4645
 5329TIP3   OH237401   1.723   4.102   1.991 -0.4582 -0.1813  0.1849
 5329TIP3    H137402   1.785   4.136   2.055 -0.6838  2.3006 -0.8165
 5329TIP3    H237403   1.777   4.057   1.926  0.0826  0.2205  0.3571
 5330TIP3   OH237404   3.655   5.357  14.231  0.0647  0.2885 -0.5227
 5330TIP3    H137405   3.629   5.300  14.303 -0.0540 -0.1366 -0.9026
 5330TIP3    H237406   3.581   5.416  14.219 -0.6624 -0.7768 -1.4548
 5331TIP3   OH237407   1.592   6.631  14.774  0.2646  0.6451  0.3823
 5331TIP3    H137408   1.639   6.548  14.762  1.6323  1.4032  0.3298
 5331TIP3    H237409   1.512   6.620  14.722 -0.7170 -1.4936  2.1805
 5332TIP3   OH237410   5.717   6.706  15.921 -0.4345 -0.3280 -0.1212
 5332TIP3    H137411   5.694   6.768  15.852 -1.7697 -0.4343  0.2079
 5332TIP3    H237412   5.664   6.732  15.996  1.1624 -0.0596  0.9807
 5333TIP3   OH237413   0.846   2.744  14.751 -0.1161 -0.2179  0.8981
 5333TIP3    H137414   0.934   2.777  14.767 -0.1211 -0.3856  1.2780
 5333TIP3    H237415   0.859   2.653  14.724 -0.2231 -0.5322  1.8675
 5334TIP3   OH237416   3.563   2.987  16.951  0.7516 -0.4072 -1.0300
 5334TIP3    H137417   3.534   2.990  17.042 -0.3383 -0.2748 -1.3689
 5334TIP3    H237418   3.644   3.038  16.950 -0.6223  1.9442 -0.6032
 5335TIP3   OH237419   3.674   6.351   5.337  0.1799 -0.0458 -0.0193
 5335TIP3    H137420   3.760   6.384   5.309  0.4553 -1.5909 -1.1594
 5335TIP3    H237421   3.616   6.373   5.264 -0.4463  1.0792  0.7914
 5336TIP3   OH237422   4.720   4.937   1.718  0.4149 -0.3545  0.2351
 5336TIP3    H137423   4.664   4.963   1.645  0.7950  1.3558  0.4954
 5336TIP3    H237424   4.665   4.950   1.796  0.3334 -1.1983  0.3198
 5337TIP3   OH237425   1.679   2.183   3.484 -0.4701 -0.1851 -0.0956
 5337TIP3    H137426   1.698   2.190   3.577 -0.9734 -0.3429  0.0245
 5337TIP3    H237427   1.716   2.099   3.458  0.6454  0.3504 -0.2921
 5338TIP3   OH237428   2.949   3.346  14.260 -0.0340 -0.1914  0.1391
 5338TIP3    H137429   2.962   3.302  14.344  1.4516 -0.5295 -0.2395
 5338TIP3    H237430   2.860   3.380  14.264 -1.1435 -2.8998  0.5941
 5339TIP3   OH237431   3.753   2.074  10.875  0.3825  0.1024  0.6775
 5339TIP3    H137432   3.832   2.021  10.873 -0.5786 -1.3935  1.3246
 5339TIP3    H237433   3.707   2.047  10.954 -0.4423  1.4645  0.7007
 5340TIP3   OH237434   3.387   2.878   5.529  0.0830  0.3382 -0.2357
 5340TIP3    H137435   3.313   2.836   5.484  0.5838 -0.6480 -0.1684
 5340TIP3    H237436   3.402   2.825   5.607  1.7224 -0.3182 -0.9449
 5341TIP3   OH237437   1.269   0.585  16.744  0.0060  0.1459  0.0503
 5341TIP3    H137438   1.346   0.529  16.751 -0.0359  0.0645 -0.1479
 5341TIP3    H237439   1.305   0.673  16.735  0.1118 -0.0574 -1.7824
 5342TIP3   OH237440   1.578   4.432  16.882  0.4420 -0.4894 -0.1168
 5342TIP3    H137441   1.482   4.437  16.885  0.3149 -1.5228 -1.5609
 5342TIP3    H237442   1.603   4.400  16.968 -0.6034 -1.3033 -0.0942
 5343TIP3   OH237443   1.726   3.809   5.722 -0.3377 -0.1176 -0.1664
 5343TIP3    H137444   1.668   3.799   5.646 -0.7346  1.0530 -0.0469
 5343TIP3    H237445   1.752   3.901   5.720 -0.9880  0.1444  1.5583
 5344TIP3   OH237446   5.504   0.335  16.745 -0.4305 -0.4390 -0.1667
 5344TIP3    H137447   5.494   0.250  16.702 -1.2647 -0.9592  1.0359
 5344TIP3    H237448   5.431   0.387  16.713  0.0684 -0.1481 -0.8861
 5345TIP3   OH237449   2.425   6.718   0.891 -0.2922 -0.0279 -0.0083
 5345TIP3    H137450   2.427   6.708   0.796  0.4221  2.1768 -0.3004
 5345TIP3    H237451   2.334   6.702   0.915 -0.7113  0.4051 -1.2236
 5346TIP3   OH237452   2.818   6.633  16.393  0.1375 -0.1770  0.0805
 5346TIP3    H137453   2.875   6.586  16.333 -0.9673 -1.6432  0.1227
 5346TIP3    H237454   2.776   6.700  16.339  1.5054  0.6055 -0.0464
 5347TIP3   OH237455   5.653   1.626  11.754 -0.3538 -0.7602 -0.1448
 5347TIP3    H137456   5.738   1.669  11.755 -1.1557  0.8811  0.3499
 5347TIP3    H237457   5.647   1.583  11.839 -0.6470  0.4265  0.4454
 5348TIP3   OH237458   2.973   1.003  13.170  0.6753 -0.3681  0.3827
 5348TIP3    H137459   2.899   1.053  13.136  0.9896 -0.0295  0.1933
 5348TIP3    H237460   3.050   1.051  13.141  0.9911 -1.1552 -0.0974
 5349TIP3   OH237461   1.536   5.728   6.190  0.1133  0.8114 -0.6505
 5349TIP3    H137462   1.567   5.766   6.271 -2.1707  0.3607  0.5189
 5349TIP3    H237463   1.583   5.776   6.121  1.6546  1.6089  0.8939
 5350TIP3   OH237464   3.120   0.291   5.303 -0.0392  0.4624  0.5164
 5350TIP3    H137465   3.207   0.313   5.270 -1.2877  2.4721 -1.7751
 5350TIP3    H237466   3.083   0.233   5.236 -0.4868 -0.4043  1.4836
 5351TIP3   OH237467   4.888   2.716  10.562 -0.4732 -0.0907  0.4843
 5351TIP3    H137468   4.935   2.792  10.595 -0.9252 -0.0781  1.1200
 5351TIP3    H237469   4.801   2.748  10.541 -0.6528 -0.4230  0.7112
 5352TIP3   OH237470   3.332   0.596  16.383 -0.1635  0.1904 -0.3384
 5352TIP3    H137471   3.250   0.623  16.423 -0.3458  1.0282 -1.2477
 5352TIP3    H237472   3.392   0.583  16.457 -0.9013  0.2737  0.2803
 5353TIP3   OH237473   2.417   2.895   6.160 -0.0122 -0.5498 -0.2905
 5353TIP3    H137474   2.496   2.912   6.110  1.0477  0.5182  1.6601
 5353TIP3    H237475   2.441   2.824   6.220 -0.4017 -0.0211  0.5189
 5354TIP3   OH237476   5.513   6.673  13.755  0.3718  0.0921  0.3603
 5354TIP3    H137477   5.569   6.720  13.693  1.5854  1.8118  2.6063
 5354TIP3    H237478   5.510   6.729  13.833 -2.9160 -0.8686  1.1137
 5355TIP3   OH237479   3.307   2.335  16.109 -0.1768  0.0963  0.3094
 5355TIP3    H137480   3.280   2.281  16.183  0.2273  1.8588  1.8240
 5355TIP3    H237481   3.398   2.310  16.093  0.3873  1.1066  1.7831
 5356TIP3   OH237482   0.439   1.872  15.713 -0.4693  0.2093  0.2643
 5356TIP3    H137483   0.352   1.907  15.695 -0.9447 -1.5665 -1.2309
 5356TIP3    H237484   0.480   1.864  15.627  0.3996 -0.8581  0.7579
 5357TIP3   OH237485   6.565   3.429  12.853 -0.4311 -0.2862  0.3768
 5357TIP3    H137486   6.539   3.343  12.885 -0.8082 -1.2042 -2.1779
 5357TIP3    H237487   6.657   3.419  12.828 -0.8559 -0.4023 -1.2359
 5358TIP3   OH237488   5.180   0.070   4.640 -0.2073  0.0866 -0.4630
 5358TIP3    H137489   5.086   0.067   4.659 -0.4014  0.6375 -1.2994
 5358TIP3    H237490   5.195  -0.006   4.583 -0.2132  0.1866 -0.5991
 5359TIP3   OH237491   0.377   2.281  13.624 -0.1357 -0.3640  0.4465
 5359TIP3    H137492   0.401   2.203  13.674 -0.8253  1.0266  3.1595
 5359TIP3    H237493   0.461   2.319  13.597  0.2940 -0.7213  1.2544
 5360TIP3   OH237494   2.529   1.492  14.310  0.2158 -0.3452 -0.3882
 5360TIP3    H137495   2.561   1.543  14.384  0.6096 -0.0991 -0.7289
 5360TIP3    H237496   2.585   1.517  14.237  0.5860 -1.4532 -0.5018
 5361TIP3   OH237497   5.122   4.699   5.550  0.6290  0.1517  0.0788
 5361TIP3    H137498   5.074   4.779   5.570  0.2909  0.1036 -0.5394
 5361TIP3    H237499   5.131   4.654   5.635  2.0537  1.5042  0.6998
 5362TIP3   OH237500   6.238   3.896  16.900 -0.1344 -0.2911 -0.1367
 5362TIP3    H137501   6.311   3.957  16.884 -0.6171 -0.0109 -1.3986
 5362TIP3    H237502   6.166   3.952  16.928  0.3392 -0.6542  1.9370
 5363TIP3   OH237503   3.085   0.896   5.004 -1.0931  0.0538  0.7975
 5363TIP3    H137504   3.049   0.820   5.050  0.7483 -0.2704  1.8317
 5363TIP3    H237505   3.139   0.939   5.070  1.5813 -0.3500 -0.9566
 5364TIP3   OH237506   0.967   3.794   5.193 -0.4384  0.0481 -0.1197
 5364TIP3    H137507   0.999   3.866   5.137 -0.6205 -0.5462 -1.0152
 5364TIP3    H237508   0.976   3.827   5.282  0.2787  0.8621 -0.4786
 5365TIP3   OH237509   2.406   0.247  11.552 -0.6847  0.1002 -0.5176
 5365TIP3    H137510   2.324   0.200  11.535 -0.3969 -1.1642  1.2292
 5365TIP3    H237511   2.403   0.265  11.646  2.2160 -2.4681  0.2063
 5366TIP3   OH237512   1.018   0.923  15.508 -0.1390  0.6514  0.2383
 5366TIP3    H137513   1.035   0.874  15.428  0.2720  0.8628  0.1983
 5366TIP3    H237514   1.104   0.943  15.544 -0.3122 -0.7636  1.5412
 5367TIP3   OH237515   2.583   5.508   3.799 -0.0331 -0.0487  0.5120
 5367TIP3    H137516   2.492   5.483   3.809 -0.1581  0.2243  0.0619
 5367TIP3    H237517   2.580   5.594   3.756  0.3668  0.8943  2.2555
 5368TIP3   OH237518   0.013   3.121  11.728 -0.2865  0.4778 -0.1057
 5368TIP3    H137519   0.013   3.038  11.776  0.2285 -0.0065 -0.9166
 5368TIP3    H237520  -0.017   3.097  11.640  1.1020  0.9057 -0.7258
 5369TIP3   OH237521   2.834   6.576   0.959  0.2070 -0.7053  0.4909
 5369TIP3    H137522   2.751   6.571   0.912 -0.0026  2.4759  0.3073
 5369TIP3    H237523   2.810   6.580   1.052  0.0820  0.6790  0.4145
 5370TIP3   OH237524   2.738   1.299   3.953  0.3654  0.3663  0.1364
 5370TIP3    H137525   2.647   1.325   3.941  0.3347 -0.1972 -0.9968
 5370TIP3    H237526   2.773   1.295   3.865  0.7315 -2.0566  0.3344
 5371TIP3   OH237527   4.433   4.345   3.792 -0.0087  0.3787 -0.3008
 5371TIP3    H137528   4.487   4.294   3.852  0.7714  0.9754 -0.4822
 5371TIP3    H237529   4.415   4.427   3.838 -0.6162  0.2670 -0.3201
 5372TIP3   OH237530   2.195   5.210  13.849  0.2694 -0.6612  0.6301
 5372TIP3    H137531   2.260   5.141  13.862 -0.9496 -1.9566  0.1771
 5372TIP3    H237532   2.149   5.184  13.769  0.9823  1.6942 -0.6269
 5373TIP3   OH237533   6.368   0.273   4.617  0.4752  0.2594 -0.1913
 5373TIP3    H137534   6.369   0.261   4.522  0.0054  2.5052 -0.5498
 5373TIP3    H237535   6.276   0.293   4.637  0.5248 -0.4724  0.7846
 5374TIP3   OH237536   1.513   5.116  15.845 -0.0347 -0.3236  0.0274
 5374TIP3    H137537   1.555   5.030  15.850 -0.2205 -0.6632 -2.4936
 5374TIP3    H237538   1.421   5.099  15.863  0.1456 -0.3966  0.9063
 5375TIP3   OH237539   1.094   0.014   1.236  0.2856 -0.3180  0.4412
 5375TIP3    H137540   1.024   0.072   1.205  0.0303  0.5436  2.4688
 5375TIP3    H237541   1.174   0.066   1.226  0.6913 -1.2818 -1.8226
 5376TIP3   OH237542   1.365   1.954  14.570 -0.0210  0.0389  0.2720
 5376TIP3    H137543   1.432   1.886  14.562  1.3999  1.5054 -1.5937
 5376TIP3    H237544   1.282   1.908  14.561  0.8189 -1.6176  0.6226
 5377TIP3   OH237545   1.605   4.366   2.051  0.1680  0.4034 -0.0100
 5377TIP3    H137546   1.671   4.415   2.101  0.4578 -0.0824  0.0907
 5377TIP3    H237547   1.650   4.286   2.024 -0.7095 -0.4713  1.0250
 5378TIP3   OH237548   3.019   2.862  13.910 -0.5180 -0.5239 -0.4009
 5378TIP3    H137549   3.072   2.881  13.832 -0.9997  1.9755 -0.1927
 5378TIP3    H237550   3.083   2.839  13.977  0.0477 -0.8309 -1.0378
 5379TIP3   OH237551   2.987   2.505  12.720  0.2081  0.2647 -0.2161
 5379TIP3    H137552   2.932   2.480  12.646 -0.2916  0.0552  0.2167
 5379TIP3    H237553   2.926   2.540  12.785  0.4970 -0.6431  0.5610
 5380TIP3   OH237554   0.989   4.754   4.390  0.1018 -0.6092  0.6568
 5380TIP3    H137555   1.003   4.666   4.425  0.0607  0.4635  3.6808
 5380TIP3    H237556   1.061   4.806   4.427 -0.7677  0.9419  0.2483
 5381TIP3   OH237557   1.343   5.384   0.553  0.1000 -0.1094 -0.0349
 5381TIP3    H137558   1.301   5.388   0.467 -1.1083 -0.6561  0.5031
 5381TIP3    H237559   1.354   5.476   0.579 -2.1351  0.0822  0.4165
 5382TIP3   OH237560   5.964   0.626  13.104  0.1709  0.4007  0.3491
 5382TIP3    H137561   5.885   0.660  13.062  1.7189  2.8131 -0.8492
 5382TIP3    H237562   6.033   0.643  13.041  1.6200 -2.1938  1.1017
 5383TIP3   OH237563   2.979   4.386  11.958  0.0263  0.3200  0.1086
 5383TIP3    H137564   3.013   4.476  11.956 -0.2244  0.4996  2.0064
 5383TIP3    H237565   2.903   4.391  12.017 -0.5405 -0.9721 -0.4808
 5384TIP3   OH237566   6.391   3.644   1.991  0.6771  0.5377  0.2123
 5384TIP3    H137567   6.325   3.701   1.953 -2.0331 -1.8027  1.0853
 5384TIP3    H237568   6.428   3.696   2.063 -0.6878  1.7031  0.1326
 5385TIP3   OH237569   1.671   4.882  13.071 -0.2364 -0.1171 -0.4979
 5385TIP3    H137570   1.719   4.816  13.122  0.5262  0.3423 -0.6087
 5385TIP3    H237571   1.730   4.958  13.068 -0.5635  0.1125 -1.4695
 5386TIP3   OH237572   0.868   0.818  14.939 -0.6630  0.5942 -0.3117
 5386TIP3    H137573   0.831   0.845  14.855  0.6913  3.5081 -0.0790
 5386TIP3    H237574   0.952   0.776  14.916 -1.4435 -0.9618 -0.4900
 5387TIP3   OH237575   5.304   2.358  15.604  0.2352  0.6330  0.1980
 5387TIP3    H137576   5.382   2.307  15.581  0.0098  1.1980 -1.9394
 5387TIP3    H237577   5.291   2.339  15.697  1.1223 -1.8979 -0.1095
 5388TIP3   OH237578   4.955   6.079   1.002  0.2688  0.1431 -0.1389
 5388TIP3    H137579   4.942   6.129   1.083  1.8786 -0.6225  0.6370
 5388TIP3    H237580   4.886   6.110   0.943 -1.4061  0.2027  1.7536
 5389TIP3   OH237581   4.185   3.030  11.780  0.0500  0.4711 -0.2385
 5389TIP3    H137582   4.217   3.098  11.840 -1.7399  1.1244  0.0353
 5389TIP3    H237583   4.129   3.077  11.718 -0.6806 -0.6491 -0.4553
 5390TIP3   OH237584   3.455   5.518   6.117  0.3297  0.1049  0.0225
 5390TIP3    H137585   3.443   5.424   6.112  0.5764  0.1057 -0.8314
 5390TIP3    H237586   3.463   5.537   6.210 -1.6564 -0.4539  0.3395
 5391TIP3   OH237587   3.184   4.032  13.132 -0.1695 -0.1648 -0.1045
 5391TIP3    H137588   3.235   4.057  13.209  1.4120 -0.0585 -1.1426
 5391TIP3    H237589   3.108   4.091  13.133 -0.6723 -0.7665  1.8284
 5392TIP3   OH237590   1.594   4.759  11.838 -0.5080 -0.2611 -0.8526
 5392TIP3    H137591   1.509   4.786  11.803  0.1351 -0.0425 -2.3223
 5392TIP3    H237592   1.588   4.776  11.932 -0.9390  2.9348 -1.3531
 5393TIP3   OH237593   2.051   1.510  12.113  0.3697 -0.0850  0.9091
 5393TIP3    H137594   2.123   1.559  12.073 -0.0921  1.2073  1.5914
 5393TIP3    H237595   2.094   1.445  12.168  1.0062 -0.4524 -0.0080
 5394TIP3   OH237596   2.762   5.691   1.627 -0.1773 -0.8314  0.5401
 5394TIP3    H137597   2.812   5.681   1.708  0.5159 -1.1279  0.0811
 5394TIP3    H237598   2.821   5.662   1.558 -0.4743  0.1736 -0.1604
 5395TIP3   OH237599   3.295   6.010  16.111 -0.1947  0.3238  0.3146
 5395TIP3    H137600   3.286   6.093  16.158 -1.7517 -1.0896  2.7100
 5395TIP3    H237601   3.213   6.002  16.062 -0.4379 -0.1881  0.7978
 5396TIP3   OH237602   5.727   0.900  14.907  0.6210 -0.4032 -0.0744
 5396TIP3    H137603   5.716   0.807  14.929  0.3478 -0.5609 -0.8380
 5396TIP3    H237604   5.674   0.946  14.972 -0.0519 -0.8462 -0.2938
 5397TIP3   OH237605   1.913   0.567  13.134 -0.3312 -0.1231  0.2013
 5397TIP3    H137606   1.891   0.634  13.069 -0.3831  1.3447  1.6819
 5397TIP3    H237607   1.995   0.529  13.102 -1.5058 -1.0792 -1.9178
 5398TIP3   OH237608   5.526   0.898   4.043 -0.1966 -0.3385 -0.5434
 5398TIP3    H137609   5.531   0.923   4.136 -0.1703  0.8758 -0.8513
 5398TIP3    H237610   5.458   0.955   4.007  1.6307  1.1512 -1.8435
 5399TIP3   OH237611   1.236   3.734  14.748  0.7916 -0.4560  0.1748
 5399TIP3    H137612   1.184   3.764  14.823  1.7860 -0.5330  0.9156
 5399TIP3    H237613   1.288   3.810  14.722 -0.7285  0.0728 -1.5251
 5400TIP3   OH237614   1.438   3.842  13.477 -0.6167  0.2265  0.1445
 5400TIP3    H137615   1.522   3.878  13.447  1.5193 -2.4170  2.4651
 5400TIP3    H237616   1.432   3.869  13.568 -1.3997 -1.0862  0.5006
 5401TIP3   OH237617   2.263   6.662  13.390  0.1574  0.2998  0.2099
 5401TIP3    H137618   2.197   6.720  13.427  0.1297 -0.3919  1.3107
 5401TIP3    H237619   2.235   6.574  13.417  1.5609  0.0009  0.7869
 5402TIP3   OH237620   4.752   2.695   3.782  0.4981 -0.0507  0.2892
 5402TIP3    H137621   4.793   2.766   3.830 -2.9919  2.5393 -0.1580
 5402TIP3    H237622   4.774   2.712   3.690 -0.7039  0.7677  0.1397
 5403TIP3   OH237623   2.472   2.314  12.512  0.5400  0.4469 -0.0666
 5403TIP3    H137624   2.382   2.345  12.515  0.6035  0.6770 -0.4344
 5403TIP3    H237625   2.513   2.365  12.442  0.7285 -0.2377 -0.4745
 5404TIP3   OH237626   6.255   4.471  14.769  0.1735 -0.0315 -0.4122
 5404TIP3    H137627   6.332   4.525  14.786 -1.2457  2.5004 -1.5057
 5404TIP3    H237628   6.290   4.390  14.733  2.4243 -0.1680  1.7774
 5405TIP3   OH237629   5.334   1.646  12.626 -0.4803 -0.0479  0.3953
 5405TIP3    H137630   5.327   1.644  12.531 -2.3519  1.3175  0.4496
 5405TIP3    H237631   5.250   1.613  12.657  0.4878 -1.4843  1.6176
 5406TIP3   OH237632   2.212   0.104   1.049  0.1206 -0.1681 -0.1393
 5406TIP3    H137633   2.183   0.078   1.136 -0.6051  0.1230 -0.2902
 5406TIP3    H237634   2.184   0.032   0.992  0.6994 -0.4149 -0.1262
 5407TIP3   OH237635   3.341   0.745   1.148  0.0151  0.1585  0.2841
 5407TIP3    H137636   3.289   0.751   1.228 -0.6040 -0.1787 -0.0860
 5407TIP3    H237637   3.418   0.694   1.173 -1.4274 -2.2369  0.0549
 5408TIP3   OH237638   5.902   5.547   3.954 -0.3722  0.0470 -0.0329
 5408TIP3    H137639   5.895   5.599   3.874 -1.6100  0.0908  0.0875
 5408TIP3    H237640   5.979   5.581   3.999 -0.1548  0.5850 -0.8015
 5409TIP3   OH237641   6.555   0.907   4.529  0.2485 -0.3347 -0.3988
 5409TIP3    H137642   6.614   0.850   4.579  0.6154  0.4507  0.0752
 5409TIP3    H237643   6.597   0.917   4.444  1.5067  1.3086  0.3812
 5410TIP3   OH237644   1.257   5.007  15.872 -0.7413 -0.7843 -0.3433
 5410TIP3    H137645   1.239   4.960  15.954  0.2399 -2.5576 -1.0770
 5410TIP3    H237646   1.171   5.018  15.831 -1.0789 -1.2478  0.2264
 5411TIP3   OH237647   1.079   4.849  13.784  0.3351  0.0084  0.1196
 5411TIP3    H137648   0.991   4.814  13.771  0.0652  0.5812  0.3774
 5411TIP3    H237649   1.123   4.783  13.838 -0.0573 -0.0880  0.3229
 5412TIP3   OH237650   5.595   3.754   1.838  0.5502  0.2437 -0.2742
 5412TIP3    H137651   5.596   3.796   1.752  1.6892  2.0142  0.5334
 5412TIP3    H237652   5.528   3.801   1.887 -0.5981 -1.2298 -0.3751
 5413TIP3   OH237653   3.354   1.315   0.994 -0.4471 -0.5957 -0.2371
 5413TIP3    H137654   3.349   1.288   0.902  1.5030  0.0577 -0.5873
 5413TIP3    H237655   3.374   1.409   0.990 -0.4586 -0.5324  0.8694
 5414TIP3   OH237656   0.870   1.263  14.683  0.1047 -0.0555 -0.1491
 5414TIP3    H137657   0.889   1.321  14.758 -1.0084 -1.5700  1.3845
 5414TIP3    H237658   0.853   1.323  14.611  1.2416  1.4843  0.7832
 5415TIP3   OH237659   4.478   2.488   0.790 -0.2550 -0.0704  0.6383
 5415TIP3    H137660   4.448   2.454   0.875 -0.3358 -2.4184 -0.2654
 5415TIP3    H237661   4.511   2.412   0.744  1.6169  1.4735 -0.7479
 5416TIP3   OH237662   5.937   3.944   1.162 -0.8755 -0.0907  0.0378
 5416TIP3    H137663   5.973   3.913   1.078  0.0932 -0.1173  0.4457
 5416TIP3    H237664   5.987   4.023   1.182 -0.8190 -0.3056  0.7842
 5417TIP3   OH237665   4.158   6.776  12.657  0.0750 -0.2832  0.0338
 5417TIP3    H137666   4.211   6.749  12.732 -0.4616 -1.1515  0.1044
 5417TIP3    H237667   4.222   6.786  12.586  0.4150 -0.7655  0.2608
 5418TIP3   OH237668   2.448   0.979   0.005  0.5800 -0.3133 -0.5414
 5418TIP3    H137669   2.474   1.039  -0.065  1.2237  0.1711  0.0898
 5418TIP3    H237670   2.367   0.938  -0.026 -0.3706  1.5440 -0.6214
 5419TIP3   OH237671   4.648   1.688   1.451 -0.0370  0.7998 -0.1855
 5419TIP3    H137672   4.670   1.616   1.509 -1.8349  0.4672  0.1494
 5419TIP3    H237673   4.582   1.738   1.498  1.2546  2.7863 -0.3564
 5420TIP3   OH237674   6.465   6.303  15.591 -0.2532  0.5040 -0.3304
 5420TIP3    H137675   6.477   6.217  15.552 -1.2586  0.0485  0.3338
 5420TIP3    H237676   6.371   6.319  15.586 -0.4836  0.2924  2.1387
 5421TIP3   OH237677   6.133   2.772  15.718  0.1135  0.1958  0.4784
 5421TIP3    H137678   6.041   2.764  15.694  0.5334 -0.3350 -1.0355
 5421TIP3    H237679   6.162   2.852  15.675  0.5458 -0.0474  0.3143
 5422TIP3   OH237680   6.408   0.790   5.925 -0.0039  0.3414 -0.1507
 5422TIP3    H137681   6.451   0.818   5.845  0.2646 -0.5535 -0.3306
 5422TIP3    H237682   6.440   0.849   5.993  1.4581 -0.2626 -0.2913
 5423TIP3   OH237683   1.969   5.232   2.166 -0.4213 -0.0863  0.3943
 5423TIP3    H137684   1.897   5.290   2.186  1.1777  1.5679  1.7120
 5423TIP3    H237685   2.032   5.287   2.120  0.8646 -0.8908  1.1168
 5424TIP3   OH237686   0.782   1.418  13.219 -1.1584  0.6698  0.2548
 5424TIP3    H137687   0.737   1.489  13.173 -0.3398 -0.2836 -2.1761
 5424TIP3    H237688   0.771   1.342  13.162  1.3293 -0.2094  0.8281
 5425TIP3   OH237689   1.163   0.213   1.990  0.4006 -0.4910 -0.3057
 5425TIP3    H137690   1.130   0.301   2.004  1.0771 -0.1897 -0.5469
 5425TIP3    H237691   1.102   0.174   1.928  2.4484  1.3334 -3.7720
 5426TIP3   OH237692   4.381   3.254   1.421 -0.2279  0.4397  0.2889
 5426TIP3    H137693   4.422   3.174   1.386  0.2002  0.9981 -0.5243
 5426TIP3    H237694   4.343   3.227   1.504 -1.9345 -1.1554 -0.9026
 5427TIP3   OH237695   1.758   6.350  12.891 -0.2866 -0.2903  0.0087
 5427TIP3    H137696   1.688   6.286  12.905 -1.2025  0.3620 -1.3397
 5427TIP3    H237697   1.828   6.322  12.950 -1.2951 -1.5470  0.6726
 5428TIP3   OH237698   0.368   0.524   3.534 -0.0085 -0.8948  0.1786
 5428TIP3    H137699   0.463   0.534   3.534 -0.1511  1.4237 -2.0677
 5428TIP3    H237700   0.342   0.541   3.625  1.5480  0.8760  0.3453
 5429TIP3   OH237701   1.515   4.107   2.256 -0.0903  0.1582  0.5880
 5429TIP3    H137702   1.603   4.090   2.290  0.4530 -0.1165 -0.8774
 5429TIP3    H237703   1.479   4.020   2.239 -1.4083  0.1694  2.9041
 5430TIP3   OH237704   3.326   3.576   0.370  0.4295  0.2187  0.5463
 5430TIP3    H137705   3.367   3.497   0.405 -1.3281 -0.4652  1.1437
 5430TIP3    H237706   3.396   3.619   0.320  1.0028 -2.5633 -1.2477
 5431TIP3   OH237707   1.779   2.177  12.696  0.4529  0.8350  0.2643
 5431TIP3    H137708   1.699   2.156  12.745  0.3174  0.9698  0.1029
 5431TIP3    H237709   1.803   2.264  12.725 -1.1386  2.0654 -1.8403
 5432TIP3   OH237710   2.143   0.987  11.150 -0.4923  0.2955 -0.6230
 5432TIP3    H137711   2.214   0.974  11.087  0.5247 -0.0699  0.5634
 5432TIP3    H237712   2.084   0.913  11.136  1.6144 -1.9147  1.2732
 5433TIP3   OH237713   0.284   6.120   6.255 -0.1658  0.2003 -0.1110
 5433TIP3    H137714   0.236   6.175   6.317 -0.3469  0.4048 -0.4297
 5433TIP3    H237715   0.353   6.080   6.307 -0.9704 -0.4836  0.4658
 5434TIP3   OH237716   6.813   1.866   5.736  0.2717 -0.1248  0.9183
 5434TIP3    H137717   6.856   1.780   5.736  0.1508 -0.2262  2.4909
 5434TIP3    H237718   6.780   1.877   5.647  2.0892 -0.7837  0.1182
 5435TIP3   OH237719   3.823   0.827   4.187 -0.2082 -0.3466  0.1737
 5435TIP3    H137720   3.852   0.748   4.231 -0.5686  0.5459  2.1365
 5435TIP3    H237721   3.729   0.815   4.176 -0.2616 -0.1934  0.4639
 5436TIP3   OH237722   6.701   6.589   3.834 -0.4691 -0.2455 -0.2627
 5436TIP3    H137723   6.698   6.678   3.799 -0.3270  0.4456  1.4128
 5436TIP3    H237724   6.624   6.582   3.890  0.2550 -0.6931  0.7188
 5437TIP3   OH237725   6.383   4.393   6.052 -0.0964  0.2345 -0.0788
 5437TIP3    H137726   6.374   4.395   5.957 -2.5387 -0.3370  0.0733
 5437TIP3    H237727   6.294   4.407   6.085  0.4355 -0.9919  2.0848
 5438TIP3   OH237728   6.771   6.224   2.554 -0.5763  0.6576 -0.0505
 5438TIP3    H137729   6.741   6.313   2.537  1.9620  1.5540 -0.2792
 5438TIP3    H237730   6.866   6.232   2.565 -0.3020 -1.9828  0.2540
 5439TIP3   OH237731   4.581   3.604   3.311 -0.3068  0.0170 -0.0221
 5439TIP3    H137732   4.647   3.614   3.380  0.6980  0.5138 -1.0210
 5439TIP3    H237733   4.602   3.521   3.268 -0.9554 -0.3134  0.2755
 5440TIP3   OH237734   4.788   4.861  10.872 -0.0419 -0.6452  0.8207
 5440TIP3    H137735   4.768   4.768  10.870 -0.9669 -0.4416  0.2042
 5440TIP3    H237736   4.873   4.869  10.829 -0.9872 -0.9678 -1.2017
 5441TIP3   OH237737   0.495   2.075  13.760 -0.1235  0.2313  0.2889
 5441TIP3    H137738   0.466   2.046  13.846 -0.2090 -0.7235 -0.0521
 5441TIP3    H237739   0.589   2.092  13.770 -0.4278  1.6832  0.9617
 5442TIP3   OH237740   4.802   2.341  16.175  1.0378  0.1779 -0.0812
 5442TIP3    H137741   4.822   2.408  16.110 -1.5843 -0.9903 -2.3542
 5442TIP3    H237742   4.839   2.260  16.139  1.8871 -0.0918  1.3010
 5443TIP3   OH237743   3.357   4.377  16.937  0.2046 -0.2940  0.6522
 5443TIP3    H137744   3.267   4.384  16.905  0.8158 -0.4535 -1.1979
 5443TIP3    H237745   3.350   4.324  17.017 -1.1681 -1.6992 -0.3403
 5444TIP3   OH237746   4.766   1.378  12.108  0.0051  0.0370 -0.8633
 5444TIP3    H137747   4.731   1.364  12.020  1.0020 -2.5313 -0.9282
 5444TIP3    H237748   4.689   1.378  12.165 -0.5540  0.6356 -1.5997
 5445TIP3   OH237749   5.607   2.348  12.778  0.2896  0.2338 -0.5951
 5445TIP3    H137750   5.701   2.332  12.789  0.3324  1.4290  1.1050
 5445TIP3    H237751   5.602   2.411  12.707  0.8596  0.8566 -0.0995
 5446TIP3   OH237752   5.188   3.698  13.344 -0.0533 -0.1194  0.0889
 5446TIP3    H137753   5.211   3.637  13.274 -0.4195 -1.0516  0.7513
 5446TIP3    H237754   5.269   3.711  13.393  1.1017  3.1478 -2.3416
 5447TIP3   OH237755   6.568   1.721  15.624 -0.3912  0.1121 -0.1859
 5447TIP3    H137756   6.541   1.745  15.712  0.1319 -0.1542  0.0536
 5447TIP3    H237757   6.488   1.687  15.583 -0.4748 -0.4743  0.4402
 5448TIP3   OH237758   4.043   3.173   0.190 -0.5708  0.2493 -0.8194
 5448TIP3    H137759   4.081   3.247   0.237 -1.3613 -0.0723  0.3577
 5448TIP3    H237760   4.106   3.155   0.119  0.0589  1.4754 -0.5987
 5449TIP3   OH237761   0.031   4.943  15.072 -0.2915  0.0430 -0.2396
 5449TIP3    H137762  -0.050   4.912  15.032 -0.6811 -1.1824  1.4408
 5449TIP3    H237763   0.005   5.023  15.119 -0.4486 -0.1454 -0.0053
 5450TIP3   OH237764   6.808   0.223   6.657  0.3302 -0.0709 -0.1866
 5450TIP3    H137765   6.874   0.238   6.589 -1.5364  0.4511 -1.9953
 5450TIP3    H237766   6.790   0.129   6.652 -0.0908  0.0291 -0.7541
 5451TIP3   OH237767   1.288   3.935   5.784  0.5594  0.5210 -0.3280
 5451TIP3    H137768   1.339   4.012   5.809  0.4626  0.3856  0.3006
 5451TIP3    H237769   1.213   3.935   5.843 -0.9728  1.5106 -2.1750
 5452TIP3   OH237770   5.817   6.156  14.039 -0.1423 -0.1087  0.2943
 5452TIP3    H137771   5.789   6.157  14.130  0.5648  0.9001  0.5242
 5452TIP3    H237772   5.744   6.196  13.991  0.8187  2.6386  0.9083
 5453TIP3   OH237773   3.826   5.781  11.630 -0.2536 -0.4132 -0.3594
 5453TIP3    H137774   3.851   5.761  11.721  0.8087  0.4161 -0.4366
 5453TIP3    H237775   3.754   5.722  11.611  0.3681 -1.5245  0.5930
 5454TIP3   OH237776   5.853   1.153  11.926  0.1004 -0.3180  0.7136
 5454TIP3    H137777   5.853   1.137  11.832  3.0051 -2.5054  0.9732
 5454TIP3    H237778   5.852   1.248  11.934 -0.8058 -0.0826 -1.4592
 5455TIP3   OH237779   1.423   1.632  16.551 -0.2330 -0.5070 -0.0394
 5455TIP3    H137780   1.391   1.720  16.533  0.4413  0.2068  1.9876
 5455TIP3    H237781   1.516   1.643  16.568  0.4973 -2.0684 -2.5034
 5456TIP3   OH237782   5.141   0.101  12.286 -0.8682  0.1631  0.5109
 5456TIP3    H137783   5.137   0.075  12.194 -0.2343 -0.2296  0.5916
 5456TIP3    H237784   5.051   0.090  12.318 -1.2749  1.1037 -0.2678
 5457TIP3   OH237785   3.159   5.560  12.987 -0.2263  0.2108  0.1859
 5457TIP3    H137786   3.148   5.598  13.074  0.5358  0.4880  0.1737
 5457TIP3    H237787   3.134   5.630  12.927 -3.1155 -0.7456  0.1560
 5458TIP3   OH237788   3.198   0.319   0.148  0.2122 -0.0084  0.1514
 5458TIP3    H137789   3.242   0.253   0.095 -2.3756 -2.9602  1.3729
 5458TIP3    H237790   3.232   0.308   0.236 -2.4809 -2.1896  1.0686
 5459TIP3   OH237791   6.284   0.708   4.168  0.0231  0.3528  0.6346
 5459TIP3    H137792   6.273   0.801   4.187 -0.0850  0.7072 -0.9467
 5459TIP3    H237793   6.202   0.668   4.195  0.3982  0.5609  2.1253
 5460TIP3   OH237794   1.538   5.130  14.897  0.2875 -0.2562 -0.0034
 5460TIP3    H137795   1.530   5.148  14.803 -2.1500  3.6164  0.7266
 5460TIP3    H237796   1.602   5.195  14.928 -0.2673 -0.2911  1.2671
 5461TIP3   OH237797   4.844   5.504   3.225 -0.6763  0.3727 -0.0578
 5461TIP3    H137798   4.753   5.477   3.220 -1.0615  1.6878 -0.7453
 5461TIP3    H237799   4.867   5.499   3.318 -1.4564  0.0931  0.1207
 5462TIP3   OH237800   6.574   3.914  12.820  0.0055  0.0031  0.5085
 5462TIP3    H137801   6.624   3.834  12.834  1.2648  0.7814  0.6221
 5462TIP3    H237802   6.625   3.982  12.863 -1.3643  0.7827  0.9532
 5463TIP3   OH237803   0.663   0.568   5.991 -0.4628 -0.0237 -0.1872
 5463TIP3    H137804   0.683   0.642   5.933  2.8550  1.6163  2.6802
 5463TIP3    H237805   0.596   0.602   6.051  0.2159  0.2605  0.4128
 5464TIP3   OH237806   3.038   5.108   3.199  0.8044 -0.0739  0.1641
 5464TIP3    H137807   2.988   5.082   3.277  0.9018 -3.2818 -0.7093
 5464TIP3    H237808   3.013   5.199   3.184 -1.2408 -0.1671  2.4076
 5465TIP3   OH237809   5.191   4.382   4.900 -0.6317  0.0756  0.6089
 5465TIP3    H137810   5.143   4.326   4.839 -0.7751  0.8965 -0.0572
 5465TIP3    H237811   5.282   4.355   4.892 -0.4444  1.0151 -0.9669
 5466TIP3   OH237812   0.463   4.381  14.377  0.3856  0.1417 -0.1528
 5466TIP3    H137813   0.553   4.385  14.409  0.6020  0.1182 -0.7452
 5466TIP3    H237814   0.470   4.344  14.289 -0.3390 -1.2334  0.3328
 5467TIP3   OH237815   5.356   3.344   0.864  0.6885 -0.2881  0.7675
 5467TIP3    H137816   5.278   3.395   0.885  2.2131  1.9363  1.2595
 5467TIP3    H237817   5.421   3.370   0.930  2.8059  0.2245 -1.3935
 5468TIP3   OH237818   2.893   5.844   5.444  0.2570 -0.0896  0.2072
 5468TIP3    H137819   2.830   5.773   5.429 -0.9637  0.8833  0.4756
 5468TIP3    H237820   2.855   5.894   5.516  0.5042  1.4462 -0.6832
 5469TIP3   OH237821   3.304   1.698   3.472 -0.1246 -0.4414  0.0554
 5469TIP3    H137822   3.212   1.682   3.451  0.0303  0.7971 -1.8146
 5469TIP3    H237823   3.303   1.726   3.564 -1.8360  1.0528 -0.3585
 5470TIP3   OH237824   2.397   2.842   0.972 -0.0057 -0.0479  0.0184
 5470TIP3    H137825   2.400   2.796   1.057  1.5525 -0.3690 -0.1856
 5470TIP3    H237826   2.318   2.808   0.930  0.3206 -1.4838  0.4891
 5471TIP3   OH237827   6.064   2.308   5.380 -0.3686  1.0186 -0.2219
 5471TIP3    H137828   6.049   2.242   5.448  0.5262  0.7212 -0.3066
 5471TIP3    H237829   6.012   2.384   5.408 -0.9701  0.4715  0.1548
 5472TIP3   OH237830   2.903   0.722   1.325 -0.2751  0.6056  0.2656
 5472TIP3    H137831   2.969   0.769   1.275  0.0747  0.1081  0.2527
 5472TIP3    H237832   2.950   0.647   1.361 -0.5810  0.7992  1.1086
 5473TIP3   OH237833   1.907   4.203   4.833 -0.2370 -0.0780  0.4283
 5473TIP3    H137834   1.916   4.221   4.739  0.7854  0.2681  0.5769
 5473TIP3    H237835   1.933   4.285   4.876 -2.6722  0.4738  1.0053
 5474TIP3   OH237836   3.791   0.739  16.586 -0.0812 -0.1666  0.7973
 5474TIP3    H137837   3.715   0.712  16.535  0.5913 -1.7902  0.5882
 5474TIP3    H237838   3.859   0.755  16.520  0.0325  0.3703  1.0373
 5475TIP3   OH237839   0.929   6.494  16.611  0.1273  0.0994  0.2001
 5475TIP3    H137840   0.982   6.477  16.689 -0.8315  0.3841  0.9270
 5475TIP3    H237841   0.906   6.406  16.579  1.0183 -0.0282 -0.1261
 5476TIP3   OH237842   0.771   4.764   4.751  0.1655  0.4824  0.3486
 5476TIP3    H137843   0.837   4.825   4.718 -0.5618  1.5687  0.8420
 5476TIP3    H237844   0.822   4.690   4.785  0.9887 -0.2180 -2.1686
 5477TIP3   OH237845   5.218   3.922   0.139  0.3842 -0.3763 -0.1216
 5477TIP3    H137846   5.276   3.848   0.122  0.9731 -0.3023  1.3762
 5477TIP3    H237847   5.130   3.888   0.119  0.7965 -0.9353 -1.0607
 5478TIP3   OH237848   4.009   4.372  12.475 -0.1503 -0.0997 -0.3629
 5478TIP3    H137849   4.055   4.355  12.393 -0.2796  0.6931 -0.6065
 5478TIP3    H237850   3.983   4.285  12.506 -0.9592 -0.3513 -1.6673
 5479TIP3   OH237851   0.714   1.799   3.117 -0.1760 -0.2850  0.0290
 5479TIP3    H137852   0.756   1.883   3.097  3.1905 -1.7099  0.4427
 5479TIP3    H237853   0.655   1.819   3.190  1.3611  1.5811  0.8544
 5480TIP3   OH237854   2.190   0.814   1.291  0.1098 -0.2439 -0.5612
 5480TIP3    H137855   2.103   0.851   1.300 -0.2271 -0.9593 -0.7756
 5480TIP3    H237856   2.249   0.890   1.292 -0.6699  0.4680 -2.7275
 5481TIP3   OH237857   6.393   6.229   5.166  0.3209 -0.3784  0.0281
 5481TIP3    H137858   6.298   6.224   5.162  0.3960 -1.3458 -1.3527
 5481TIP3    H237859   6.416   6.188   5.249 -0.4789  0.3743  0.6418
 5482TIP3   OH237860   4.029   5.110   5.337 -0.2906 -0.2316 -0.0442
 5482TIP3    H137861   3.991   5.198   5.343 -1.6910 -0.8626  0.8570
 5482TIP3    H237862   4.005   5.068   5.420 -2.2726 -2.4561 -1.6153
 5483TIP3   OH237863   3.469   6.582   5.671  0.6005  0.2455  0.4832
 5483TIP3    H137864   3.419   6.662   5.685  1.5914  0.9549  0.0731
 5483TIP3    H237865   3.509   6.564   5.756  0.9481  0.5880  0.3937
 5484TIP3   OH237866   4.216   4.870   1.407  0.0198 -0.2310  0.1499
 5484TIP3    H137867   4.278   4.853   1.478  0.6885 -1.6604 -0.7371
 5484TIP3    H237868   4.224   4.794   1.349  0.4010  1.4195 -2.0984
 5485TIP3   OH237869   5.349   3.118   3.104  0.0877 -0.7396 -0.2838
 5485TIP3    H137870   5.421   3.055   3.099 -0.3136 -1.2120 -0.1709
 5485TIP3    H237871   5.330   3.141   3.014  0.8906 -0.0174 -0.2850
 5486TIP3   OH237872   5.985   2.554  14.091 -0.4184  0.2091 -0.1980
 5486TIP3    H137873   5.981   2.646  14.116 -0.4257  0.4358 -0.9985
 5486TIP3    H237874   6.062   2.548  14.034  0.4281 -0.5763  0.9947
 5487TIP3   OH237875   2.332   4.294  15.816 -0.1335  0.1167 -0.0940
 5487TIP3    H137876   2.284   4.330  15.891 -0.3146 -0.4050  0.0458
 5487TIP3    H237877   2.345   4.369  15.758 -1.3412  0.2315 -0.2516
 5488TIP3   OH237878   4.684   2.267  14.190 -0.3479  0.0469 -0.5592
 5488TIP3    H137879   4.777   2.280  14.204 -0.2704  0.7746 -1.6711
 5488TIP3    H237880   4.648   2.355  14.178 -1.2740 -0.1777  0.3206
 5489TIP3   OH237881   2.903   0.155   4.188  0.0699 -0.5621  0.0064
 5489TIP3    H137882   2.875   0.162   4.097 -2.0837 -0.2108  0.6508
 5489TIP3    H237883   2.975   0.092   4.186  1.4036  0.8919 -2.1798
 5490TIP3   OH237884   2.442   6.362  13.735  0.2074 -0.3034  0.4049
 5490TIP3    H137885   2.524   6.409  13.720  0.3163 -0.5820  0.1108
 5490TIP3    H237886   2.405   6.403  13.813 -0.1443  0.9014 -0.3579
 5491TIP3   OH237887   2.264   0.315  15.896 -0.5237  0.1486  0.1694
 5491TIP3    H137888   2.300   0.364  15.822  0.3938  0.1376  0.5976
 5491TIP3    H237889   2.223   0.382  15.951 -1.9179  0.0651 -0.7253
 5492TIP3   OH237890   0.951   2.307   3.466  0.0168 -0.0330 -0.1126
 5492TIP3    H137891   0.937   2.227   3.416 -0.1488 -1.1894  1.7062
 5492TIP3    H237892   0.894   2.298   3.542  1.9172  0.6052  1.4581
 5493TIP3   OH237893   0.319   1.611  10.661 -1.2279 -0.0369  0.1373
 5493TIP3    H137894   0.393   1.616  10.601 -0.2723 -0.2189  1.2496
 5493TIP3    H237895   0.242   1.631  10.608 -0.2591  1.3541 -0.8034
 5494TIP3   OH237896   4.463   2.445  14.987  1.2155 -0.2804  1.3245
 5494TIP3    H137897   4.471   2.386  14.912  0.1776 -1.6579  2.2272
 5494TIP3    H237898   4.370   2.470  14.988  1.7212  1.8002  0.6916
 5495TIP3   OH237899   5.876   2.721  14.699  0.1228 -0.2103  0.6429
 5495TIP3    H137900   5.864   2.815  14.699 -0.5009 -0.2800  0.2542
 5495TIP3    H237901   5.957   2.707  14.649 -1.0336  0.0111 -1.4248
 5496TIP3   OH237902   4.268   0.807  11.521  0.3584  0.0355  0.2429
 5496TIP3    H137903   4.242   0.745  11.590  0.1737  0.1028  0.2321
 5496TIP3    H237904   4.217   0.781  11.445  1.3371 -0.7168 -0.1840
 5497TIP3   OH237905   4.911   3.983   1.371 -0.3779  0.5361  0.7380
 5497TIP3    H137906   4.826   3.991   1.327 -1.1083 -0.8816  1.7702
 5497TIP3    H237907   4.975   3.987   1.301 -1.3196  1.2827 -0.1076
 5498TIP3   OH237908   2.941   5.824   3.405  0.0788  0.4269 -0.1253
 5498TIP3    H137909   3.017   5.851   3.456  0.3020  0.6974 -0.5964
 5498TIP3    H237910   2.870   5.879   3.438  0.0066 -0.0402  0.5298
 5499TIP3   OH237911   1.643   5.228   5.335  0.1551 -0.1266 -0.2625
 5499TIP3    H137912   1.681   5.210   5.249  2.4825 -0.1510  0.7003
 5499TIP3    H237913   1.579   5.297   5.318  1.2527  0.5676 -1.8883
 5500TIP3   OH237914   3.345   0.665  13.556  0.1192 -0.0002 -0.3204
 5500TIP3    H137915   3.431   0.653  13.517  0.1963 -0.8825  0.0998
 5500TIP3    H237916   3.283   0.659  13.483  0.4886  2.2067 -0.8727
 5501TIP3   OH237917   4.154   3.477  16.928  0.3759 -0.1824 -0.4341
 5501TIP3    H137918   4.218   3.457  16.997 -1.4974 -2.5658  0.7531
 5501TIP3    H237919   4.204   3.468  16.846  2.4597  1.9332  0.4830
 5502TIP3   OH237920   1.469   2.403  13.435  0.6431 -0.1364  0.7128
 5502TIP3    H137921   1.497   2.324  13.390 -1.0076 -0.3102 -0.0990
 5502TIP3    H237922   1.504   2.475  13.383 -0.4940 -0.3423 -0.3813
 5503TIP3   OH237923   5.652   3.073   1.706  0.0338  0.2818 -0.6281
 5503TIP3    H137924   5.588   3.058   1.775  1.6303  1.8947  1.3313
 5503TIP3    H237925   5.737   3.071   1.751  1.0742  2.5227 -2.2728
 5504TIP3   OH237926   3.733   3.555   2.578 -0.0730 -0.0393 -0.1300
 5504TIP3    H137927   3.668   3.492   2.610 -0.3349  0.1728 -0.2428
 5504TIP3    H237928   3.716   3.560   2.484 -0.8787  1.1448  0.0572
 5505TIP3   OH237929   5.490   6.644   5.674  0.8022 -0.1416 -0.3269
 5505TIP3    H137930   5.485   6.728   5.719 -0.2851  0.1621 -0.9782
 5505TIP3    H237931   5.474   6.665   5.582  0.3753 -1.0793 -0.4778
 5506TIP3   OH237932   6.150   1.970   0.509  0.0701  0.7661 -0.0063
 5506TIP3    H137933   6.150   2.010   0.596 -0.3668 -0.2176  0.4600
 5506TIP3    H237934   6.190   1.884   0.522 -2.4365 -0.5078 -0.2026
 5507TIP3   OH237935   5.920   0.762  11.565  0.4003  0.0820 -0.2190
 5507TIP3    H137936   5.854   0.728  11.504 -1.6133  2.1032  0.6781
 5507TIP3    H237937   5.928   0.855  11.542  1.5654  0.2880  0.9075
 5508TIP3   OH237938   5.994   2.362  13.730 -0.2904 -0.6431 -0.8049
 5508TIP3    H137939   5.937   2.323  13.797 -1.4364  0.5281 -1.0558
 5508TIP3    H237940   5.937   2.374  13.654  0.3349  0.3430 -1.1379
 5509TIP3   OH237941   0.456   4.693   3.270 -0.2206  0.1700 -0.0571
 5509TIP3    H137942   0.463   4.626   3.338 -0.3447  0.4002  0.1851
 5509TIP3    H237943   0.362   4.707   3.260 -0.1776  1.0553  0.6403
 5510TIP3   OH237944   5.627   2.459  10.782  0.3135 -0.3779  0.0600
 5510TIP3    H137945   5.663   2.546  10.762  0.1517  0.3234  2.4435
 5510TIP3    H237946   5.540   2.460  10.744 -0.4643  1.3382  1.7224
 5511TIP3   OH237947   5.226   1.322   3.000 -0.6629  0.5772 -0.0774
 5511TIP3    H137948   5.225   1.226   3.003  0.1057  0.5752  0.3598
 5511TIP3    H237949   5.156   1.345   2.939  0.4977 -0.3139 -1.8213
 5512TIP3   OH237950   4.410   3.709   4.184  0.6535 -0.4301  0.5835
 5512TIP3    H137951   4.406   3.750   4.270  0.6241  1.0915 -0.1048
 5512TIP3    H237952   4.372   3.622   4.197  1.3473 -0.5165  2.2490
 5513TIP3   OH237953   4.082   3.977   5.819 -0.2397  0.4444 -0.3218
 5513TIP3    H137954   4.046   3.924   5.748 -1.0661 -0.1738  0.5168
 5513TIP3    H237955   4.037   3.944   5.897  1.3587  0.4090  0.6269
 5514TIP3   OH237956   3.470   0.672  14.511 -0.2779  0.1352  0.1110
 5514TIP3    H137957   3.490   0.759  14.475 -1.4745  1.2003  1.8908
 5514TIP3    H237958   3.376   0.673  14.525 -0.3704 -1.6207 -0.1678
 5515TIP3   OH237959   2.214   1.119   4.049  0.7379  0.0994  0.0512
 5515TIP3    H137960   2.275   1.101   3.978  1.5481 -1.6691  1.1054
 5515TIP3    H237961   2.241   1.204   4.084  0.7077  0.7026 -1.3331
 5516TIP3   OH237962   5.720   5.873  14.160  0.0079  0.0787 -1.1633
 5516TIP3    H137963   5.793   5.910  14.110  1.1495 -1.6131 -0.8124
 5516TIP3    H237964   5.719   5.780  14.137 -0.8925 -0.2873  0.2290
 5517TIP3   OH237965   2.088   6.733  13.734 -0.7625  0.1264 -0.4142
 5517TIP3    H137966   2.120   6.809  13.685 -0.1739  0.7777  0.9296
 5517TIP3    H237967   2.154   6.719  13.803 -0.9167 -1.5340 -0.5528
 5518TIP3   OH237968   1.231   2.029   4.290 -0.0582 -0.2864  0.0831
 5518TIP3    H137969   1.201   1.985   4.371 -2.3393 -3.3283 -2.1526
 5518TIP3    H237970   1.162   2.093   4.271  1.0706  1.2833  1.0570
 5519TIP3   OH237971   3.177   4.925  16.915  0.1632  0.2700 -1.1478
 5519TIP3    H137972   3.097   4.896  16.958  1.0210 -0.2330  0.1733
 5519TIP3    H237973   3.232   4.959  16.986  0.6618  1.7535 -2.1781
 5520TIP3   OH237974   4.678   0.118  16.289 -0.2023  0.1867  0.4184
 5520TIP3    H137975   4.658   0.133  16.196  1.7465 -0.0053 -0.0760
 5520TIP3    H237976   4.682   0.206  16.326  1.3264  0.4241 -0.2368
 5521TIP3   OH237977   3.860   1.409  16.174 -0.1319  0.0842 -0.0089
 5521TIP3    H137978   3.895   1.421  16.262 -0.5756  0.9957  0.0593
 5521TIP3    H237979   3.920   1.347  16.132 -0.6868 -1.4621  1.3765
 5522TIP3   OH237980   5.173   4.793  14.450  0.2065  0.1640  0.5714
 5522TIP3    H137981   5.143   4.742  14.375 -0.3481 -0.9807  1.5403
 5522TIP3    H237982   5.268   4.799  14.438  0.3359 -1.3955  0.5893
 5523TIP3   OH237983   5.596   5.288  11.214 -0.0070 -0.6223 -0.0799
 5523TIP3    H137984   5.606   5.229  11.288 -1.3759  0.7118  1.2466
 5523TIP3    H237985   5.633   5.371  11.244 -1.2102  0.1338 -0.6062
 5524TIP3   OH237986   4.264   3.497  12.561 -0.3658 -0.8360 -0.0883
 5524TIP3    H137987   4.201   3.425  12.571  1.1184 -2.2139 -0.2082
 5524TIP3    H237988   4.345   3.454  12.534  0.6782  0.8726  0.1838
 5525TIP3   OH237989   4.713   2.461  11.749 -0.2440  0.0091 -0.2048
 5525TIP3    H137990   4.644   2.435  11.689 -0.3206  1.2667 -0.6843
 5525TIP3    H237991   4.719   2.556  11.740  2.3830 -0.1715 -1.0880
 5526TIP3   OH237992   0.005   3.576  14.635  0.0467  0.0551 -0.7335
 5526TIP3    H137993   0.080   3.595  14.691  0.5868  0.9753 -1.7102
 5526TIP3    H237994   0.040   3.584  14.546 -0.5371 -2.3384 -1.2480
 5527TIP3   OH237995   5.580   2.453   1.149  0.3350 -0.2004 -0.5308
 5527TIP3    H137996   5.581   2.533   1.200 -0.8065 -0.2752 -0.3844
 5527TIP3    H237997   5.559   2.384   1.212  0.9551 -0.5828 -0.7245
 5528TIP3   OH237998   1.724   1.151   4.381  0.1815  0.7764  0.3438
 5528TIP3    H137999   1.786   1.079   4.366  0.1415  0.7433  0.3370
 5528TIP3    H238000   1.656   1.138   4.315  1.7829  2.6714 -1.8497
 5529TIP3   OH238001   2.614   1.526   2.731 -0.6840  0.2209  0.5378
 5529TIP3    H138002   2.620   1.621   2.728  0.9396  0.1268 -0.0329
 5529TIP3    H238003   2.654   1.502   2.815  1.6640 -0.0740 -0.5758
 5530TIP3   OH238004   0.503   0.546  11.195  0.0593  0.0004  0.2582
 5530TIP3    H138005   0.421   0.549  11.242 -0.3356 -0.8767 -0.3392
 5530TIP3    H238006   0.478   0.543  11.102  0.7683  0.1380  0.0511
 5531TIP3   OH238007   6.204   2.636  12.918  0.2890 -0.8131 -0.0470
 5531TIP3    H138008   6.175   2.627  13.009  0.7894  0.0422  0.2047
 5531TIP3    H238009   6.234   2.549  12.894 -0.9382 -1.3385  0.2126
 5532TIP3   OH238010   0.035   5.287   4.075 -0.1285  0.2613 -0.4205
 5532TIP3    H138011   0.119   5.311   4.115 -0.5382  0.5498  0.2909
 5532TIP3    H238012   0.035   5.331   3.991 -0.4732  2.0505  0.4717
 5533TIP3   OH238013   3.843   5.888  14.948  0.4008 -0.4446  0.2090
 5533TIP3    H138014   3.873   5.820  15.008  1.3670 -0.7971 -0.6401
 5533TIP3    H238015   3.764   5.924  14.989  0.9653 -0.7525  1.6088
 5534TIP3   OH238016   2.148   4.218  16.339  0.2060  1.2007  0.1470
 5534TIP3    H138017   2.146   4.143  16.399 -0.7382  1.0813 -0.0212
 5534TIP3    H238018   2.225   4.268  16.366  0.5382  0.4620  0.6150
 5535TIP3   OH238019   6.695   0.607  11.253  0.7717  0.5005 -0.4658
 5535TIP3    H138020   6.618   0.634  11.301  1.7907  0.8621  1.0252
 5535TIP3    H238021   6.676   0.632  11.162 -1.7502 -1.4294 -0.5814
 5536TIP3   OH238022   3.760   2.210  14.141  0.4543 -0.4571  0.2924
 5536TIP3    H138023   3.756   2.298  14.103 -1.2643 -0.4967  0.2741
 5536TIP3    H238024   3.669   2.189  14.162  0.9934 -1.6715  1.6205
 5537TIP3   OH238025   5.083   5.831  12.636 -0.5304 -0.2348 -0.2252
 5537TIP3    H138026   5.062   5.755  12.691  1.2456 -0.7711 -0.1995
 5537TIP3    H238027   5.155   5.874  12.682 -0.9614  0.9955 -0.6786
 5538TIP3   OH238028   2.476   0.757  10.807 -0.1480  0.0312 -0.7311
 5538TIP3    H138029   2.387   0.787  10.825 -0.5523 -0.6337 -1.5495
 5538TIP3    H238030   2.486   0.765  10.712  0.0618 -1.4476 -0.8734
 5539TIP3   OH238031   5.665   6.284  15.504 -0.4794 -0.2528 -0.3794
 5539TIP3    H138032   5.577   6.321  15.492 -0.5748  0.4710  2.1295
 5539TIP3    H238033   5.695   6.318  15.588  2.0250 -0.9130 -0.9102
 5540TIP3   OH238034   0.200   0.678  15.011  0.0825  0.1747 -0.6753
 5540TIP3    H138035   0.126   0.738  15.014  0.5498  0.8405 -1.7643
 5540TIP3    H238036   0.221   0.660  15.103  1.2300  3.3365 -0.1831
 5541TIP3   OH238037   0.399   4.390   0.951 -0.1127  0.1608  0.0747
 5541TIP3    H138038   0.461   4.337   1.002 -1.8067 -0.1997  1.8764
 5541TIP3    H238039   0.413   4.362   0.860  0.6812 -1.6892  0.7106
 5542TIP3   OH238040   3.784   1.555   0.140  0.4171 -0.1902  0.3298
 5542TIP3    H138041   3.873   1.519   0.133  0.5152  0.2422 -0.9195
 5542TIP3    H238042   3.794   1.646   0.112 -0.4062 -0.1090  0.2995
 5543TIP3   OH238043   4.695   2.515  15.722 -0.0245  0.5829 -0.6249
 5543TIP3    H138044   4.706   2.598  15.677 -2.1210 -0.3362 -3.1103
 5543TIP3    H238045   4.606   2.487  15.700  0.9956 -2.8889 -0.9976
 5544TIP3   OH238046   6.192   6.486   5.784  0.7680 -0.2286  0.7310
 5544TIP3    H138047   6.217   6.422   5.851  1.6441  0.2305  0.8616
 5544TIP3    H238048   6.104   6.461   5.759  0.5705 -0.6493  1.7864
 5545TIP3   OH238049   4.389   1.544  11.936  0.1356  0.6388 -0.3922
 5545TIP3    H138050   4.349   1.457  11.941  1.7085 -0.1255 -0.2086
 5545TIP3    H238051   4.420   1.551  11.846  1.2045  0.4140 -0.0620
 5546TIP3   OH238052   1.255   4.635  16.245 -0.4762  0.0062 -0.0706
 5546TIP3    H138053   1.186   4.568  16.243  0.1698 -0.7090  0.8743
 5546TIP3    H238054   1.209   4.717  16.261 -1.1926 -0.3273 -0.3744
 5547TIP3   OH238055   5.625   5.067  10.631  0.4579  0.2754  0.1136
 5547TIP3    H138056   5.573   4.993  10.661  1.6293 -0.6034  0.0356
 5547TIP3    H238057   5.561   5.137  10.617 -0.6962 -0.7758 -0.0204
 5548TIP3   OH238058   2.052   5.669   0.986  0.0635 -0.0417 -0.5208
 5548TIP3    H138059   1.957   5.678   0.994 -0.1212  0.4540 -2.7448
 5548TIP3    H238060   2.067   5.574   0.985 -0.4191 -0.1222 -0.4784
 5549TIP3   OH238061   1.749   0.624  16.522  0.3476 -0.4298  0.2984
 5549TIP3    H138062   1.743   0.542  16.572  0.5716 -0.7207 -0.1534
 5549TIP3    H238063   1.694   0.609  16.445 -1.1546  0.5266  1.1314
 5550TIP3   OH238064   5.147   2.713   6.244 -0.2246 -0.1103 -0.5761
 5550TIP3    H138065   5.116   2.679   6.328 -0.7088  0.8438 -0.3516
 5550TIP3    H238066   5.076   2.769   6.213  0.3203  0.2517 -1.1908
 5551TIP3   OH238067   3.131   6.465   0.908  0.1867  0.6010  0.2047
 5551TIP3    H138068   3.139   6.496   0.818  1.0564  0.7371  0.3218
 5551TIP3    H238069   3.106   6.543   0.958 -1.8562  0.2198 -0.1278
 5552TIP3   OH238070   1.253   1.154   0.527  0.0218 -0.4535 -0.2464
 5552TIP3    H138071   1.216   1.067   0.544  0.6123 -0.6380  0.1099
 5552TIP3    H238072   1.339   1.152   0.569  0.3602  0.0365 -0.9014
 5553TIP3   OH238073   1.018   4.265   4.475 -0.2286 -0.9363  0.3442
 5553TIP3    H138074   1.063   4.259   4.391  0.2663  0.6638  0.4551
 5553TIP3    H238075   1.072   4.214   4.535  0.0701 -1.0884 -0.0517
 5554TIP3   OH238076   5.248   6.341  11.328 -0.2652  0.2791 -0.1793
 5554TIP3    H138077   5.325   6.398  11.332 -0.0114 -0.1344  2.7015
 5554TIP3    H238078   5.185   6.381  11.389 -1.1847 -0.9892 -0.2627
 5555TIP3   OH238079   1.955   3.411   6.580 -0.5007  0.0095  0.2149
 5555TIP3    H138080   1.876   3.387   6.532  0.3442 -0.7943 -0.8165
 5555TIP3    H238081   1.925   3.475   6.645 -2.4414 -2.1455  1.5674
 5556TIP3   OH238082   1.276   3.334  15.071  0.4792  0.4803  0.3429
 5556TIP3    H138083   1.264   3.286  15.153  0.7539 -1.4914 -0.7082
 5556TIP3    H238084   1.192   3.376  15.054 -0.9241 -2.3546 -0.3075
 5557TIP3   OH238085   1.170   4.652   0.475 -0.3112 -0.2349  0.4951
 5557TIP3    H138086   1.190   4.745   0.485  0.2141 -0.0697 -1.6541
 5557TIP3    H238087   1.099   4.637   0.538 -0.1077  1.4947  1.2150
 5558TIP3   OH238088   3.081   1.673   3.956 -0.2264 -1.1493 -0.7867
 5558TIP3    H138089   3.076   1.738   4.027 -0.8806  0.3171 -2.0950
 5558TIP3    H238090   3.098   1.590   4.000 -0.6980 -0.3094  1.0887
 5559TIP3   OH238091   2.375   5.272  14.706 -0.6160  0.4657 -0.1397
 5559TIP3    H138092   2.379   5.185  14.748 -2.3951 -0.3163 -1.4640
 5559TIP3    H238093   2.347   5.331  14.777  2.2363  0.3474  1.2045
 5560TIP3   OH238094   2.604   4.455   1.432  0.0823  0.0675 -0.2651
 5560TIP3    H138095   2.624   4.544   1.463 -1.5230  0.1863  0.5033
 5560TIP3    H238096   2.534   4.467   1.367 -0.6809 -0.6954  0.4022
 5561TIP3   OH238097   4.291   0.399  13.593 -0.7089 -0.2570  0.5815
 5561TIP3    H138098   4.381   0.391  13.625 -0.9693 -0.5817  1.2450
 5561TIP3    H238099   4.275   0.493  13.587 -0.2189 -0.1964  0.1488
 5562TIP3   OH238100   1.513   0.685   1.916 -0.2506  0.3129  0.0526
 5562TIP3    H138101   1.425   0.686   1.879 -0.5336 -1.5753  0.5801
 5562TIP3    H238102   1.500   0.684   2.010  0.2855 -1.0520  0.1318
 5563TIP3   OH238103   5.319   5.875   4.809  0.2109 -0.2291 -0.4002
 5563TIP3    H138104   5.322   5.947   4.746 -0.6117 -1.4183 -1.8727
 5563TIP3    H238105   5.285   5.914   4.890  4.2046  2.0391  0.4317
 5564TIP3   OH238106   3.199   3.190   5.892  0.3161 -0.0971  0.1392
 5564TIP3    H138107   3.228   3.110   5.847  0.0877  0.7886 -1.7086
 5564TIP3    H238108   3.219   3.175   5.984  0.7169 -2.0807 -0.2259
 5565TIP3   OH238109   3.992   0.346  11.469  0.3336 -0.1169 -0.0805
 5565TIP3    H138110   3.972   0.266  11.518 -1.3149  0.3156  0.0031
 5565TIP3    H238111   3.910   0.395  11.468  1.8481  2.8723  2.1715
 5566TIP3   OH238112   3.093   5.122  16.197 -0.2738 -0.7173  0.4573
 5566TIP3    H138113   3.139   5.126  16.281 -0.0965  0.6669  0.3169
 5566TIP3    H238114   3.000   5.125  16.220 -0.2760  3.3109  0.5825
 5567TIP3   OH238115   1.114   6.778   5.952 -0.5266  0.8179  0.3814
 5567TIP3    H138116   1.180   6.808   5.890  0.4165 -0.5101  0.6909
 5567TIP3    H238117   1.124   6.682   5.954 -2.9531  0.4844 -0.1008
 5568TIP3   OH238118   3.082   5.247   5.236  0.1062 -0.1005  0.1141
 5568TIP3    H138119   3.173   5.269   5.218 -0.2574  0.8130 -0.6652
 5568TIP3    H238120   3.031   5.320   5.201 -0.9739 -0.9302 -0.1273
 5569TIP3   OH238121   1.034   0.143   4.867  0.1158  0.3799  0.2076
 5569TIP3    H138122   1.042   0.237   4.852  0.4232  0.2033 -0.8036
 5569TIP3    H238123   1.101   0.124   4.932 -0.3475  0.9477  0.8744
 5570TIP3   OH238124   3.598   2.467  16.549  0.1453  0.4695 -0.0244
 5570TIP3    H138125   3.688   2.435  16.538 -0.0104 -0.4817  1.3132
 5570TIP3    H238126   3.546   2.389  16.565 -1.2330  0.8298 -2.3028
 5571TIP3   OH238127   2.477   4.784   4.400  0.4902 -0.1501  0.1438
 5571TIP3    H138128   2.394   4.785   4.448  0.0879  0.2764 -0.5539
 5571TIP3    H238129   2.544   4.781   4.468 -0.0931 -0.5243  0.7154
 5572TIP3   OH238130   3.563   6.126  15.669  0.0303 -0.0066 -0.2609
 5572TIP3    H138131   3.580   6.124  15.763 -1.7914  1.2951  0.1486
 5572TIP3    H238132   3.650   6.129  15.629  0.8934  3.3856  1.5098
 5573TIP3   OH238133   3.047   4.969   4.606 -0.0469 -0.1651 -0.1425
 5573TIP3    H138134   3.129   4.924   4.624  0.8753  1.3712 -0.3081
 5573TIP3    H238135   3.063   5.060   4.632 -2.0342 -0.0305  0.7826
 5574TIP3   OH238136   3.905   4.546   0.422  0.1482  0.1424 -0.4727
 5574TIP3    H138137   3.901   4.589   0.337 -4.5522  2.7041  0.6929
 5574TIP3    H238138   3.855   4.465   0.410  1.1993 -0.5054 -0.5619
 5575TIP3   OH238139   5.376   2.923   0.509 -0.3994 -0.5153  0.4890
 5575TIP3    H138140   5.329   2.841   0.528 -0.9032 -0.2526  0.3951
 5575TIP3    H238141   5.427   2.940   0.588  0.3783 -1.3690  0.1865
 5576TIP3   OH238142   4.231   1.504  16.294  0.4370 -0.3695 -0.3829
 5576TIP3    H138143   4.287   1.582  16.286 -1.9460  1.6541  0.9066
 5576TIP3    H238144   4.235   1.481  16.387  0.6170 -1.4003 -0.6385
 5577TIP3   OH238145   5.497   2.948   4.974 -0.1760  0.2543  0.3316
 5577TIP3    H138146   5.410   2.945   5.016  0.1412  0.4399  1.0198
 5577TIP3    H238147   5.479   2.971   4.883 -0.7683  1.3725  0.7179
 5578TIP3   OH238148   4.991   3.199   2.425 -0.4237 -0.4142 -0.3344
 5578TIP3    H138149   5.022   3.112   2.401 -0.9831 -0.5838 -0.4704
 5578TIP3    H238150   5.070   3.252   2.434 -0.0863 -0.9193 -0.3210
 5579TIP3   OH238151   2.704   2.988  16.689  0.3342 -0.1912 -0.7661
 5579TIP3    H138152   2.681   3.059  16.629  0.6846  0.9230  0.3531
 5579TIP3    H238153   2.647   3.003  16.765 -1.4185 -2.6491 -1.4899
 5580TIP3   OH238154   3.944   1.909   0.499 -0.5012  0.4541 -0.6380
 5580TIP3    H138155   3.914   1.955   0.577  1.1412  0.4236  0.0642
 5580TIP3    H238156   4.038   1.928   0.495 -0.3647 -0.3736 -2.0416
 5581TIP3   OH238157   6.236   6.244  16.664  0.3014  0.3449  0.0434
 5581TIP3    H138158   6.174   6.203  16.603  0.2952 -0.4547  0.5670
 5581TIP3    H238159   6.322   6.218  16.631  0.2941 -2.8967  2.1398
 5582TIP3   OH238160   1.700   3.966   1.147 -0.4400 -0.2547 -0.4871
 5582TIP3    H138161   1.688   3.879   1.108  0.1839 -1.0210  0.9466
 5582TIP3    H238162   1.794   3.983   1.139 -0.0988 -0.9137  1.5745
 5583TIP3   OH238163   5.659   6.088   3.065  0.2914  0.4417 -0.4599
 5583TIP3    H138164   5.715   6.125   2.997  0.8833  1.2679  0.4541
 5583TIP3    H238165   5.590   6.153   3.078  0.5790  0.6158  0.2175
 5584TIP3   OH238166   4.106   1.002   3.442 -0.6890 -0.3910  0.1677
 5584TIP3    H138167   4.064   1.052   3.512 -0.4689 -0.2838  0.2228
 5584TIP3    H238168   4.035   0.949   3.405 -0.6633 -1.0065  0.9563
 5585TIP3   OH238169   1.245   6.711   1.440 -0.0718 -0.2928 -0.3275
 5585TIP3    H138170   1.281   6.758   1.514 -2.4826 -1.6728  1.8816
 5585TIP3    H238171   1.207   6.779   1.384 -0.7831  0.6485  1.2292
 5586TIP3   OH238172   2.281   6.085   4.161  0.5493 -0.0499 -0.2405
 5586TIP3    H138173   2.333   6.160   4.133  1.1353 -0.7529 -1.0594
 5586TIP3    H238174   2.200   6.092   4.111  0.0254  0.7660  0.6716
 5587TIP3   OH238175   3.571   1.124  12.928 -0.9749 -0.2096  0.5491
 5587TIP3    H138176   3.544   1.082  13.010 -1.6730 -2.1586 -0.6172
 5587TIP3    H238177   3.666   1.125  12.932 -0.9794  2.2099  2.5198
 5588TIP3   OH238178   1.576   0.297  12.728 -0.4070  0.0139  0.5547
 5588TIP3    H138179   1.527   0.248  12.663 -0.4763  0.8194 -0.0094
 5588TIP3    H238180   1.666   0.296  12.696 -0.5731  1.0764  0.0248
 5589TIP3   OH238181   3.406   3.776  14.918 -0.6952 -0.1550 -0.3367
 5589TIP3    H138182   3.332   3.732  14.875 -0.7388 -0.3299 -0.0823
 5589TIP3    H238183   3.476   3.772  14.852 -1.1033  0.5935 -0.8284
 5590TIP3   OH238184   2.880   5.845   1.281 -0.3856 -0.4693 -0.1395
 5590TIP3    H138185   2.813   5.781   1.255  0.0371 -1.3939  0.9245
 5590TIP3    H238186   2.940   5.848   1.206 -0.5950 -1.0740 -0.3429
 5591TIP3   OH238187   4.651   6.089   0.989  1.0555 -0.1492  0.2176
 5591TIP3    H138188   4.669   6.182   0.978  0.9885 -0.4459 -3.8201
 5591TIP3    H238189   4.565   6.086   1.032  0.3948  1.7172 -0.8573
 5592TIP3   OH238190   6.740   1.882   3.009 -0.1309  0.2632  1.0639
 5592TIP3    H138191   6.737   1.800   3.059  0.7528 -0.5215 -0.1141
 5592TIP3    H238192   6.656   1.886   2.963 -1.2537  1.3450  3.0711
 5593TIP3   OH238193   3.375   3.072   0.768 -0.6875  0.4917 -0.0819
 5593TIP3    H138194   3.356   2.978   0.762  1.3487 -0.0691  1.2626
 5593TIP3    H238195   3.373   3.102   0.677  1.7304 -1.5939 -0.9741
 5594TIP3   OH238196   5.970   4.682   4.822  0.4545  0.1684 -0.4796
 5594TIP3    H138197   5.887   4.721   4.794  0.2534  0.0477 -0.0593
 5594TIP3    H238198   6.009   4.746   4.881  0.2829 -0.1181 -0.0528
 5595TIP3   OH238199   4.216   4.688  15.821 -0.8029  0.3593  0.0102
 5595TIP3    H138200   4.129   4.658  15.850 -0.5091  1.4630  2.2464
 5595TIP3    H238201   4.199   4.771  15.777 -0.8092  1.1987  1.5384
 5596TIP3   OH238202   1.019   1.596  15.908  0.4006  0.0543 -0.0395
 5596TIP3    H138203   1.055   1.508  15.915  0.9821  0.4322  2.4949
 5596TIP3    H238204   0.929   1.583  15.877  0.0740 -1.5398  1.4655
 5597TIP3   OH238205   0.242   6.002   3.717  0.0964 -0.9734 -0.2444
 5597TIP3    H138206   0.152   5.990   3.750 -0.1785 -0.7738 -0.9133
 5597TIP3    H238207   0.234   5.996   3.622  0.4136  1.4363 -0.4679
 5598TIP3   OH238208   1.093   3.149  15.692 -0.3383 -0.3073 -0.2135
 5598TIP3    H138209   1.101   3.133  15.786  0.5635 -0.0462 -0.2347
 5598TIP3    H238210   1.010   3.108  15.667  0.1805 -1.7648  0.3876
 5599TIP3   OH238211   2.053   6.124  14.642  0.2292  0.2327 -0.1391
 5599TIP3    H138212   2.131   6.069  14.649  0.9806  1.2393 -0.4057
 5599TIP3    H238213   2.057   6.181  14.719  1.4125  2.3345 -1.6681
 5600TIP3   OH238214   3.102   6.013   4.956 -0.1812 -0.3129  0.7899
 5600TIP3    H138215   3.030   5.993   5.016  0.3037 -0.9118  1.1694
 5600TIP3    H238216   3.062   6.007   4.869 -0.4735 -1.1568  0.9734
 5601TIP3   OH238217   3.673   6.779   3.171 -0.2827 -0.0949 -0.6802
 5601TIP3    H138218   3.681   6.718   3.243 -0.0533 -0.7552 -1.2519
 5601TIP3    H238219   3.707   6.732   3.095  0.6936  1.0278 -0.9784
 5602TIP3   OH238220   4.989   1.834   5.367 -0.6580  0.2234 -0.0125
 5602TIP3    H138221   4.965   1.759   5.421 -0.5940 -0.1964 -0.5590
 5602TIP3    H238222   4.980   1.909   5.426  0.1845 -0.2970  0.8090
 5603TIP3   OH238223   4.254   0.509   4.097 -0.0495  0.3749  0.0572
 5603TIP3    H138224   4.170   0.533   4.058  0.4897  2.4905  0.0880
 5603TIP3    H238225   4.232   0.475   4.184 -0.9060  0.2159 -0.2187
 5604TIP3   OH238226   3.308   4.187  14.969  0.2684 -0.3440 -0.3135
 5604TIP3    H138227   3.264   4.219  14.891 -1.2884  1.0513  1.0735
 5604TIP3    H238228   3.238   4.163  15.029  1.3790  0.2104  1.2943
 5605TIP3   OH238229   1.104   0.681  15.330 -0.1794  0.4177  0.4269
 5605TIP3    H138230   1.157   0.700  15.253  1.4963  0.4189  1.5188
 5605TIP3    H238231   1.020   0.649  15.295 -0.1136  2.0501 -1.3769
 5606TIP3   OH238232   1.204   2.246  10.875  0.0200 -0.0902 -0.3690
 5606TIP3    H138233   1.151   2.259  10.797  0.3607 -0.8896 -0.7507
 5606TIP3    H238234   1.283   2.202  10.843  1.3954  1.9648  0.0240
 5607TIP3   OH238235   4.313   3.846   2.757  0.4779  0.3573  0.2987
 5607TIP3    H138236   4.386   3.820   2.812  1.5335 -0.6006 -1.4766
 5607TIP3    H238237   4.347   3.919   2.705  0.5535 -0.7043 -1.2183
 5608TIP3   OH238238   5.933   3.705  12.054 -0.0941  0.7883 -0.0562
 5608TIP3    H138239   6.004   3.743  12.105  0.1412  0.5194 -0.1770
 5608TIP3    H238240   5.872   3.777  12.039  0.5459  1.2143 -0.6451
 5609TIP3   OH238241   3.580   0.327   0.177 -0.2081  0.2721  0.1866
 5609TIP3    H138242   3.515   0.397   0.164 -0.9313 -0.5592 -0.8170
 5609TIP3    H238243   3.606   0.336   0.269 -1.0644  1.1991  0.3653
 5610TIP3   OH238244   3.068   4.750   5.126  0.4590 -0.4917  0.0434
 5610TIP3    H138245   3.083   4.839   5.158  1.1003 -0.4673 -0.2856
 5610TIP3    H238246   2.996   4.758   5.064  1.2413  0.0120 -0.8296
 5611TIP3   OH238247   1.537   5.634  11.786 -0.2426  0.3772  0.1578
 5611TIP3    H138248   1.465   5.639  11.849 -0.4539  0.7786 -0.1074
 5611TIP3    H238249   1.573   5.723  11.785 -0.3505  0.4184 -0.4111
 5612TIP3   OH238250   5.920   5.629  12.699 -0.3264 -0.0088 -0.3010
 5612TIP3    H138251   5.956   5.673  12.622 -0.4303 -1.7539 -1.3820
 5612TIP3    H238252   5.970   5.548  12.707 -0.5208 -0.0171  1.3150
 5613TIP3   OH238253   6.247   3.491   5.112  0.6575  0.2400 -0.2790
 5613TIP3    H138254   6.250   3.587   5.111  0.8089  0.2737  0.9798
 5613TIP3    H238255   6.212   3.470   5.199 -0.9977 -0.8264 -1.1549
 5614TIP3   OH238256   0.912   1.795   3.394 -0.3257 -0.0891  0.7514
 5614TIP3    H138257   0.859   1.716   3.395  1.6420 -1.4574  0.9543
 5614TIP3    H238258   0.897   1.835   3.480 -3.0134  1.0207 -0.1206
 5615TIP3   OH238259   3.739   4.154   4.445 -0.1988  0.7324  0.2887
 5615TIP3    H138260   3.753   4.193   4.532 -0.5361  2.2574 -0.3064
 5615TIP3    H238261   3.783   4.213   4.385 -0.9455  0.3204 -0.6884
 5616TIP3   OH238262   5.419   3.692   3.388  0.2678 -0.2763  0.6067
 5616TIP3    H138263   5.359   3.672   3.316 -0.3282 -1.0098  1.2831
 5616TIP3    H238264   5.393   3.632   3.457  0.6806  0.5776  1.5229
 5617TIP3   OH238265   3.231   3.266   2.511  0.3246  0.5449 -0.1654
 5617TIP3    H138266   3.178   3.197   2.470 -0.4993  0.8371  0.3661
 5617TIP3    H238267   3.308   3.274   2.455  0.3929 -0.7375 -0.2940
 5618TIP3   OH238268   4.829   3.622   3.988  0.1193  0.2358 -0.5924
 5618TIP3    H138269   4.749   3.585   4.024  0.4339 -0.9906 -1.0761
 5618TIP3    H238270   4.815   3.623   3.893  0.6511  0.0593 -0.6789
 5619TIP3   OH238271   3.371   3.294   0.931 -0.9660  0.5979  0.1635
 5619TIP3    H138272   3.321   3.353   0.874 -0.4073 -0.4096 -1.4448
 5619TIP3    H238273   3.377   3.212   0.881  2.2259  0.6591  0.2238
 5620TIP3   OH238274   1.705   3.686  10.708  0.0932 -0.5357  0.2702
 5620TIP3    H138275   1.675   3.652  10.623  0.9882 -1.1084  0.1696
 5620TIP3    H238276   1.791   3.723  10.689  1.0380 -2.1358  1.2251
 5621TIP3   OH238277   2.600   1.186   1.679 -0.4437 -0.1688 -0.2236
 5621TIP3    H138278   2.531   1.121   1.693 -2.0375  1.6113  0.7579
 5621TIP3    H238279   2.650   1.187   1.761 -0.2614 -0.3376 -0.3328
 5622TIP3   OH238280   1.696   5.759   6.421 -0.1863  0.0242  0.7353
 5622TIP3    H138281   1.724   5.766   6.512  1.4439  0.3655  0.2450
 5622TIP3    H238282   1.712   5.846   6.384 -2.8433  0.5269  0.6150
 5623TIP3   OH238283   4.194   1.790   5.013 -0.2204 -0.4029 -0.2078
 5623TIP3    H138284   4.196   1.871   5.064  0.7496 -1.2571  1.1970
 5623TIP3    H238285   4.278   1.747   5.033 -0.1011 -1.1117 -2.0184
 5624TIP3   OH238286   1.852   2.671  13.007  0.1785  0.1719  0.1668
 5624TIP3    H138287   1.811   2.593  13.043 -0.8560  0.9782  0.7795
 5624TIP3    H238288   1.884   2.644  12.921  0.4446 -1.0945  0.6439
 5625TIP3   OH238289   5.493   2.874   1.906 -0.4315 -0.1494  0.2234
 5625TIP3    H138290   5.586   2.857   1.914 -0.4195  0.3047  1.1127
 5625TIP3    H238291   5.451   2.792   1.931 -0.2874 -0.1236  0.5504
 5626TIP3   OH238292   4.691   1.779   5.042 -0.3082 -0.3925 -0.6204
 5626TIP3    H138293   4.618   1.730   5.080  1.0732 -1.3776  0.8782
 5626TIP3    H238294   4.757   1.713   5.022  0.2677  0.4914 -1.8051
 5627TIP3   OH238295   5.636   6.573   2.121 -0.4026 -0.2773  0.3185
 5627TIP3    H138296   5.590   6.539   2.198 -0.1251 -0.7746  0.2717
 5627TIP3    H238297   5.633   6.668   2.131  2.7853 -0.2679  2.8674
 5628TIP3   OH238298   3.290   6.380   1.190  0.1229  0.1407 -0.4975
 5628TIP3    H138299   3.242   6.449   1.144  0.7535  1.3497  0.5757
 5628TIP3    H238300   3.373   6.374   1.143 -0.3254 -0.6528 -1.2251
 5629TIP3   OH238301   2.591   1.233   5.710  0.0058 -0.6542  0.4586
 5629TIP3    H138302   2.646   1.247   5.787  0.4361 -0.2872  0.0910
 5629TIP3    H238303   2.612   1.306   5.652  0.9771 -1.8306 -0.7531
 5630TIP3   OH238304   1.005   2.291  14.460 -0.0801  0.3119 -0.5632
 5630TIP3    H138305   0.922   2.298  14.414 -0.8168  0.1898  0.7028
 5630TIP3    H238306   1.035   2.201  14.443 -0.3284  0.2744 -0.8028
 5631TIP3   OH238307   5.608   4.302   5.198 -0.3538 -0.3946  0.1292
 5631TIP3    H138308   5.698   4.324   5.223  0.1874  2.6462 -3.6242
 5631TIP3    H238309   5.555   4.372   5.237 -0.3174  0.7069 -1.6830
 5632TIP3   OH238310   3.383   5.208  12.621 -0.1506  0.9727  0.3052
 5632TIP3    H138311   3.406   5.296  12.589 -3.7783  2.6125  1.5971
 5632TIP3    H238312   3.413   5.208  12.712  0.2005  0.7312  0.1875
 5633TIP3   OH238313   3.780   5.102   1.611  0.7269  0.0224  0.3163
 5633TIP3    H138314   3.779   5.186   1.567  0.8854  0.3313  0.8881
 5633TIP3    H238315   3.869   5.069   1.599  0.9851  0.4385  1.0017
 5634TIP3   OH238316   2.314   2.170  14.048  0.2508  0.0984 -0.1764
 5634TIP3    H138317   2.391   2.197  13.998 -0.6139  0.7762 -1.1767
 5634TIP3    H238318   2.341   2.178  14.140  0.8839  1.8535 -0.4801
 5635TIP3   OH238319   1.768   3.601  14.866  0.7634 -0.5203 -0.7887
 5635TIP3    H138320   1.672   3.593  14.860  0.3393  2.3683  0.6626
 5635TIP3    H238321   1.791   3.660  14.794  1.4595 -1.0778 -1.0309
 5636TIP3   OH238322   0.723   6.810   0.008  0.0418 -0.1305  0.5042
 5636TIP3    H138323   0.792   6.809  -0.058 -0.0021 -1.7739  0.4372
 5636TIP3    H238324   0.755   6.751   0.076 -1.1646 -0.7248  0.5822
 5637TIP3   OH238325   0.960   4.448   5.657  0.7667  0.1377  0.4440
 5637TIP3    H138326   0.920   4.370   5.696 -0.4979  0.5625  0.0435
 5637TIP3    H238327   1.032   4.414   5.604 -0.6401 -0.9357 -0.8671
 5638TIP3   OH238328   3.804   6.735  14.410 -0.4507 -0.0883 -0.3118
 5638TIP3    H138329   3.788   6.783  14.328 -0.2459  0.4392 -0.0507
 5638TIP3    H238330   3.896   6.754  14.430 -0.3988 -0.5067 -0.1429
 5639TIP3   OH238331   5.894   0.926   3.098 -0.2251 -0.5596 -0.0760
 5639TIP3    H138332   5.804   0.953   3.114  0.3811  0.0294  2.8562
 5639TIP3    H238333   5.946   1.005   3.115  0.7739  0.5854 -6.2027
 5640TIP3   OH238334   3.220   0.558   5.047 -0.3558  0.3383  0.2833
 5640TIP3    H138335   3.170   0.495   4.995 -0.1559  2.2238 -2.4431
 5640TIP3    H238336   3.285   0.505   5.094 -0.9916 -1.5961 -0.9045
 5641TIP3   OH238337   2.575   0.472   3.923 -0.0686  0.6190 -0.2178
 5641TIP3    H138338   2.663   0.455   3.889 -0.1097  1.3408 -0.7075
 5641TIP3    H238339   2.557   0.397   3.981  0.8473  0.4471 -0.1337
 5642TIP3   OH238340   0.702   4.666   3.956  0.9119  0.6264  0.4466
 5642TIP3    H138341   0.681   4.639   4.045  0.9482 -0.0970  0.2459
 5642TIP3    H238342   0.620   4.656   3.908  0.5897  2.1352  0.6404
 5643TIP3   OH238343   5.500   4.462  14.213 -0.4755 -0.2764 -0.3685
 5643TIP3    H138344   5.590   4.463  14.181 -0.0019  1.0162  0.9017
 5643TIP3    H238345   5.450   4.509  14.147 -0.5775 -2.4422 -1.9221
 5644TIP3   OH238346   2.040   3.255  15.619  0.2530 -0.0682 -0.7079
 5644TIP3    H138347   1.980   3.202  15.671 -0.4934 -0.6639 -2.1006
 5644TIP3    H238348   1.989   3.334  15.597  0.5099  0.1161 -0.6409
 5645TIP3   OH238349   0.691   3.421  13.238  0.5935  0.3283  0.0547
 5645TIP3    H138350   0.643   3.504  13.251  0.8064  0.5869 -0.7575
 5645TIP3    H238351   0.783   3.448  13.231  0.6403  0.0553 -0.4417
 5646TIP3   OH238352   1.483   4.910  10.335 -0.1191 -0.3519  0.2714
 5646TIP3    H138353   1.559   4.885  10.282 -0.3324  0.6461 -0.5403
 5646TIP3    H238354   1.489   5.005  10.342  0.9541 -0.5320  3.6984
 5647TIP3   OH238355   0.699   0.856   4.949  0.1739  0.3364  0.4333
 5647TIP3    H138356   0.644   0.904   4.888  0.6099  0.4541  0.1244
 5647TIP3    H238357   0.688   0.764   4.926 -1.7112  0.1307  1.8887
 5648TIP3   OH238358   0.369   1.179  14.704 -0.9134  0.4338 -0.5179
 5648TIP3    H138359   0.332   1.261  14.734 -1.1545  0.0198  0.3512
 5648TIP3    H238360   0.464   1.195  14.699 -0.8958  0.5925  0.2272
 5649TIP3   OH238361   3.015   6.186  12.959  0.4954 -0.4097  0.4864
 5649TIP3    H138362   2.980   6.274  12.973 -1.2113 -1.1323  1.0433
 5649TIP3    H238363   3.076   6.173  13.032 -1.7629 -0.8836  2.3958
 5650TIP3   OH238364   1.011   1.029   4.299  0.2719  0.3185  0.3617
 5650TIP3    H138365   1.083   1.092   4.305  0.9407 -0.4696  0.8073
 5650TIP3    H238366   0.955   1.049   4.374  0.3261  0.5707  0.3367
 5651TIP3   OH238367   2.294   2.873   0.646 -0.6453  0.1464 -0.6381
 5651TIP3    H138368   2.294   2.934   0.720 -3.2781 -0.8908  0.3247
 5651TIP3    H238369   2.201   2.862   0.624 -0.1087 -1.8973 -2.1517
 5652TIP3   OH238370   3.416   5.225   0.823  0.2432 -0.0152  0.2997
 5652TIP3    H138371   3.331   5.229   0.866  0.4621  0.1731  0.7163
 5652TIP3    H238372   3.450   5.314   0.829  0.4878 -0.0997  0.1715
 5653TIP3   OH238373   5.724   4.020   4.424  0.0350  0.1889 -0.2690
 5653TIP3    H138374   5.787   4.081   4.463 -1.4806  1.3990  0.4020
 5653TIP3    H238375   5.697   4.062   4.343 -0.3717 -0.0250 -0.2462
 5654TIP3   OH238376   1.110   3.732   1.661  0.2464 -0.6108 -0.7133
 5654TIP3    H138377   1.093   3.638   1.656 -2.0078 -0.2680 -0.2427
 5654TIP3    H238378   1.042   3.766   1.719  1.5318  1.2105 -0.1874
 5655TIP3   OH238379   2.633   0.613  13.369  0.1768 -0.2986 -0.3043
 5655TIP3    H138380   2.671   0.653  13.291 -0.9400  0.3264 -0.5327
 5655TIP3    H238381   2.658   0.671  13.441 -0.2725  0.0576 -0.4397
 5656TIP3   OH238382   3.318   0.568   0.805  0.2661  0.3063 -0.2733
 5656TIP3    H138383   3.277   0.494   0.849  0.6741  1.2083  1.7419
 5656TIP3    H238384   3.411   0.561   0.825  0.5880  0.3681 -1.6282
 5657TIP3   OH238385   5.741   0.149  15.785  0.1312  0.4825  0.0389
 5657TIP3    H138386   5.824   0.192  15.805 -0.3148  1.3191  0.1538
 5657TIP3    H238387   5.692   0.214  15.735  0.6812 -1.0553 -2.7041
 5658TIP3   OH238388   4.612   3.791  16.223 -0.4297 -0.4183 -0.3221
 5658TIP3    H138389   4.612   3.834  16.137 -1.8179  0.4428  0.0772
 5658TIP3    H238390   4.619   3.698  16.203 -1.3532 -0.2745 -1.4199
 5659TIP3   OH238391   4.432   2.176  15.283  0.1863  0.0050  0.2926
 5659TIP3    H138392   4.464   2.146  15.368 -0.2033 -0.3676  0.3075
 5659TIP3    H238393   4.505   2.157  15.223 -0.1377 -1.2159  0.2558
 5660TIP3   OH238394   5.925   6.471   5.677 -0.2045 -0.8995  0.1298
 5660TIP3    H138395   5.869   6.539   5.713  2.7924  1.3542  0.9399
 5660TIP3    H238396   5.958   6.508   5.595  0.7664 -1.7809  0.1077
 5661TIP3   OH238397   2.065   1.690  13.104 -0.2020  0.4210  0.0969
 5661TIP3    H138398   2.116   1.738  13.038 -0.9920  1.1399  0.0036
 5661TIP3    H238399   1.974   1.712  13.085 -0.6001 -1.2134 -0.0188
 5662TIP3   OH238400   0.593   6.159  16.903 -0.1124 -0.0977 -0.1623
 5662TIP3    H138401   0.631   6.116  16.980 -0.5631 -0.6959 -0.2691
 5662TIP3    H238402   0.574   6.088  16.842  4.1911  0.6441 -2.7265
 5663TIP3   OH238403   5.078   1.873  15.719 -0.3004 -0.4087 -0.3379
 5663TIP3    H138404   5.025   1.951  15.735  3.1379  2.1424 -0.1406
 5663TIP3    H238405   5.100   1.841  15.807  1.3902  0.8138 -0.2690
 5664TIP3   OH238406   1.803   0.271  12.070  0.2621 -0.2218 -0.5564
 5664TIP3    H138407   1.740   0.337  12.039  0.7875  0.1104 -0.9355
 5664TIP3    H238408   1.843   0.312  12.147  1.5009  0.4557 -1.5307
 5665TIP3   OH238409   3.203   6.038   5.208 -0.1701 -0.2091  0.2126
 5665TIP3    H138410   3.170   6.008   5.123 -2.7172  0.0191  1.0485
 5665TIP3    H238411   3.246   5.961   5.245  0.7389 -0.3905 -1.1106
 5666TIP3   OH238412   2.958   5.439  10.882  0.6859 -0.1274  0.0413
 5666TIP3    H138413   3.029   5.471  10.938  1.4471  1.4632 -1.7302
 5666TIP3    H238414   2.881   5.488  10.911  0.7114 -0.4909  0.7377
 5667TIP3   OH238415   3.170   3.646   4.985 -0.0785  0.1049 -0.0361
 5667TIP3    H138416   3.081   3.639   5.020  0.0020  0.2910  0.2044
 5667TIP3    H238417   3.204   3.728   5.021  0.2292 -0.0189 -0.0435
 5668TIP3   OH238418   1.625   6.249  11.424  0.0065  0.1423  0.4174
 5668TIP3    H138419   1.684   6.185  11.464 -1.1455 -1.2614 -0.0346
 5668TIP3    H238420   1.555   6.196  11.387 -0.6919  1.6505 -0.4911
 5669TIP3   OH238421   5.880   6.619   0.409 -0.6703  0.2013 -0.3363
 5669TIP3    H138422   5.863   6.572   0.328 -2.1918  0.7230 -0.3576
 5669TIP3    H238423   5.910   6.706   0.381  0.5190 -0.1809 -0.3059
 5670TIP3   OH238424   0.278   2.201   0.042  0.9261  0.6863 -0.3286
 5670TIP3    H138425   0.221   2.195  -0.035  0.8129  1.2280 -0.2968
 5670TIP3    H238426   0.220   2.234   0.111  0.8561 -0.4741  0.1786
 5671TIP3   OH238427   0.516   6.317  16.473 -0.4757  0.6663  0.3258
 5671TIP3    H138428   0.587   6.253  16.474 -0.7705  0.1706 -2.3638
 5671TIP3    H238429   0.546   6.386  16.413 -2.2847  0.3413 -1.0506
 5672TIP3   OH238430   2.014   2.242   5.788  0.3348  0.3319  0.5875
 5672TIP3    H138431   2.102   2.243   5.749  0.9694 -0.4008  1.8932
 5672TIP3    H238432   2.001   2.332   5.819  1.4523  0.0631  2.0087
 5673TIP3   OH238433   2.708   4.002   0.220 -0.4803  0.2580 -0.2376
 5673TIP3    H138434   2.727   3.957   0.138 -0.7882  1.7076 -1.1481
 5673TIP3    H238435   2.649   3.943   0.267 -2.0981  0.3127 -2.0586
 5674TIP3   OH238436   4.560   6.309  11.599  0.3213 -0.1220  0.0778
 5674TIP3    H138437   4.505   6.382  11.572  0.3282  0.3472  1.2839
 5674TIP3    H238438   4.638   6.316  11.544  1.4476  2.2859  1.8035
 5675TIP3   OH238439   5.629   0.057   6.349 -0.1877  0.1997  0.3984
 5675TIP3    H138440   5.579  -0.024   6.348 -0.2895  0.2670  0.0929
 5675TIP3    H238441   5.715   0.031   6.383 -0.3056  0.0168  0.5633
 5676TIP3   OH238442   1.323   1.110   2.450 -0.3085  0.1774 -0.4650
 5676TIP3    H138443   1.399   1.053   2.435 -0.0695  0.3300  0.1198
 5676TIP3    H238444   1.253   1.050   2.475 -0.6540 -0.0572 -1.9168
 5677TIP3   OH238445   6.534   0.664   0.906 -0.0858  0.0607  0.4966
 5677TIP3    H138446   6.613   0.614   0.925 -0.4373 -0.7605 -0.1457
 5677TIP3    H238447   6.563   0.734   0.848  0.3598  0.4579  1.1779
 5678TIP3   OH238448   0.623   0.825  12.613  0.1815 -0.2858 -0.2338
 5678TIP3    H138449   0.622   0.733  12.584  0.4197 -0.6856  0.9461
 5678TIP3    H238450   0.698   0.863  12.569  1.4024 -1.2558  0.9037
 5679TIP3   OH238451   6.812   2.522  12.577 -0.1690  0.1667  0.2479
 5679TIP3    H138452   6.744   2.495  12.515  0.7399 -0.5052 -0.4743
 5679TIP3    H238453   6.852   2.598  12.536 -0.1706  0.2788  0.4545
 5680TIP3   OH238454   4.509   0.948  11.569  0.0459  0.4747 -0.1859
 5680TIP3    H138455   4.433   0.896  11.542 -0.4843  0.6043  0.9551
 5680TIP3    H238456   4.573   0.883  11.599 -0.0276  0.4102 -0.1692
 5681TIP3   OH238457   2.905   5.726  13.303  0.5166 -0.3471  0.0319
 5681TIP3    H138458   2.829   5.673  13.276  0.2027  0.5120 -0.8124
 5681TIP3    H238459   2.969   5.661  13.332  0.3381 -1.2687 -1.4650
 5682TIP3   OH238460   5.657   1.638  12.383  0.2530  0.0137 -0.1943
 5682TIP3    H138461   5.716   1.564  12.391  0.6230  0.3574  0.3117
 5682TIP3    H238462   5.670   1.688  12.463  0.3657  0.8777 -0.7342
 5683TIP3   OH238463   2.020   3.989   0.304  0.0943 -0.1805  0.8371
 5683TIP3    H138464   2.060   3.957   0.385 -1.5138 -1.2713  1.2461
 5683TIP3    H238465   1.943   4.039   0.334 -0.9737 -1.2706 -0.0053
 5684TIP3   OH238466   6.586   3.204   2.766  0.0402  0.2049 -0.8501
 5684TIP3    H138467   6.506   3.195   2.819  1.9075  0.3782  2.2197
 5684TIP3    H238468   6.651   3.150   2.811  2.2886  1.9086 -1.8836
 5685TIP3   OH238469   1.533   4.157  11.877 -0.5318  0.0545 -0.1066
 5685TIP3    H138470   1.627   4.137  11.881 -0.6222 -0.2103  1.1538
 5685TIP3    H238471   1.524   4.213  11.801  0.6573  0.0858 -0.2504
 5686TIP3   OH238472   2.040   6.433  10.937  0.4271 -0.0443  0.4831
 5686TIP3    H138473   1.973   6.400  10.878  0.5792  0.0663  0.2479
 5686TIP3    H238474   2.122   6.423  10.888  0.3409  1.9505 -0.1498
 5687TIP3   OH238475   6.563   3.324  12.093 -0.1165 -0.3176  0.4408
 5687TIP3    H138476   6.627   3.394  12.107  1.2893 -0.9053 -2.3588
 5687TIP3    H238477   6.614   3.243  12.099 -0.6622 -0.8302 -1.2934
 5688TIP3   OH238478   3.879   3.281  15.669  0.5809 -0.3395  0.0102
 5688TIP3    H138479   3.917   3.367  15.687  0.0853 -0.6304  2.9114
 5688TIP3    H238480   3.806   3.299  15.610  0.1223  1.3682  1.0281
 5689TIP3   OH238481   6.127   1.268   1.674 -0.3496  0.1656 -0.4558
 5689TIP3    H138482   6.218   1.247   1.694  0.0601  0.6463 -1.7174
 5689TIP3    H238483   6.096   1.315   1.751  0.2298 -0.6658  0.3028
 5690TIP3   OH238484   5.924   2.187   4.544 -0.7243 -0.4466  0.4043
 5690TIP3    H138485   5.883   2.253   4.600 -0.3203  0.2153 -0.0597
 5690TIP3    H238486   5.856   2.165   4.480 -0.2249  1.0818 -0.7269
 5691TIP3   OH238487   4.864   3.274   4.931  0.3140  0.6447 -0.1404
 5691TIP3    H138488   4.904   3.232   5.007 -0.9691 -0.5984 -0.1218
 5691TIP3    H238489   4.881   3.367   4.945  3.2002  0.2402 -0.1614
 5692TIP3   OH238490   6.626   6.089  15.446 -0.0487 -0.3237 -0.1773
 5692TIP3    H138491   6.536   6.076  15.475  0.0253  0.7029  0.5590
 5692TIP3    H238492   6.668   6.003  15.458 -0.4138 -0.3151  1.3569
 5693TIP3   OH238493   6.495   3.975   3.730  0.1909 -0.7963  0.7161
 5693TIP3    H138494   6.521   3.960   3.821 -2.2428 -1.7889  1.3577
 5693TIP3    H238495   6.401   3.992   3.736  0.1085 -0.1992 -1.5738
 5694TIP3   OH238496   1.097   0.291  16.394 -0.6070 -0.5343 -0.3742
 5694TIP3    H138497   1.037   0.218  16.377 -1.4063  0.3061 -1.2414
 5694TIP3    H238498   1.085   0.350  16.320 -1.2313  1.3125  1.1055
 5695TIP3   OH238499   3.136   1.515  11.889  0.1087 -0.6778  0.4341
 5695TIP3    H138500   3.173   1.427  11.893 -0.5254 -0.9287  1.1785
 5695TIP3    H238501   3.051   1.507  11.934 -0.4529  0.0642 -0.4706
 5696TIP3   OH238502   2.710   1.931  16.636 -0.0757  0.1212 -0.4698
 5696TIP3    H138503   2.708   1.878  16.716 -0.4162 -2.7228 -2.2291
 5696TIP3    H238504   2.802   1.954  16.625  0.1454 -0.4045  0.1821
 5697TIP3   OH238505   4.104   1.230   5.033  0.2578  0.4476 -0.8274
 5697TIP3    H138506   4.085   1.142   5.064 -0.0799  0.3947 -1.1897
 5697TIP3    H238507   4.191   1.249   5.069  0.9378 -0.5612 -1.8630
 5698TIP3   OH238508   3.688   2.339   4.966  0.6156 -0.0539 -0.1267
 5698TIP3    H138509   3.742   2.414   4.989  2.8309 -1.1563 -1.4771
 5698TIP3    H238510   3.662   2.301   5.050 -0.8066  2.2952  0.5984
 5699TIP3   OH238511   1.675   5.082  16.169 -0.6696 -0.0460 -0.4643
 5699TIP3    H138512   1.755   5.128  16.194 -0.5992 -0.2919 -0.2438
 5699TIP3    H238513   1.677   5.080  16.073 -0.9766  0.9604 -0.5064
 5700TIP3   OH238514   4.073   5.614   1.832  0.2214  0.1255 -0.4535
 5700TIP3    H138515   3.996   5.657   1.794  0.2294 -0.7483 -1.5149
 5700TIP3    H238516   4.038   5.549   1.892  0.2016  1.3187  0.8651
 5701TIP3   OH238517   5.775   4.744  13.724  0.6333 -0.3311  0.1357
 5701TIP3    H138518   5.689   4.707  13.705  1.2445 -1.4211 -0.6461
 5701TIP3    H238519   5.819   4.748  13.639  0.7928  1.7429  0.2758
 5702TIP3   OH238520   0.790   1.329   4.156  0.3080  0.0200  0.3531
 5702TIP3    H138521   0.739   1.408   4.139 -0.7106 -0.4460  1.1458
 5702TIP3    H238522   0.725   1.260   4.170  1.1681 -1.2532 -1.5303
 5703TIP3   OH238523   6.319   0.931  12.915 -0.0875 -0.3754 -0.1749
 5703TIP3    H138524   6.290   0.946  13.005  1.0063 -1.2290  0.3459
 5703TIP3    H238525   6.410   0.901  12.924 -0.0161 -0.6289 -1.5527
 5704TIP3   OH238526   4.190   3.532   4.180 -0.4425 -0.6605  0.5482
 5704TIP3    H138527   4.181   3.603   4.244  4.0882  0.4547  0.3322
 5704TIP3    H238528   4.177   3.452   4.231 -3.0735  0.1958  1.3717
 5705TIP3   OH238529   0.050   4.354   0.419  0.0651  0.2484  0.2018
 5705TIP3    H138530   0.025   4.300   0.495 -1.2707  1.2782  0.5450
 5705TIP3    H238531  -0.030   4.402   0.397  1.0378  1.6178 -0.4782
 5706TIP3   OH238532   2.935   2.774   3.702  0.0502 -0.0182  0.0790
 5706TIP3    H138533   2.854   2.821   3.719 -0.5799 -0.6453 -1.0578
 5706TIP3    H238534   2.953   2.726   3.783 -1.3265 -0.7447 -0.0302
 5707TIP3   OH238535   2.308   3.483   2.597  0.2857  0.1732  0.6817
 5707TIP3    H138536   2.254   3.468   2.674 -0.8381 -0.4360 -0.1963
 5707TIP3    H238537   2.337   3.574   2.605 -2.7309  1.2819  0.0727
 5708TIP3   OH238538   4.051   5.995  14.377 -0.6593 -0.2552  0.3999
 5708TIP3    H138539   4.000   5.952  14.308 -0.9661  0.1356  0.3861
 5708TIP3    H238540   4.138   6.005  14.338 -1.0194  0.6268 -0.2108
 5709TIP3   OH238541   5.576   1.574  15.172 -0.0219 -0.0016 -0.2734
 5709TIP3    H138542   5.555   1.658  15.214  0.9014 -0.9196  2.2519
 5709TIP3    H238543   5.513   1.513  15.210  0.9970 -0.9192 -0.0206
 5710TIP3   OH238544   0.038   2.139  11.720  0.1892 -0.1053 -0.6878
 5710TIP3    H138545  -0.001   2.117  11.636 -0.0888 -1.2028 -0.2841
 5710TIP3    H238546   0.026   2.233  11.729 -0.0265 -0.0287 -1.7436
 5711TIP3   OH238547   2.139   0.247   4.507  0.4960 -0.4096  0.3624
 5711TIP3    H138548   2.054   0.230   4.547  0.9016 -1.6916  0.7261
 5711TIP3    H238549   2.121   0.252   4.413 -0.0899  0.1364  0.4976
 5712TIP3   OH238550   4.461   4.370  14.186 -0.0503  0.1428  0.4108
 5712TIP3    H138551   4.443   4.308  14.115  0.8246 -1.3220  1.4225
 5712TIP3    H238552   4.555   4.384  14.182 -0.2589  1.7226  0.0022
 5713TIP3   OH238553   4.718   3.071  12.527  0.2576 -0.6687 -0.1421
 5713TIP3    H138554   4.649   3.091  12.590  0.8820 -1.2659  0.7520
 5713TIP3    H238555   4.692   2.988  12.488  0.1200 -0.5362 -0.3427
 5714TIP3   OH238556   5.543   2.690   0.241  0.4776 -0.2384 -0.0940
 5714TIP3    H138557   5.523   2.651   0.156 -0.9733  0.2831 -0.0218
 5714TIP3    H238558   5.637   2.675   0.253  0.7366 -0.1788 -1.8446
 5715TIP3   OH238559   1.253   0.540  14.275  0.0804  0.0883  0.3620
 5715TIP3    H138560   1.240   0.630  14.244  2.0645  0.6494  1.0373
 5715TIP3    H238561   1.197   0.533  14.352 -1.1284  0.2716 -0.4708
 5716TIP3   OH238562   5.293   2.844   0.904 -0.6777 -0.0948  0.0491
 5716TIP3    H138563   5.308   2.845   0.810 -0.0279 -1.1705  0.1204
 5716TIP3    H238564   5.200   2.822   0.914 -0.6963 -0.1928 -0.3372
 5717TIP3   OH238565   5.921   0.609   1.150  0.2945 -0.3836  0.2594
 5717TIP3    H138566   6.003   0.590   1.105  0.0344  1.3449 -1.0400
 5717TIP3    H238567   5.939   0.689   1.199 -0.6098  0.0365 -0.0701
 5718TIP3   OH238568   5.421   2.426   2.242  0.6901  0.1763 -0.0250
 5718TIP3    H138569   5.339   2.378   2.251 -0.0008  1.4301  0.6483
 5718TIP3    H238570   5.423   2.454   2.150  0.6218 -0.2933 -0.1719
 5719TIP3   OH238571   6.262   2.227   3.937 -0.3417  0.1561  0.2610
 5719TIP3    H138572   6.255   2.137   3.970  0.4519  1.0850  3.3511
 5719TIP3    H238573   6.354   2.251   3.954 -0.0210  0.9843 -2.2820
 5720TIP3   OH238574   1.281   0.584   4.430 -0.3017 -0.3936 -0.0609
 5720TIP3    H138575   1.231   0.648   4.480 -0.7728 -0.0506 -0.9475
 5720TIP3    H238576   1.357   0.632   4.398 -0.4782 -0.3619 -0.4387
 5721TIP3   OH238577   5.493   1.262  11.079  0.4509 -0.7496 -0.6767
 5721TIP3    H138578   5.415   1.245  11.026  0.7442 -0.5853 -1.1590
 5721TIP3    H238579   5.458   1.291  11.164 -0.0164  0.9097 -1.3956
 5722TIP3   OH238580   3.988   2.173   1.668 -0.7587 -0.1190 -0.3477
 5722TIP3    H138581   3.926   2.246   1.664 -1.1758 -0.4858 -0.6426
 5722TIP3    H238582   3.946   2.103   1.619 -0.0323 -0.3202 -0.6942
 5723TIP3   OH238583   4.541   6.551  15.665 -0.0137  0.3430  0.7356
 5723TIP3    H138584   4.499   6.471  15.636  0.1363  0.0289  1.3661
 5723TIP3    H238585   4.480   6.587  15.731 -0.6353  1.3439 -0.3423
 5724TIP3   OH238586   5.981   2.443   4.087 -0.3620  0.1492  0.5893
 5724TIP3    H138587   5.916   2.506   4.118  0.2536  0.5905  1.0037
 5724TIP3    H238588   5.935   2.359   4.089 -0.8363  0.4109  1.1282
 5725TIP3   OH238589   6.073   1.267   3.422  0.0440  0.3978  0.2048
 5725TIP3    H138590   6.064   1.212   3.344  2.4171  0.0749  0.1099
 5725TIP3    H238591   6.050   1.208   3.494 -2.9403  0.9049 -0.1894
 5726TIP3   OH238592   4.540   3.916  14.290 -0.8682 -0.9572 -0.2899
 5726TIP3    H138593   4.591   3.972  14.349 -0.9751 -1.4173  0.2508
 5726TIP3    H238594   4.464   3.889  14.342 -1.6368 -0.3388 -1.0611
 5727TIP3   OH238595   3.637   1.857   5.333 -0.3881  0.7367  0.0349
 5727TIP3    H138596   3.600   1.813   5.409  0.0195  2.2265  1.1464
 5727TIP3    H238597   3.724   1.820   5.322 -0.7266 -0.0042 -0.1705
 5728TIP3   OH238598   1.890   5.485  12.715 -0.2004 -0.1147 -0.3058
 5728TIP3    H138599   1.914   5.471  12.623  1.1556  0.4527 -0.0635
 5728TIP3    H238600   1.974   5.491  12.761 -0.7441  2.6753  0.5022
 5729TIP3   OH238601   4.849   0.903   1.231  0.1819  0.0337  0.0275
 5729TIP3    H138602   4.928   0.958   1.229  0.0523  0.2088 -0.2940
 5729TIP3    H238603   4.812   0.911   1.143 -0.7678  0.7695  0.4780
 5730TIP3   OH238604   0.231   4.193   0.780  0.2566 -0.0432  0.0323
 5730TIP3    H138605   0.237   4.245   0.860  0.5173 -0.7828  0.4996
 5730TIP3    H238606   0.146   4.149   0.787  0.4666 -0.4362  0.1054
 5731TIP3   OH238607   0.755   0.566   5.505  0.6474 -0.3442  0.5232
 5731TIP3    H138608   0.765   0.661   5.508  2.2165 -0.4475 -0.3631
 5731TIP3    H238609   0.697   0.550   5.431 -2.1526  0.0012  2.4595
 5732TIP3   OH238610   5.811   0.906  14.256  0.2226  0.3685 -0.1964
 5732TIP3    H138611   5.846   0.914  14.345 -0.3867 -0.3881  0.1189
 5732TIP3    H238612   5.840   0.986  14.212  0.7967  0.6060  0.5887
 5733TIP3   OH238613   4.846   2.374   4.152 -0.6795 -0.2114  0.2769
 5733TIP3    H138614   4.770   2.368   4.210 -0.6580 -0.6051  0.2645
 5733TIP3    H238615   4.823   2.442   4.089  0.6128  2.7629  2.7174
 5734TIP3   OH238616   5.025   0.084  16.023 -0.0402  0.2944  0.3851
 5734TIP3    H138617   5.087   0.019  15.990 -0.6982  0.2200 -0.7685
 5734TIP3    H238618   5.012   0.145  15.950 -0.5858  0.8521  0.9321
 5735TIP3   OH238619   6.168   0.711  13.318  0.3904 -0.2040 -0.4047
 5735TIP3    H138620   6.079   0.694  13.289 -0.0104 -1.5849  1.3999
 5735TIP3    H238621   6.220   0.643  13.276  0.2513 -0.5738  0.0092
 5736TIP3   OH238622   4.654   5.048   5.157  0.5565  1.0166 -0.2517
 5736TIP3    H138623   4.654   4.953   5.152  1.4618  1.0178 -0.5057
 5736TIP3    H238624   4.729   5.069   5.213  1.2575  1.6173 -1.3812
 5737TIP3   OH238625   2.311   1.046   1.319  0.3839 -0.3242 -0.1980
 5737TIP3    H138626   2.321   1.093   1.402 -2.3923 -2.1484  1.3431
 5737TIP3    H238627   2.330   1.111   1.252 -2.6513  2.9732  1.7742
 5738TIP3   OH238628   0.310   5.567   1.141  0.1836  0.5420  0.0250
 5738TIP3    H138629   0.233   5.612   1.177  0.8072  1.5136  0.1890
 5738TIP3    H238630   0.275   5.485   1.105 -0.5673 -0.1087  2.1187
 5739TIP3   OH238631   5.222   2.116  11.939  0.3480  0.2506 -0.5706
 5739TIP3    H138632   5.166   2.129  11.863 -1.0214  0.1528  0.3821
 5739TIP3    H238633   5.161   2.109  12.013  1.6278  0.2850  0.5304
 5740TIP3   OH238634   4.976   5.662  11.233 -0.0114 -0.3400  0.7275
 5740TIP3    H138635   4.912   5.717  11.187 -0.5198 -0.5269  1.1960
 5740TIP3    H238636   5.006   5.717  11.306  1.4013  0.2622 -0.2685
 5741TIP3   OH238637   6.136   2.150  11.314 -0.1433  0.1953  0.1341
 5741TIP3    H138638   6.220   2.187  11.289 -0.3728 -0.7220 -2.3160
 5741TIP3    H238639   6.079   2.226  11.325  0.4220  0.7422 -0.5874
 5742TIP3   OH238640   1.941   3.196  14.650  0.0806 -0.0439 -0.2510
 5742TIP3    H138641   1.944   3.257  14.723  1.2919 -0.9320  0.4904
 5742TIP3    H238642   2.030   3.199  14.613 -0.0095 -0.8987 -0.5647
 5743TIP3   OH238643   4.418   3.667  15.033 -0.3891  0.2567 -0.0275
 5743TIP3    H138644   4.412   3.626  15.119  0.0611  1.0006  0.3651
 5743TIP3    H238645   4.439   3.758  15.050 -0.3681  0.4364 -0.9254
 5744TIP3   OH238646   2.581   6.307   2.601 -0.0479 -0.0084  0.4971
 5744TIP3    H138647   2.594   6.223   2.557 -0.9865 -0.1467  0.4754
 5744TIP3    H238648   2.592   6.372   2.531 -0.6686 -0.1835  0.2328
 5745TIP3   OH238649   5.888   1.415  11.950  0.0663 -0.1582  0.3004
 5745TIP3    H138650   5.924   1.482  11.892 -1.3053  0.4557  0.1172
 5745TIP3    H238651   5.938   1.423  12.031  0.8909  0.0905 -0.2195
 5746TIP3   OH238652   2.209   1.184   2.817  0.0348 -0.2704  0.1403
 5746TIP3    H138653   2.285   1.140   2.855  1.1470 -0.5183 -2.2082
 5746TIP3    H238654   2.171   1.233   2.890  3.7429  1.7220  0.9963
 5747TIP3   OH238655   0.950   3.160  11.579 -0.3326 -0.8062  0.2968
 5747TIP3    H138656   0.998   3.191  11.656 -1.2116  2.1908 -0.2040
 5747TIP3    H238657   1.009   3.178  11.506 -0.6918 -0.7230  0.0233
 5748TIP3   OH238658   3.775   3.119  16.641  0.1727 -0.4836 -0.2300
 5748TIP3    H138659   3.846   3.183  16.640  0.4751 -0.7971  0.5452
 5748TIP3    H238660   3.806   3.050  16.699 -1.1819 -0.1481  0.9409
 5749TIP3   OH238661   2.554   3.411   0.046  0.1345 -0.3697 -0.3188
 5749TIP3    H138662   2.462   3.433   0.058  0.5896  2.3327 -1.1096
 5749TIP3    H238663   2.596   3.494   0.023  2.6628 -1.6386 -0.6659
 5750TIP3   OH238664   5.988   2.120   2.937 -0.5098 -0.2711 -0.2288
 5750TIP3    H138665   6.074   2.101   2.975 -0.6288 -0.0314  0.1740
 5750TIP3    H238666   6.007   2.155   2.850 -0.2146 -0.4797 -0.2501
 5751TIP3   OH238667   4.518   2.514   5.728 -0.0943  0.2861 -0.0397
 5751TIP3    H138668   4.560   2.544   5.809 -0.2877  0.9647 -0.1863
 5751TIP3    H238669   4.427   2.542   5.736 -0.6911 -1.6583  0.5154
 5752TIP3   OH238670   4.734   3.169   1.588 -0.0841 -0.3299  0.4650
 5752TIP3    H138671   4.734   3.197   1.679  0.8858  0.2459  0.3045
 5752TIP3    H238672   4.697   3.081   1.590 -0.5494 -0.1224  1.3467
 5753TIP3   OH238673   2.547   1.871   3.652 -0.5748  0.4641 -0.2959
 5753TIP3    H138674   2.486   1.859   3.579 -0.6600 -0.2569 -0.1166
 5753TIP3    H238675   2.578   1.783   3.671 -1.1739  0.5343  1.0742
 5754TIP3   OH238676   5.162   5.916   0.107 -0.5984  0.2554 -0.2047
 5754TIP3    H138677   5.225   5.951   0.169 -3.5604  0.1494  3.1724
 5754TIP3    H238678   5.208   5.844   0.064  1.8290  0.7359  1.3845
 5755TIP3   OH238679   1.625   1.079   2.728  0.1467 -0.1226 -0.1249
 5755TIP3    H138680   1.698   1.099   2.669  0.1463  1.4800  0.3674
 5755TIP3    H238681   1.557   1.141   2.703 -0.5859 -0.7558  0.2692
 5756TIP3   OH238682   3.317   3.454  12.834  0.2595  0.2127 -0.5277
 5756TIP3    H138683   3.317   3.399  12.912 -1.9485 -2.2365 -2.0929
 5756TIP3    H238684   3.235   3.432  12.789  1.4492  1.4735 -3.5666
 5757TIP3   OH238685   3.288   1.497  12.867 -0.0340  0.0852 -0.2175
 5757TIP3    H138686   3.266   1.525  12.778  1.3225 -2.5810 -1.5322
 5757TIP3    H238687   3.204   1.484  12.909 -0.8663 -1.5704 -2.2077
 5758TIP3   OH238688   5.666   3.467  14.154 -0.1732 -0.8812 -0.1791
 5758TIP3    H138689   5.646   3.530  14.085 -1.8267 -0.2183  0.8472
 5758TIP3    H238690   5.612   3.391  14.132 -0.6201 -0.7079  0.3044
 5759TIP3   OH238691   6.438   3.106  12.390 -0.0310 -0.4483  0.5949
 5759TIP3    H138692   6.383   3.180  12.364  0.6782 -0.3979 -0.8474
 5759TIP3    H238693   6.405   3.081  12.477  0.4861  2.3168  1.6901
 5760TIP3   OH238694   1.183   1.656  11.194  0.3361  0.3429 -0.0607
 5760TIP3    H138695   1.109   1.600  11.221  1.7790 -1.6183  0.0548
 5760TIP3    H238696   1.233   1.669  11.274  0.8926  0.4411 -0.4216
 5761TIP3   OH238697   2.177   4.687   3.919 -0.0436  0.1541  0.2354
 5761TIP3    H138698   2.125   4.703   3.997  0.6961 -1.0348  1.0192
 5761TIP3    H238699   2.113   4.667   3.851 -0.6427 -1.3729  1.1989
 5762TIP3   OH238700   1.295   1.771  15.701 -0.3411  0.2560 -0.1978
 5762TIP3    H138701   1.252   1.762  15.786  0.2989 -0.3430  0.0666
 5762TIP3    H238702   1.223   1.780  15.639 -0.8197  0.5473  0.3862
 5763TIP3   OH238703   6.673   1.278  11.985  0.0743  0.2745 -0.0409
 5763TIP3    H138704   6.627   1.234  11.914  3.5868  0.7589 -2.9426
 5763TIP3    H238705   6.719   1.350  11.943  1.5891  1.2510  2.9554
 5764TIP3   OH238706   4.673   4.566   4.824  0.1008 -0.8998 -0.1512
 5764TIP3    H138707   4.618   4.642   4.811  0.6208 -0.8517 -2.4642
 5764TIP3    H238708   4.721   4.584   4.905  1.6054  2.1603 -1.5664
 5765TIP3   OH238709   2.710   1.297   3.623  0.0769  0.0361 -0.1803
 5765TIP3    H138710   2.624   1.257   3.610  0.5045 -0.2828 -2.5595
 5765TIP3    H238711   2.731   1.337   3.538  2.5272 -0.3998  0.1259
 5766TIP3   OH238712   1.611   0.080   0.983  0.2899  0.9719 -0.0470
 5766TIP3    H138713   1.585  -0.002   1.024 -1.2801  0.4058 -2.0406
 5766TIP3    H238714   1.698   0.062   0.947 -0.6659 -0.3803 -1.7998
 5767TIP3   OH238715   1.216   2.592   4.350  0.3424  0.0488 -0.1042
 5767TIP3    H138716   1.286   2.652   4.377 -0.3045  0.2354  1.1754
 5767TIP3    H238717   1.263   2.511   4.328  1.2027  0.9091 -1.6458
 5768TIP3   OH238718   3.432   0.357   3.472 -0.4017  0.1320  0.3579
 5768TIP3    H138719   3.480   0.393   3.397 -1.6727  1.9175  0.3297
 5768TIP3    H238720   3.444   0.263   3.464  0.0316  0.2949 -1.7396
 5769TIP3   OH238721   5.062   2.876  13.790 -0.0001  0.6461 -0.2479
 5769TIP3    H138722   4.998   2.842  13.853  0.9371  0.2713  0.5146
 5769TIP3    H238723   5.111   2.798  13.762  0.3089  0.9687 -0.6173
 5770TIP3   OH238724   3.228   2.458  15.884 -0.2309  0.3716 -0.5073
 5770TIP3    H138725   3.251   2.420  15.969 -2.0559 -0.4659 -0.3400
 5770TIP3    H238726   3.291   2.420  15.823 -0.0126 -0.4337  0.1904
 5771TIP3   OH238727   0.259   6.417   3.155  0.2987 -0.3372 -0.7136
 5771TIP3    H138728   0.171   6.447   3.176  0.9362  0.5553  0.8267
 5771TIP3    H238729   0.248   6.325   3.132 -0.8872 -0.5347  0.5252
 5772TIP3   OH238730   5.944   4.807   3.663 -0.0387 -0.4371  0.6260
 5772TIP3    H138731   5.871   4.747   3.647 -1.7520  1.7799 -0.5634
 5772TIP3    H238732   5.908   4.872   3.723  0.6006  1.1967 -0.6695
 5773TIP3   OH238733   5.801   0.331  15.018 -0.2814  0.1119  0.3289
 5773TIP3    H138734   5.859   0.342  14.943 -1.8438  1.1523 -0.7728
 5773TIP3    H238735   5.720   0.297  14.982 -0.1748 -2.0952  1.9503
 5774TIP3   OH238736   6.094   0.949  11.316  0.0781 -0.1955  0.2629
 5774TIP3    H138737   6.155   0.896  11.368  0.4900 -1.0861 -1.0725
 5774TIP3    H238738   6.092   0.905  11.231  0.9383  2.2987 -1.1338
 5775TIP3   OH238739   3.244   3.296   1.195 -0.5080 -0.6777 -0.5280
 5775TIP3    H138740   3.173   3.308   1.132 -0.8798 -0.8042 -0.1391
 5775TIP3    H238741   3.311   3.248   1.147  0.3652  1.5245 -1.6371
 5776TIP3   OH238742   1.344   3.558  16.497 -0.4048  0.2448 -0.3028
 5776TIP3    H138743   1.289   3.515  16.432  1.1129 -3.2802  0.4996
 5776TIP3    H238744   1.433   3.550  16.463  0.1915  0.4679  1.1263
 5777TIP3   OH238745   3.173   6.559   0.180  0.3852  0.4557  0.4181
 5777TIP3    H138746   3.207   6.629   0.236  4.2828 -1.7549  1.1933
 5777TIP3    H238747   3.201   6.584   0.092  3.2615 -0.6954  0.8885
 5778TIP3   OH238748   5.245   1.877  16.393  0.5227 -0.3780 -0.2710
 5778TIP3    H138749   5.333   1.904  16.419  0.9689 -1.6148 -0.4313
 5778TIP3    H238750   5.242   1.890  16.298  0.1899  0.5710 -0.1410
 5779TIP3   OH238751   2.909   2.473  16.506 -0.4781  0.1873  0.0053
 5779TIP3    H138752   2.935   2.510  16.591  0.7761 -2.4282  0.8473
 5779TIP3    H238753   2.953   2.388  16.502 -2.3529 -0.7779 -2.2788
 5780TIP3   OH238754   4.966   3.372  13.289  0.6061 -1.1174  0.1737
 5780TIP3    H138755   4.878   3.369  13.252 -0.3671  0.4870  2.1424
 5780TIP3    H238756   5.024   3.366  13.213 -1.2200  2.4736 -1.7825
 5781TIP3   OH238757   6.631   1.301  13.492 -0.4206  0.2604  0.5809
 5781TIP3    H138758   6.596   1.340  13.413 -0.0532  0.1335  0.3518
 5781TIP3    H238759   6.564   1.240  13.522  0.4215 -1.5594 -1.0088
 5782TIP3   OH238760   0.934   0.084   1.883 -0.3468  0.0695 -0.4560
 5782TIP3    H138761   0.847   0.111   1.854 -1.3724  0.4110  2.5622
 5782TIP3    H238762   0.925  -0.009   1.903  0.2720 -0.1100 -0.9578
 5783TIP3   OH238763   3.125   1.348   5.586 -0.3888 -0.2776 -0.0323
 5783TIP3    H138764   3.173   1.425   5.615 -0.0802 -0.8914  1.1818
 5783TIP3    H238765   3.187   1.300   5.532 -0.9496  0.8544 -1.7374
 5784TIP3   OH238766   1.623   6.114   0.892 -0.2312 -0.5368  0.3249
 5784TIP3    H138767   1.670   6.178   0.838  0.4587 -1.5692 -0.3179
 5784TIP3    H238768   1.691   6.053   0.922 -1.0558 -1.7068 -0.1239
 5785TIP3   OH238769   1.100   4.864   3.029  0.5345  0.1741  0.0002
 5785TIP3    H138770   1.124   4.843   3.119  0.3503 -0.2363 -0.0447
 5785TIP3    H238771   1.174   4.834   2.976 -0.5733 -2.3365 -0.2769
 5786TIP3   OH238772   3.074   6.048   3.548 -0.5799  0.1438 -0.1595
 5786TIP3    H138773   3.066   6.066   3.455 -1.4811 -1.3446 -0.4046
 5786TIP3    H238774   3.141   6.109   3.579  2.4478 -1.6805 -2.4742
 5787TIP3   OH238775   2.689   4.437  12.035 -0.2068 -0.0198 -0.1760
 5787TIP3    H138776   2.672   4.471  12.123  0.8860  1.5118 -0.5129
 5787TIP3    H238777   2.604   4.441  11.991 -0.5310  0.2572  0.4625
 5788TIP3   OH238778   1.032   3.127   4.234 -0.0639  0.0255  0.2347
 5788TIP3    H138779   1.049   3.068   4.159  0.8991  1.9584 -1.1563
 5788TIP3    H238780   1.118   3.162   4.256 -0.3472 -0.4292  2.2637
 5789TIP3   OH238781   6.163   5.077   3.614 -0.1490  0.2654  0.3745
 5789TIP3    H138782   6.250   5.100   3.648 -0.1356  1.3855 -0.3690
 5789TIP3    H238783   6.180   5.004   3.554  0.3844  0.8425 -0.2039
 5790TIP3   OH238784   3.711   0.941   1.443  0.8871  0.4925 -0.1984
 5790TIP3    H138785   3.759   0.996   1.381 -0.8046  1.1042 -1.0200
 5790TIP3    H238786   3.757   0.857   1.441  1.9357  1.0652 -0.9147
 5791TIP3   OH238787   0.045   4.660   3.146  0.5333 -0.0524  0.1133
 5791TIP3    H138788   0.114   4.631   3.206  3.0491  1.9210 -1.6357
 5791TIP3    H238789   0.072   4.747   3.118 -2.6017  0.7400 -0.9081
 5792TIP3   OH238790   1.280   6.560  13.941 -0.5609 -0.3180 -0.1617
 5792TIP3    H138791   1.344   6.508  13.990  0.0046  0.8884  0.4343
 5792TIP3    H238792   1.273   6.516  13.856  1.3316 -0.3036 -0.3689
 5793TIP3   OH238793   0.032   5.391  12.285  0.4903  0.4566  0.3319
 5793TIP3    H138794  -0.024   5.366  12.359  1.1274  0.4130  0.8095
 5793TIP3    H238795   0.066   5.307  12.252 -1.1067  0.3208 -1.0979
 5794TIP3   OH238796   5.250   1.213   4.951 -0.3546  0.4365  0.4788
 5794TIP3    H138797   5.325   1.165   4.987  1.3075  1.5507 -1.3354
 5794TIP3    H238798   5.190   1.144   4.922  0.7116 -0.5259  0.4739
 5795TIP3   OH238799   2.006   2.916  16.067 -0.1423 -0.1946  0.1373
 5795TIP3    H138800   1.936   2.851  16.080  0.0911 -0.2883  0.9596
 5795TIP3    H238801   1.966   2.999  16.092 -0.4039 -0.0288 -0.8007
 5796TIP3   OH238802   6.437   4.021   2.606  0.0954 -0.0648  0.0370
 5796TIP3    H138803   6.464   3.983   2.522  0.2374 -1.5779  0.7358
 5796TIP3    H238804   6.491   4.100   2.614  0.3310 -0.0848 -1.1321
 5797TIP3   OH238805   0.654   1.447   4.616 -0.1577  0.2183  0.0076
 5797TIP3    H138806   0.617   1.517   4.670  1.3357  0.4711  0.7232
 5797TIP3    H238807   0.745   1.440   4.644  0.2853 -0.5714 -1.5357
 5798TIP3   OH238808   0.987   0.500  16.835 -0.0279 -0.5700  0.4564
 5798TIP3    H138809   0.945   0.500  16.749 -1.3469  1.3227  1.0312
 5798TIP3    H238810   1.081   0.494  16.816 -0.3803 -3.0959 -0.9379
 5799TIP3   OH238811   6.647   5.519  12.670 -0.9045 -0.2677  0.4775
 5799TIP3    H138812   6.581   5.547  12.733 -1.6946 -0.8024 -0.0901
 5799TIP3    H238813   6.728   5.559  12.701 -1.7636  1.6878  0.3372
 5800TIP3   OH238814   5.182   4.421  13.092  0.1305 -0.7302 -0.0911
 5800TIP3    H138815   5.151   4.497  13.044  1.1994 -0.7216 -0.8251
 5800TIP3    H238816   5.119   4.352  13.071  0.6997 -0.7926 -1.7701
 5801TIP3   OH238817   1.842   4.838  12.102 -0.0559  0.2989  0.2447
 5801TIP3    H138818   1.827   4.759  12.050  0.8379 -1.0105  1.8577
 5801TIP3    H238819   1.766   4.844  12.159  0.2068  0.1590  0.6207
 5802TIP3   OH238820   2.341   0.635  12.151  0.2199  0.4992 -0.3224
 5802TIP3    H138821   2.380   0.554  12.183 -1.7828 -0.6332 -0.6294
 5802TIP3    H238822   2.410   0.674  12.097  1.5262 -0.5372  0.5122
 5803TIP3   OH238823   4.981   4.940  11.209 -0.2067  0.3230  0.6081
 5803TIP3    H138824   4.939   4.857  11.187  1.5769 -0.1888 -1.1001
 5803TIP3    H238825   4.942   4.964  11.294 -2.8830 -0.7419 -0.1946
 5804TIP3   OH238826   6.556   5.263  14.178 -0.6319 -0.0428  0.1380
 5804TIP3    H138827   6.575   5.179  14.218 -0.8071 -0.9395 -1.5792
 5804TIP3    H238828   6.512   5.242  14.095  0.7501  1.6656 -1.1219
 5805TIP3   OH238829   1.123   1.153  14.954 -0.0359  0.9307  0.2321
 5805TIP3    H138830   1.053   1.114  15.006  1.0276  2.2082  2.7992
 5805TIP3    H238831   1.083   1.229  14.912 -0.4178  1.0994  0.8923
 5806TIP3   OH238832   5.054   1.952   4.611  0.1623 -0.5780 -0.8140
 5806TIP3    H138833   5.148   1.949   4.593  0.2329 -1.5708 -0.3411
 5806TIP3    H238834   5.040   1.881   4.674 -0.5298  0.9665  0.8698
 5807TIP3   OH238835   4.626   5.090  15.448 -0.0950 -0.1030 -0.0610
 5807TIP3    H138836   4.582   5.092  15.533  1.0663 -1.4204  0.6170
 5807TIP3    H238837   4.660   5.179  15.436  1.3594 -0.3529  1.7831
 5808TIP3   OH238838   1.147   0.604   3.830 -0.3373  0.2238 -0.3196
 5808TIP3    H138839   1.224   0.578   3.778 -0.5413 -0.5879 -0.2345
 5808TIP3    H238840   1.147   0.543   3.904 -0.3719  1.0062  0.3395
 5809TIP3   OH238841   2.184   0.659  15.655 -0.7637  0.0459  0.8411
 5809TIP3    H138842   2.127   0.590  15.620 -1.0233  0.8789 -0.4525
 5809TIP3    H238843   2.268   0.616  15.670 -0.7035 -0.4053 -0.6625
 5810TIP3   OH238844   2.035   2.335   0.962  0.7012  0.0914 -0.5142
 5810TIP3    H138845   2.011   2.405   0.901 -1.1194  0.0187  0.0599
 5810TIP3    H238846   1.972   2.343   1.034  1.4675 -1.1418  0.3355
 5811TIP3   OH238847   0.017   1.084   5.375  0.4098 -0.0111  0.2386
 5811TIP3    H138848   0.020   1.178   5.355  1.0822 -0.1422 -0.3072
 5811TIP3    H238849   0.057   1.042   5.299  0.9001 -0.6845  0.8582
 5812TIP3   OH238850   2.946   5.871  15.426 -0.3132  0.0082 -0.1589
 5812TIP3    H138851   2.925   5.802  15.362 -0.3479 -0.3986  0.2830
 5812TIP3    H238852   3.030   5.905  15.398 -1.2768  1.2957 -1.6502
 5813TIP3   OH238853   6.331   0.789  14.869 -0.1815  0.8341 -0.3734
 5813TIP3    H138854   6.338   0.763  14.961  1.5711  3.0420  0.2041
 5813TIP3    H238855   6.240   0.772  14.846 -0.7344  0.4950  1.8477
 5814TIP3   OH238856   2.277   5.206   1.148 -0.4880  0.3314 -0.0827
 5814TIP3    H138857   2.292   5.237   1.059 -1.0029  2.4371  0.4904
 5814TIP3    H238858   2.182   5.193   1.153 -0.2734 -1.5089 -0.3221
 5815TIP3   OH238859   3.794   1.345  15.663  0.0296 -0.2765  0.7375
 5815TIP3    H138860   3.701   1.365  15.676  0.0970  0.3024  0.3634
 5815TIP3    H238861   3.837   1.388  15.737  0.1951  1.1678 -0.1766
 5816TIP3   OH238862   2.399   1.122   2.086  0.6489  0.4519  0.7322
 5816TIP3    H138863   2.469   1.070   2.124  1.1350  1.1184  0.7470
 5816TIP3    H238864   2.396   1.202   2.139  0.3555  0.7382  0.2902
 5817TIP3   OH238865   3.485   1.019  16.496  0.3748 -0.1490 -0.1908
 5817TIP3    H138866   3.424   1.025  16.570 -0.0132 -0.6683 -0.4577
 5817TIP3    H238867   3.482   0.927  16.471 -1.2227  0.3740 -2.2688
 5818TIP3   OH238868   4.992   0.120  11.168  0.4035 -0.5327 -1.1513
 5818TIP3    H138869   5.036   0.120  11.083 -0.2549  1.0057 -1.5213
 5818TIP3    H238870   5.043   0.179  11.222 -0.0978 -0.2578 -0.9741
 5819TIP3   OH238871   6.558   6.014  13.055  0.3339 -0.2365 -0.1907
 5819TIP3    H138872   6.642   5.992  13.094 -0.0709 -1.0543  0.2264
 5819TIP3    H238873   6.581   6.066  12.978  1.1712  0.4802  0.5254
 5820TIP3   OH238874   5.503   6.185  16.033  0.0933 -0.1115 -0.0401
 5820TIP3    H138875   5.578   6.199  16.090 -1.0339  0.5154  1.3598
 5820TIP3    H238876   5.536   6.130  15.962  1.6212 -0.6695  1.0534
 5821TIP3   OH238877   6.789   3.297   0.162 -0.0152 -0.0153  0.2897
 5821TIP3    H138878   6.856   3.242   0.203  0.6176  0.2511 -0.3784
 5821TIP3    H238879   6.755   3.244   0.090  0.0456  0.1682  0.1263
 5822TIP3   OH238880   0.575   4.131   5.744 -0.8412  0.5637 -0.1355
 5822TIP3    H138881   0.584   4.079   5.824  1.9184 -0.4815 -1.0175
 5822TIP3    H238882   0.559   4.066   5.675 -1.7890  1.3326 -0.6766
 5823TIP3   OH238883   4.169   3.158  15.255  0.0807 -0.1619  0.5165
 5823TIP3    H138884   4.142   3.154  15.163  1.6458  2.2683 -0.1243
 5823TIP3    H238885   4.208   3.072  15.271  1.1376 -0.1338 -1.5577
 5824TIP3   OH238886   4.523   6.514  14.500  0.9304  0.0984 -0.1449
 5824TIP3    H138887   4.522   6.575  14.426  1.6169  1.0609  0.6196
 5824TIP3    H238888   4.581   6.443  14.471 -0.7311 -0.8014 -1.4699
 5825TIP3   OH238889   1.672   5.333  15.904  0.0921  0.2386  0.1316
 5825TIP3    H138890   1.600   5.277  15.875 -0.3297 -0.0875  1.7412
 5825TIP3    H238891   1.707   5.289  15.981  0.5716  1.5506  0.6796
 5826TIP3   OH238892   5.100   5.774  13.586  0.7937 -0.1007  0.3385
 5826TIP3    H138893   5.167   5.707  13.575  0.9288 -0.2337  1.7741
 5826TIP3    H238894   5.147   5.857  13.572  1.1853 -0.2059  1.0101
 5827TIP3   OH238895   2.968   1.789  11.443 -0.2247 -0.1616  0.0821
 5827TIP3    H138896   2.925   1.758  11.363 -2.6334  1.8002  0.4817
 5827TIP3    H238897   2.955   1.718  11.506 -2.6172  0.1476  0.0290
 5828TIP3   OH238898   6.449   0.359   2.367  0.0544  0.0870 -0.1087
 5828TIP3    H138899   6.475   0.300   2.297  0.1624 -1.4575  1.1893
 5828TIP3    H238900   6.484   0.320   2.447  0.1824  1.9412  0.8041
 5829TIP3   OH238901   5.251   2.929  11.671  0.3024  0.2032  0.3680
 5829TIP3    H138902   5.181   2.885  11.719  1.0851 -0.0608  1.2850
 5829TIP3    H238903   5.315   2.859  11.652  0.3063  0.4267 -0.5090
 5830TIP3   OH238904   5.561   4.493   0.318 -0.3007 -0.5142  0.3891
 5830TIP3    H138905   5.617   4.541   0.379 -2.0925  0.3706  1.3849
 5830TIP3    H238906   5.598   4.404   0.317  1.7707  0.2979  0.1378
 5831TIP3   OH238907   2.018   5.136   1.020 -0.5460  0.4884 -0.2610
 5831TIP3    H138908   2.028   5.049   0.982 -1.4851  0.2244  0.0471
 5831TIP3    H238909   1.929   5.163   0.995  0.3911  2.2248 -2.0511
 5832TIP3   OH238910   3.008   3.726  14.732  0.5467  0.1919  0.0666
 5832TIP3    H138911   3.015   3.659  14.663  2.1766 -0.4723  0.8309
 5832TIP3    H238912   3.087   3.780  14.721  0.0344  1.0465  0.4545
 5833TIP3   OH238913   0.149   0.508  11.015  0.1367  0.2490 -0.6416
 5833TIP3    H138914   0.140   0.507  11.111 -0.6742 -2.9940 -0.6142
 5833TIP3    H238915   0.242   0.494  11.000 -0.0201 -1.6767 -0.1811
 5834TIP3   OH238916   0.009   1.580   2.656  0.0328 -0.0630 -0.2396
 5834TIP3    H138917   0.013   1.571   2.751 -0.3689 -0.3020 -0.2449
 5834TIP3    H238918  -0.037   1.663   2.642 -0.9403 -0.6006 -0.2346
 5835TIP3   OH238919   1.944   0.607  16.853 -0.2949 -0.1585 -0.1725
 5835TIP3    H138920   1.937   0.615  16.758  2.5839  4.6082 -0.2939
 5835TIP3    H238921   1.887   0.675  16.888  1.3833  0.6243  1.2176
 5836TIP3   OH238922   4.659   4.868  13.609 -0.0568 -0.1693 -0.9136
 5836TIP3    H138923   4.614   4.942  13.568 -0.7192 -0.2219 -0.2947
 5836TIP3    H238924   4.596   4.833  13.672  0.1479 -1.4381 -1.3846
 5837TIP3   OH238925   4.065   0.676   3.930 -0.3261 -0.0196  0.1195
 5837TIP3    H138926   4.148   0.673   3.882 -0.2161 -0.0961  0.3105
 5837TIP3    H238927   4.021   0.754   3.898  1.0263  1.6252  1.9829
 5838TIP3   OH238928   6.099   4.679  13.674 -0.0081  0.2744  0.3771
 5838TIP3    H138929   6.047   4.741  13.623  1.8615  0.9793 -0.7737
 5838TIP3    H238930   6.151   4.632  13.608  2.8173  1.5132  1.5756
 5839TIP3   OH238931   0.461   6.347  11.586  0.4136 -0.4737  0.2114
 5839TIP3    H138932   0.485   6.412  11.520  0.5490 -0.3333  0.3988
 5839TIP3    H238933   0.532   6.282  11.582 -0.0103 -0.9223 -0.3786
 5840TIP3   OH238934   6.336   4.256   4.733 -0.2528  0.0375  0.8331
 5840TIP3    H138935   6.416   4.211   4.760 -0.1792 -0.7137 -0.5589
 5840TIP3    H238936   6.304   4.207   4.658 -1.2206  1.2021  0.4377
 5841TIP3   OH238937   5.886   3.517  13.670  0.2934 -0.2027  0.4096
 5841TIP3    H138938   5.917   3.518  13.579  2.1025  1.4260  0.9745
 5841TIP3    H238939   5.844   3.602  13.682  0.0413 -0.4180  1.0903
 5842TIP3   OH238940   5.351   6.789  12.385 -0.2477  0.4350  0.0077
 5842TIP3    H138941   5.326   6.778  12.477  0.4480 -0.4716  0.1017
 5842TIP3    H238942   5.278   6.838  12.346 -1.5109 -0.8994  0.5832
 5843TIP3   OH238943   3.509   0.947   0.297  0.1332 -0.0600 -0.2640
 5843TIP3    H138944   3.486   1.028   0.251 -1.4219 -0.3077  0.0372
 5843TIP3    H238945   3.432   0.892   0.289  0.1947 -0.5105  1.7742
 5844TIP3   OH238946   2.471   1.329   0.073 -0.2057  0.9249 -0.1469
 5844TIP3    H138947   2.522   1.338   0.154  2.1223 -2.8709 -0.9751
 5844TIP3    H238948   2.536   1.309   0.006 -2.4400 -0.1040 -2.1433
 5845TIP3   OH238949   1.781   4.736   4.356  0.6328  0.2537  0.6711
 5845TIP3    H138950   1.743   4.755   4.441  2.1613 -0.7439  1.6387
 5845TIP3    H238951   1.710   4.694   4.307  0.3496 -1.2668  2.2854
 5846TIP3   OH238952   4.662   1.535   4.098  0.1396  0.1661 -0.4052
 5846TIP3    H138953   4.574   1.500   4.110 -1.1067  2.4696 -2.0704
 5846TIP3    H238954   4.659   1.621   4.141  0.7970  1.2654 -2.4313
 5847TIP3   OH238955   1.332   6.737  14.280 -0.4468 -0.1851  0.1131
 5847TIP3    H138956   1.270   6.664  14.283  1.5130 -1.8770  1.7764
 5847TIP3    H238957   1.414   6.701  14.315  0.4827  2.9261  1.4662
 5848TIP3   OH238958   2.589   5.892   1.740  0.5502  0.1863  0.1177
 5848TIP3    H138959   2.587   5.964   1.678  1.8474  0.2561  0.1319
 5848TIP3    H238960   2.646   5.827   1.699  0.4805 -0.2558  0.7120
 5849TIP3   OH238961   0.451   6.148   4.219  0.4776  0.7202  0.5028
 5849TIP3    H138962   0.421   6.097   4.293 -3.1259 -1.1861 -1.9762
 5849TIP3    H238963   0.510   6.090   4.172  0.2726  0.6946  0.2722
 5850TIP3   OH238964   3.940   5.522  11.535  0.0446  0.2819 -0.8924
 5850TIP3    H138965   3.960   5.599  11.589 -0.0817 -0.6699  0.5734
 5850TIP3    H238966   3.845   5.514  11.539  0.0788 -0.1068 -0.8093
 5851TIP3   OH238967   2.334   5.917   0.523 -0.6499  0.0954 -0.2936
 5851TIP3    H138968   2.426   5.912   0.496 -1.0289 -1.5513 -1.4194
 5851TIP3    H238969   2.333   5.986   0.589  0.9395  2.0539 -2.1227
 5852TIP3   OH238970   1.738   1.653  16.047 -0.0964  0.1425 -0.4756
 5852TIP3    H138971   1.681   1.700  15.986 -1.0703  1.0297  1.0697
 5852TIP3    H238972   1.786   1.722  16.093 -0.2451 -0.4372  0.5769
 5853TIP3   OH238973   5.404   0.175  16.071  0.3810 -0.1519 -0.8777
 5853TIP3    H138974   5.457   0.253  16.089  0.4343  0.0573 -1.8671
 5853TIP3    H238975   5.334   0.178  16.136  0.7617  0.3695 -0.4839
 5854TIP3   OH238976   2.106   5.572   0.581  0.1547 -0.1783 -0.2175
 5854TIP3    H138977   2.073   5.573   0.491 -0.8965  1.3341  0.1464
 5854TIP3    H238978   2.099   5.663   0.610 -1.3739 -0.9418  2.0459
 5855TIP3   OH238979   5.389   5.404   4.145  0.0584  0.0279  0.4145
 5855TIP3    H138980   5.392   5.316   4.108 -2.7042 -1.0400  2.3836
 5855TIP3    H238981   5.478   5.419   4.177  0.9330 -1.4564 -1.1644
 5856TIP3   OH238982   0.039   2.283  10.344  0.2036  0.3253 -0.5896
 5856TIP3    H138983  -0.017   2.216  10.384  0.8031 -0.0403 -0.3518
 5856TIP3    H238984  -0.022   2.340  10.296 -0.4516  0.3801  0.2923
 5857TIP3   OH238985   1.013   2.996   2.081 -0.4338  0.1379  0.4923
 5857TIP3    H138986   0.939   3.042   2.042 -2.0614 -2.2432  0.5091
 5857TIP3    H238987   1.007   3.016   2.175  0.2941  1.6476  0.2470
 5858TIP3   OH238988   5.865   5.926  11.985 -0.5847  0.5064 -0.6097
 5858TIP3    H138989   5.828   6.004  11.943 -0.0189  1.3181  0.3506
 5858TIP3    H238990   5.951   5.954  12.016 -1.2590  0.2022  1.7441
 5859TIP3   OH238991   0.524   3.709   2.067 -0.0026 -1.1878 -0.0202
 5859TIP3    H138992   0.475   3.737   1.989  1.1748  2.4170  0.3318
 5859TIP3    H238993   0.607   3.676   2.033  1.0501  1.5940 -0.4100
 5860TIP3   OH238994   5.996   2.091   1.519  0.2185 -0.6096  0.4617
 5860TIP3    H138995   5.946   2.011   1.530  2.2380 -1.9739  0.2135
 5860TIP3    H238996   6.059   2.090   1.591  0.7585  0.3755  0.0244
 5861TIP3   OH238997   2.824   3.943  11.263 -1.4949 -0.0710  0.0387
 5861TIP3    H138998   2.790   3.890  11.191 -0.1489  0.4660 -1.0337
 5861TIP3    H238999   2.824   4.033  11.229 -1.0441  0.2171  0.7838
 5862TIP3   OH239000   1.506   0.548   0.122  0.0206  0.5221 -0.2855
 5862TIP3    H139001   1.565   0.476   0.099  2.2465  1.5519  1.7782
 5862TIP3    H239002   1.419   0.516   0.097  1.1429 -2.0251 -1.3143
 5863TIP3   OH239003   1.316   0.922   6.315  0.6286 -0.0025  0.0140
 5863TIP3    H139004   1.343   0.963   6.397  0.7585  0.2690 -0.1644
 5863TIP3    H239005   1.312   0.828   6.336  0.4416  0.0849  0.3899
 5864TIP3   OH239006   5.323   2.328  12.854  0.2099 -0.4101  0.0999
 5864TIP3    H139007   5.414   2.322  12.884  0.1331 -1.0617  0.2101
 5864TIP3    H239008   5.324   2.398  12.788  0.4721  0.7119  1.2585
 5865TIP3   OH239009   6.732   5.685  13.443 -0.1208 -0.1096 -0.7465
 5865TIP3    H139010   6.783   5.647  13.515 -0.7570 -0.9821 -0.7414
 5865TIP3    H239011   6.646   5.701  13.481 -0.9032 -1.8692 -1.6350
 5866TIP3   OH239012   2.635   3.893  14.941  0.3182  0.4677 -0.0342
 5866TIP3    H139013   2.698   3.930  15.002 -0.0519  0.4709  0.3553
 5866TIP3    H239014   2.684   3.879  14.860  0.6557  1.0594  0.0638
 5867TIP3   OH239015   1.769   3.872  12.176  0.0273 -0.3693 -0.3797
 5867TIP3    H139016   1.703   3.817  12.218 -0.7845 -1.6315 -3.0423
 5867TIP3    H239017   1.811   3.920  12.247 -0.7747 -2.7820  1.8364
 5868TIP3   OH239018   5.665   1.200   3.904  0.0794  0.2838  0.1499
 5868TIP3    H139019   5.672   1.208   3.999  0.1431  0.3945  0.1359
 5868TIP3    H239020   5.658   1.290   3.873 -1.5061  0.1934  0.1642
 5869TIP3   OH239021   2.668   0.545   3.304  0.0462  0.0095 -0.0827
 5869TIP3    H139022   2.621   0.625   3.328 -2.1824 -0.8961 -1.1276
 5869TIP3    H239023   2.603   0.476   3.316  1.5733 -1.5079 -0.3192
 5870TIP3   OH239024   4.965   4.964  12.010 -0.4247 -0.2026  0.2229
 5870TIP3    H139025   5.022   4.926  12.077 -0.9654  3.3484  2.9606
 5870TIP3    H239026   4.903   4.894  11.989  0.4056 -1.8037  2.7110
 5871TIP3   OH239027   4.784   5.990   6.087 -0.5309 -0.1871 -0.2608
 5871TIP3    H139028   4.828   5.906   6.094  0.0359  0.1213 -0.0341
 5871TIP3    H239029   4.698   5.976   6.126 -0.8701 -0.9513 -1.2554
 5872TIP3   OH239030   5.068   4.845  13.769  0.3142  0.0726  0.1675
 5872TIP3    H139031   5.026   4.769  13.728  0.0587 -0.1291  0.7910
 5872TIP3    H239032   5.081   4.819  13.860  3.0773 -0.4103 -0.2810
 5873TIP3   OH239033   4.656   6.571   0.826  0.1642 -0.2406 -0.3512
 5873TIP3    H139034   4.726   6.576   0.761  0.0660  0.8841 -0.3906
 5873TIP3    H239035   4.694   6.610   0.905  0.4004 -1.8960  0.4047
 5874TIP3   OH239036   6.085   5.073  13.505  0.6892 -0.2994  0.2988
 5874TIP3    H139037   6.096   5.032  13.591  1.5285 -1.7318 -0.4577
 5874TIP3    H239038   6.174   5.098  13.479  0.4000  0.4108 -0.0251
 5875TIP3   OH239039   5.864   6.512   4.047 -0.3336 -0.4661  0.2024
 5875TIP3    H139040   5.902   6.430   4.017 -0.2690 -0.4153  0.1440
 5875TIP3    H239041   5.784   6.523   3.994  0.1522 -0.0234 -0.4563
 5876TIP3   OH239042   4.946   3.621   0.908 -0.2912 -0.3583  0.1326
 5876TIP3    H139043   4.972   3.626   0.816 -0.8025  0.0323  0.0015
 5876TIP3    H239044   4.879   3.552   0.911 -2.4502  1.5746 -0.3560
 5877TIP3   OH239045   3.134   5.281   0.969 -0.2099  0.7444 -0.4680
 5877TIP3    H139046   3.042   5.307   0.964  0.1334  2.1629  0.0788
 5877TIP3    H239047   3.142   5.236   1.053 -0.6584 -0.5441 -1.0956
 5878TIP3   OH239048   3.762   1.570  14.404 -0.4321 -0.1449 -0.3323
 5878TIP3    H139049   3.808   1.496  14.443  0.1500  0.0473 -0.6372
 5878TIP3    H239050   3.823   1.643  14.412 -0.4450 -0.0166 -1.2592
 5879TIP3   OH239051   2.389   5.011   1.527 -0.0719 -0.0624 -0.5321
 5879TIP3    H139052   2.346   4.960   1.459  1.8601 -1.2317 -0.9636
 5879TIP3    H239053   2.473   5.036   1.488  1.3673 -1.2928  1.5605
 5880TIP3   OH239054   5.821   0.876   4.091 -0.3955 -0.8992  0.6283
 5880TIP3    H139055   5.833   0.859   4.185  0.1712  1.6350  1.0912
 5880TIP3    H239056   5.727   0.886   4.081 -0.4584 -1.1416  0.9465
 5881TIP3   OH239057   4.512   3.414   1.957  0.1706 -0.1470 -0.0956
 5881TIP3    H139058   4.482   3.504   1.966 -3.7083 -1.2030 -0.5777
 5881TIP3    H239059   4.484   3.388   1.870 -0.3532 -2.2845  0.6521
 5882TIP3   OH239060   6.538   1.110  16.296 -0.0664 -0.3473  0.1520
 5882TIP3    H139061   6.466   1.162  16.334 -1.1832 -1.3428 -0.5258
 5882TIP3    H239062   6.558   1.155  16.214  0.8759  0.5692  0.8576
 5883TIP3   OH239063   5.333   2.245   3.101  0.2208 -0.0079 -0.2377
 5883TIP3    H139064   5.341   2.272   3.010 -1.9670  1.0465 -0.1882
 5883TIP3    H239065   5.381   2.311   3.151  1.7125 -0.7747 -0.5955
 5884TIP3   OH239066   4.294   4.713  10.974 -0.2183 -0.0491 -0.3497
 5884TIP3    H139067   4.223   4.770  11.002 -0.8411  0.6447 -3.0653
 5884TIP3    H239068   4.373   4.755  11.007 -0.9510 -0.7940  2.6613
 5885TIP3   OH239069   2.421   1.380   1.717  0.0033  0.1137 -0.2188
 5885TIP3    H139070   2.501   1.329   1.704  1.6254  1.6846  2.4789
 5885TIP3    H239071   2.360   1.319   1.757  1.1498 -0.2932  0.9866
 5886TIP3   OH239072   1.945   5.217   0.273 -0.0794  0.6386  0.2382
 5886TIP3    H139073   2.003   5.191   0.345  0.1798  1.7132  0.4350
 5886TIP3    H239074   1.871   5.157   0.278  0.6711 -0.2988  0.4285
 5887TIP3   OH239075   6.558   5.895  15.771  0.0682  0.5778 -0.3037
 5887TIP3    H139076   6.595   5.890  15.683 -0.8171  0.0185 -0.6489
 5887TIP3    H239077   6.468   5.864  15.762 -0.0659  0.6071  0.7824
 5888TIP3   OH239078   2.713   6.797  14.244 -0.0493  0.5357  0.4027
 5888TIP3    H139079   2.642   6.771  14.185 -0.1727  1.5575  0.0806
 5888TIP3    H239080   2.790   6.803  14.188  0.7667 -2.3391  1.0495
 5889TIP3   OH239081   6.469   4.311  12.905  0.4350 -0.1726 -0.7038
 5889TIP3    H139082   6.462   4.247  12.977 -0.9618  0.0047 -0.6616
 5889TIP3    H239083   6.563   4.327  12.897  0.5998  0.1432  1.3877
 5890TIP3   OH239084   3.459   5.063  13.311 -0.1176 -0.0442  0.4050
 5890TIP3    H139085   3.372   5.096  13.332 -0.4327  0.2540 -1.2421
 5890TIP3    H239086   3.518   5.111  13.370 -0.8004  1.6881 -0.2630
 5891TIP3   OH239087   1.188   2.308  12.767  0.0221 -0.2194 -0.0851
 5891TIP3    H139088   1.150   2.394  12.749 -0.0566 -0.5299 -1.5861
 5891TIP3    H239089   1.131   2.268  12.832  0.9395  1.4472  1.8395
 5892TIP3   OH239090   0.598   1.057   5.384 -0.5169 -0.0261 -0.5653
 5892TIP3    H139091   0.609   0.983   5.324  0.2930  0.9388 -1.6682
 5892TIP3    H239092   0.671   1.115   5.363  0.9693 -0.4959  2.6811
 5893TIP3   OH239093   2.853   1.398  16.217  0.4841  0.7607 -0.1530
 5893TIP3    H139094   2.884   1.348  16.141  0.4594 -0.3309  0.5340
 5893TIP3    H239095   2.789   1.341  16.258  2.3660  0.1792  2.1662
 5894TIP3   OH239096   1.462   4.588  14.395 -0.5066 -0.2175 -0.2416
 5894TIP3    H139097   1.537   4.622  14.347 -0.3975  0.4334  0.3747
 5894TIP3    H239098   1.456   4.643  14.473 -1.5832 -0.3025 -0.2413
 5895TIP3   OH239099   2.375   1.339   5.283  0.5076  0.3479  0.0282
 5895TIP3    H139100   2.336   1.424   5.263  0.6939  0.0055 -2.1068
 5895TIP3    H239101   2.461   1.341   5.241  0.6410 -0.7753  0.2147
 5896TIP3   OH239102   0.055   4.906   2.896  0.9865 -0.0105  0.3494
 5896TIP3    H139103   0.095   4.917   2.982  0.6649  0.8974  0.3969
 5896TIP3    H239104  -0.039   4.898   2.914  0.8710  0.6434  0.0612
 5897TIP3   OH239105   3.215   5.940  11.200  0.2071  0.0620 -0.4992
 5897TIP3    H139106   3.227   5.971  11.290  0.3859  0.5187 -0.6804
 5897TIP3    H239107   3.301   5.950  11.159 -0.0420  0.5076 -0.9218
 5898TIP3   OH239108   6.696   4.417  11.140  0.8257 -0.2913 -0.0750
 5898TIP3    H139109   6.637   4.346  11.165 -0.2586  0.5719 -0.0877
 5898TIP3    H239110   6.643   4.496  11.149  1.6941  0.4263 -1.0258
 5899TIP3   OH239111   3.887   2.145   3.697 -0.0058  0.2360  0.8904
 5899TIP3    H139112   3.855   2.182   3.615 -2.1343 -1.0102  1.0919
 5899TIP3    H239113   3.952   2.208   3.728 -0.8331  1.8994 -0.5934
 5900TIP3   OH239114   2.027   4.649   0.603 -0.3412  0.4341  0.4312
 5900TIP3    H139115   2.061   4.560   0.612 -1.2942  0.1297  1.2594
 5900TIP3    H239116   2.083   4.701   0.660  0.0114  0.3074  0.2031
 5901TIP3   OH239117   3.917   1.580   4.100  0.5243 -0.1785 -0.1762
 5901TIP3    H139118   3.900   1.525   4.024  0.6118 -0.2059 -0.1751
 5901TIP3    H239119   3.843   1.562   4.159 -0.2380  0.8002 -0.7960
 5902TIP3   OH239120   1.720   0.878  10.551  0.0974  0.2818 -0.3710
 5902TIP3    H139121   1.650   0.936  10.581 -0.7664 -1.0004  0.1928
 5902TIP3    H239122   1.718   0.886  10.456 -0.0061  1.1610 -0.3058
 5903TIP3   OH239123   3.066   6.297  16.190 -0.5919  0.6014 -0.1749
 5903TIP3    H139124   3.159   6.271  16.192 -0.4439  1.1157 -0.1341
 5903TIP3    H239125   3.018   6.214  16.193 -0.1367  0.3506  0.7506
 5904TIP3   OH239126   3.066   2.868  12.748 -0.2456  0.4326  0.2820
 5904TIP3    H139127   3.013   2.849  12.826  0.3505 -2.7006  0.0368
 5904TIP3    H239128   3.156   2.872  12.781  0.0294 -1.0898 -0.2020
 5905TIP3   OH239129   0.545   5.974   4.527  0.5533 -0.5188 -0.4281
 5905TIP3    H139130   0.566   6.055   4.575  2.4318 -0.6850 -0.9023
 5905TIP3    H239131   0.458   5.990   4.491  1.2321  1.6869 -1.2861
 5906TIP3   OH239132   5.100   4.637  12.436  0.1238 -0.3469 -0.4191
 5906TIP3    H139133   5.150   4.615  12.515  1.5581  0.3603 -1.0816
 5906TIP3    H239134   5.148   4.595  12.365 -0.2354  0.3486 -1.0870
 5907TIP3   OH239135   5.443   5.558  13.802  0.0318 -0.0887 -0.0885
 5907TIP3    H139136   5.535   5.579  13.782  0.2848 -1.8759 -1.0530
 5907TIP3    H239137   5.421   5.615  13.875  0.4930  3.6206 -2.6011
 5908TIP3   OH239138   5.736   4.141   0.916 -0.1633 -0.9170  0.8366
 5908TIP3    H139139   5.674   4.078   0.880  0.4004 -0.4667 -1.0515
 5908TIP3    H239140   5.695   4.173   0.997 -2.4341 -0.5590 -0.3918
 5909TIP3   OH239141   5.072   0.646   0.842 -0.1382  0.2277 -0.7739
 5909TIP3    H139142   5.016   0.577   0.806 -1.5597 -0.3876  2.3054
 5909TIP3    H239143   5.017   0.725   0.840 -0.2648  0.1621  0.1296
 5910TIP3   OH239144   1.913   4.699  12.346  0.1493 -0.1423 -0.0533
 5910TIP3    H139145   1.955   4.746  12.274  0.2893  0.0833  0.1760
 5910TIP3    H239146   1.958   4.729  12.425 -2.0617  2.0857  0.5014
 5911TIP3   OH239147   3.865   5.302  14.485  0.9933 -0.1826  0.2232
 5911TIP3    H139148   3.782   5.291  14.530  0.6163 -0.3561 -0.5069
 5911TIP3    H239149   3.842   5.324  14.395  1.7043  3.0519  0.6986
 5912TIP3   OH239150   2.850   3.527  11.189  0.3240 -0.1909 -0.2105
 5912TIP3    H139151   2.890   3.480  11.262  0.2326 -1.3544 -0.8832
 5912TIP3    H239152   2.833   3.459  11.123 -1.1209  0.5660 -0.6487
 5913TIP3   OH239153   6.447   5.119   0.712 -0.1199  0.1501 -0.3289
 5913TIP3    H139154   6.427   5.074   0.794 -0.2843  0.5268 -0.1627
 5913TIP3    H239155   6.537   5.093   0.692 -0.1847 -0.1886 -0.1936
 5914TIP3   OH239156   6.691   2.415   2.621 -0.5304 -0.3037 -0.2470
 5914TIP3    H139157   6.606   2.432   2.582 -0.0105  1.1699 -0.7879
 5914TIP3    H239158   6.710   2.492   2.674  0.3051 -0.7732  0.1690
 5915TIP3   OH239159   6.502   1.754  13.664 -0.4835 -0.4513  0.3220
 5915TIP3    H139160   6.533   1.663  13.656 -1.2426 -0.6236 -0.8569
 5915TIP3    H239161   6.407   1.747  13.669 -0.5952  0.2953 -0.4374
 5916TIP3   OH239162   4.996   4.638  14.255  0.4237  0.0414 -0.1767
 5916TIP3    H139163   4.951   4.710  14.211 -1.0746 -0.2290  0.7994
 5916TIP3    H239164   5.028   4.582  14.185  0.9448  1.2628 -0.9328
 5917TIP3   OH239165   0.697   4.838  15.055  0.0706 -0.0475  0.4467
 5917TIP3    H139166   0.770   4.856  14.996  1.1889  2.7264  2.5039
 5917TIP3    H239167   0.663   4.924  15.079 -2.5737 -1.1976  1.1904
 5918TIP3   OH239168   4.303   0.835  14.104  0.0928  0.6533 -0.6226
 5918TIP3    H139169   4.297   0.930  14.101  0.2939  0.6586 -0.9367
 5918TIP3    H239170   4.340   0.815  14.190 -0.2122  0.8440 -0.4476
 5919TIP3   OH239171   5.082   1.588   2.354 -0.3376 -0.4855  0.2754
 5919TIP3    H139172   5.142   1.553   2.420 -0.9861 -0.7788  0.7143
 5919TIP3    H239173   5.043   1.511   2.314  0.2654 -0.3188 -0.6714
 5920TIP3   OH239174   0.301   1.279   2.213  0.1627 -0.1260 -0.2793
 5920TIP3    H139175   0.230   1.342   2.220  1.8141  1.8820 -0.3724
 5920TIP3    H239176   0.278   1.224   2.138 -1.9890 -0.5725  0.6497
 5921TIP3   OH239177   6.364   6.271   4.736  1.0473 -0.5638 -0.3758
 5921TIP3    H139178   6.378   6.256   4.829  1.7966  1.0917 -0.1845
 5921TIP3    H239179   6.370   6.366   4.726 -4.1801 -0.0702 -1.2961
 5922TIP3   OH239180   0.562   5.518  13.911  0.4274  0.3036  0.0777
 5922TIP3    H139181   0.611   5.597  13.888  2.2026  0.3564  3.4351
 5922TIP3    H239182   0.628   5.451  13.923 -0.6916 -0.6561  1.1178
 5923TIP3   OH239183   3.256   3.730  14.605  0.3417  0.2080  1.0075
 5923TIP3    H139184   3.269   3.744  14.511  1.1171 -0.8404  0.9487
 5923TIP3    H239185   3.296   3.645  14.623 -1.1219 -0.3176  2.0030
 5924TIP3   OH239186   1.677   5.622   0.397  0.3095 -0.1735 -0.5738
 5924TIP3    H139187   1.607   5.687   0.393 -0.9842 -1.5689 -2.3133
 5924TIP3    H239188   1.758   5.674   0.393 -0.6479  1.3554 -1.1443
 5925TIP3   OH239189   3.124   1.946   3.432  0.6146 -0.4782 -0.4630
 5925TIP3    H139190   3.192   2.005   3.466 -0.3288  0.1329  0.4317
 5925TIP3    H239191   3.118   1.969   3.340  0.5289  0.5949 -0.2137
 5926TIP3   OH239192   5.040   5.574   5.424 -0.1048 -0.3491 -0.2630
 5926TIP3    H139193   4.996   5.658   5.415  2.3968  1.1294  0.3006
 5926TIP3    H239194   5.073   5.573   5.514 -0.0650 -1.9528 -0.2584
 5927TIP3   OH239195   4.255   6.779   0.257 -0.5470 -0.1312 -0.1232
 5927TIP3    H139196   4.273   6.793   0.164  1.1155 -3.2606 -0.4425
 5927TIP3    H239197   4.324   6.827   0.302 -0.9908  0.8931 -0.5100
 5928TIP3   OH239198   5.977   6.353  11.570 -0.1107 -0.6167  0.5126
 5928TIP3    H139199   6.029   6.433  11.582  0.6148 -0.8276 -0.9818
 5928TIP3    H239200   5.895   6.371  11.615 -0.1395  1.1656 -0.1527
 5929TIP3   OH239201   2.256   0.895  11.621 -0.8107 -0.3360  0.8093
 5929TIP3    H139202   2.276   0.983  11.589 -1.0288 -1.0748 -1.5271
 5929TIP3    H239203   2.213   0.910  11.705 -1.9944  1.8634 -0.1020
 5930TIP3   OH239204   4.658   0.807   3.026 -0.3547  0.5019 -0.1787
 5930TIP3    H139205   4.576   0.845   3.057 -3.1994 -3.4260 -2.0497
 5930TIP3    H239206   4.704   0.781   3.105 -1.7044  1.2989  0.9186
 5931TIP3   OH239207   0.590   1.973  11.756 -0.2316  0.2054 -0.0991
 5931TIP3    H139208   0.597   1.958  11.851  0.5821  0.4477 -0.1169
 5931TIP3    H239209   0.626   2.061  11.743 -2.8468  1.3299 -0.2859
 5932TIP3   OH239210   2.795   6.115  16.685 -0.7368 -0.3584  0.0352
 5932TIP3    H139211   2.883   6.107  16.722 -0.4087 -0.8706 -0.8384
 5932TIP3    H239212   2.759   6.194  16.726  0.3273  0.1665 -0.0097
 5933TIP3   OH239213   2.925   2.126  13.342  0.5326 -0.6478 -0.3629
 5933TIP3    H139214   2.956   2.124  13.251  1.5782 -0.5984 -0.0230
 5933TIP3    H239215   2.837   2.088  13.338  0.8287 -1.2789 -1.2999
 5934TIP3   OH239216   2.654   1.458   1.955 -0.1530 -0.7030 -1.1258
 5934TIP3    H139217   2.729   1.514   1.936  0.7765 -1.3432  0.4839
 5934TIP3    H239218   2.624   1.486   2.041 -0.6043 -1.7030 -0.9407
 5935TIP3   OH239219   4.172   1.014  15.454 -0.1485  0.1303 -0.1705
 5935TIP3    H139220   4.172   1.010  15.550 -1.9068  2.3313  0.0156
 5935TIP3    H239221   4.264   1.026  15.430  0.0939  2.1054  1.4717
 5936TIP3   OH239222   3.049   0.411  13.132  0.6890  0.0570 -0.1508
 5936TIP3    H139223   2.978   0.465  13.166 -0.6325 -0.1240 -2.4157
 5936TIP3    H239224   3.047   0.332  13.186 -0.2745  0.4185  0.3686
 5937TIP3   OH239225   3.579   2.227   2.687  0.4114  0.2694 -1.1623
 5937TIP3    H139226   3.660   2.190   2.652  2.8587  1.2535  2.8270
 5937TIP3    H239227   3.588   2.322   2.673  1.7363  0.7641  2.1364
 5938TIP3   OH239228   1.478   4.332  13.639 -0.0859 -0.5139  0.1087
 5938TIP3    H139229   1.430   4.411  13.614 -0.0437 -1.0237 -1.7993
 5938TIP3    H239230   1.493   4.341  13.733 -5.2125 -0.9540  1.2863
 5939TIP3   OH239231   2.117   3.287  16.729  0.1567  0.4388  0.0267
 5939TIP3    H139232   2.195   3.322  16.686  0.1208  0.1255 -0.2957
 5939TIP3    H239233   2.045   3.308  16.670  0.1342 -0.1675 -0.1708
 5940TIP3   OH239234   1.115   6.278   6.032  0.7240 -0.4576  0.7802
 5940TIP3    H139235   1.197   6.230   6.020  0.5350 -0.9098  1.2501
 5940TIP3    H239236   1.132   6.338   6.104  0.1191 -1.8284  2.1359
 5941TIP3   OH239237   2.241   2.820   2.180 -0.2246  0.4501 -0.1519
 5941TIP3    H139238   2.211   2.747   2.126 -0.7694 -0.6981  1.6292
 5941TIP3    H239239   2.333   2.831   2.156 -1.0444  1.7852 -3.2132
 5942TIP3   OH239240   6.596   3.338  14.317 -0.8810 -0.0355  0.4728
 5942TIP3    H139241   6.509   3.298  14.325 -0.7871 -0.0444  1.6083
 5942TIP3    H239242   6.580   3.432  14.323 -0.6994 -0.0795  2.1586
 5943TIP3   OH239243   3.692   3.808   3.367 -0.0455  0.4050 -1.0970
 5943TIP3    H139244   3.673   3.724   3.326 -1.3269  1.3356 -2.5600
 5943TIP3    H239245   3.655   3.801   3.455 -2.9098  0.3880 -2.1813
 5944TIP3   OH239246   3.740   1.566   5.062  0.0172  0.2064 -0.1380
 5944TIP3    H139247   3.745   1.599   4.972  0.0915  0.2294 -0.1249
 5944TIP3    H239248   3.653   1.592   5.092  0.2048  0.6942 -0.0078
 5945TIP3   OH239249   5.877   5.661  11.879 -0.0544  0.5832 -0.0374
 5945TIP3    H139250   5.861   5.754  11.895  0.0897  0.9784 -1.9096
 5945TIP3    H239251   5.848   5.617  11.958  1.6130  2.3673  1.6856
 5946TIP3   OH239252   2.817   2.694   5.148 -0.1170 -0.2207 -0.3178
 5946TIP3    H139253   2.909   2.712   5.132 -0.4665  0.6951 -1.3699
 5946TIP3    H239254   2.806   2.601   5.127  0.2418  0.0399 -1.6983
 5947TIP3   OH239255   1.434   4.445   5.486 -0.1442  0.3440  0.6011
 5947TIP3    H139256   1.454   4.405   5.401 -0.9441 -0.6169  0.8440
 5947TIP3    H239257   1.372   4.384   5.527 -1.0928  1.6445  1.1602
 5948TIP3   OH239258   1.509   2.966  13.839 -0.0965 -0.1192 -0.1538
 5948TIP3    H139259   1.414   2.968  13.828 -0.5413 -1.4140  2.5274
 5948TIP3    H239260   1.525   2.886  13.890  2.1598  1.2088  1.3743
 5949TIP3   OH239261   3.082   6.691   2.302  0.0520 -0.0998 -0.6116
 5949TIP3    H139262   3.017   6.668   2.368 -0.1240  0.4174 -0.5990
 5949TIP3    H239263   3.057   6.640   2.225  1.1023 -1.8284  0.1254
 5950TIP3   OH239264   2.661   5.853   5.840 -0.0010  0.3130 -0.1330
 5950TIP3    H139265   2.645   5.925   5.779 -0.1943  0.8047  0.4755
 5950TIP3    H239266   2.755   5.858   5.857 -0.0705  0.6610  0.1804
 5951TIP3   OH239267   4.722   1.445  11.826  0.0573  0.1580 -0.1349
 5951TIP3    H139268   4.659   1.506  11.786  0.4473  0.5116 -0.2123
 5951TIP3    H239269   4.685   1.359  11.809  0.6717  0.2343 -2.0986
 5952TIP3   OH239270   4.430   0.346   5.789  0.2816 -0.0229 -0.2642
 5952TIP3    H139271   4.472   0.353   5.874  2.0162 -0.4854 -1.0482
 5952TIP3    H239272   4.490   0.294   5.736 -1.9234 -1.9347 -1.0633
 5953TIP3   OH239273   2.802   6.775  16.780 -0.3295 -0.5163  0.2043
 5953TIP3    H139274   2.764   6.863  16.787 -1.1338 -0.9371  1.2888
 5953TIP3    H239275   2.855   6.765  16.859 -0.2537 -1.0230  0.0894
 5954TIP3   OH239276   3.113   4.800  15.617  0.0599  0.1981 -0.3965
 5954TIP3    H139277   3.183   4.859  15.588  0.3147  1.1472  1.8712
 5954TIP3    H239278   3.032   4.850  15.604  0.1376  0.4482  0.0225
 5955TIP3   OH239279   4.588   5.262   2.174  0.5032 -0.4540 -0.5752
 5955TIP3    H139280   4.508   5.261   2.226  0.5351  1.4163 -0.4165
 5955TIP3    H239281   4.560   5.290   2.087  0.7992 -1.0793 -0.8722
 5956TIP3   OH239282   6.479   6.604  15.143 -0.8593 -0.1664  0.3123
 5956TIP3    H139283   6.482   6.583  15.237  0.4211  1.7208  0.7386
 5956TIP3    H239284   6.416   6.541  15.107 -0.7365 -1.5039  2.2671
 5957TIP3   OH239285   3.610   1.407   5.430  0.9154  0.0421 -0.2769
 5957TIP3    H139286   3.531   1.441   5.472  0.3385 -1.4568 -0.0802
 5957TIP3    H239287   3.592   1.414   5.336 -0.3155 -2.0309 -0.2665
 5958TIP3   OH239288   3.710   6.676   0.306 -0.4006  0.0255 -0.1853
 5958TIP3    H139289   3.685   6.631   0.226  2.2779  0.0977 -1.1598
 5958TIP3    H239290   3.805   6.690   0.298 -0.3921  1.9733  2.0154
 5959TIP3   OH239291   3.308   0.011  11.498 -0.1191  0.1607 -0.1892
 5959TIP3    H139292   3.344  -0.025  11.579  3.0112 -0.3587 -1.6851
 5959TIP3    H239293   3.253  -0.058  11.462  1.1592 -0.9164 -0.1263
 5960TIP3   OH239294   5.130   2.592   0.887  0.1843 -0.0008 -0.5485
 5960TIP3    H139295   5.215   2.567   0.851 -0.0773 -1.3621 -0.2736
 5960TIP3    H239296   5.074   2.515   0.872 -0.3412 -0.0449  1.3794
 5961TIP3   OH239297   2.606   0.093  16.027  0.0753 -0.1559  0.3099
 5961TIP3    H139298   2.547   0.045  15.969 -0.0569  1.0538 -0.5825
 5961TIP3    H239299   2.582   0.185  16.016  2.5638  0.4682 -0.6430
 5962TIP3   OH239300   1.800   1.889  14.300  0.1851 -0.1914  0.1758
 5962TIP3    H139301   1.746   1.897  14.379  0.7776  0.4408  0.5336
 5962TIP3    H239302   1.820   1.980  14.276 -0.4179 -0.3544 -1.0155
 5963TIP3   OH239303   6.474   4.522  15.863  0.4830  0.7758 -0.3339
 5963TIP3    H139304   6.421   4.566  15.797 -0.7102 -1.5092 -1.0046
 5963TIP3    H239305   6.423   4.529  15.944 -0.6722 -0.8903 -0.8500
 5964TIP3   OH239306   6.465   6.769  10.682  0.0003 -0.5945  0.1025
 5964TIP3    H139307   6.385   6.805  10.718  0.5466  1.2081 -0.3701
 5964TIP3    H239308   6.478   6.817  10.600  0.2418 -2.6262 -1.1285
 5965TIP3   OH239309   1.879   6.571   4.289 -0.2836 -0.2599  0.4560
 5965TIP3    H139310   1.835   6.487   4.285  0.3586 -0.6204  0.7114
 5965TIP3    H239311   1.972   6.549   4.295  0.0305  0.4892 -1.1126
 5966TIP3   OH239312   2.664   3.984   3.596 -0.2731 -0.1940  0.1233
 5966TIP3    H139313   2.714   3.904   3.606  0.8679  0.5081  0.2518
 5966TIP3    H239314   2.681   4.033   3.677 -1.1683  0.0599  0.1653
 5967TIP3   OH239315   5.644   1.199  15.701 -0.3389 -0.2265  0.0480
 5967TIP3    H139316   5.658   1.110  15.732  0.9501 -0.3957 -0.9474
 5967TIP3    H239317   5.709   1.212  15.633 -0.7451  1.3583 -0.0933
 5968TIP3   OH239318   5.093   4.183   2.229  0.4219  0.8059  0.3569
 5968TIP3    H139319   5.025   4.116   2.236  0.0138  1.0059 -1.2648
 5968TIP3    H239320   5.139   4.163   2.147  2.7435  0.3273  1.6834
 5969TIP3   OH239321   0.107   1.899  15.040  0.4126  0.0840 -0.0760
 5969TIP3    H139322   0.028   1.854  15.070  0.2320  0.1192 -0.5020
 5969TIP3    H239323   0.101   1.986  15.079 -0.0908  0.3081 -0.6505
 5970TIP3   OH239324   5.740   6.501   1.653  0.0362 -0.0692  0.0391
 5970TIP3    H139325   5.697   6.483   1.736  0.6304 -0.7929  0.1931
 5970TIP3    H239326   5.812   6.560   1.675  0.6295 -0.8228  0.1539
 5971TIP3   OH239327   4.890   0.438   5.661 -0.3153 -0.5222 -0.1884
 5971TIP3    H139328   4.796   0.432   5.679 -0.3390 -0.2325 -0.2096
 5971TIP3    H239329   4.903   0.388   5.581 -0.2002 -1.8996  0.6652
 5972TIP3   OH239330   4.934   4.857   1.436  0.2751  0.1689  0.5298
 5972TIP3    H139331   4.972   4.823   1.355  0.2686 -0.2163  0.6837
 5972TIP3    H239332   4.893   4.939   1.411 -0.7068 -0.4950 -0.0841
 5973TIP3   OH239333   0.896   0.343   1.305 -0.3605  0.5335 -0.2979
 5973TIP3    H139334   0.989   0.364   1.320  0.0643 -0.7386 -1.0252
 5973TIP3    H239335   0.865   0.310   1.389 -0.3445  1.5269  0.1220
 5974TIP3   OH239336   4.354   5.891  11.333  0.4982  0.2606  0.0321
 5974TIP3    H139337   4.286   5.907  11.267  0.6716  1.2918  0.0911
 5974TIP3    H239338   4.306   5.854  11.408 -0.1195  1.6075  0.3282
 5975TIP3   OH239339   0.714   1.687  16.311 -0.1535  0.1613 -0.0438
 5975TIP3    H139340   0.775   1.721  16.246 -0.8732  1.3382 -0.1357
 5975TIP3    H239341   0.662   1.621  16.264  0.2098  0.0584 -0.3004
 5976TIP3   OH239342   3.664   0.711  11.957  0.1738  0.2659  0.0552
 5976TIP3    H139343   3.724   0.785  11.955  0.0679  0.4124  1.4208
 5976TIP3    H239344   3.693   0.654  11.886  1.1120  0.9583 -0.1247
 5977TIP3   OH239345   0.031   0.522   3.060  0.2375 -0.5938  0.2609
 5977TIP3    H139346   0.099   0.455   3.051  0.9565  0.1061  0.2550
 5977TIP3    H239347   0.066   0.598   3.012 -0.6086 -0.2557  0.1572
 5978TIP3   OH239348   0.878   1.794  15.071  0.1868  0.7635  0.1857
 5978TIP3    H139349   0.903   1.859  15.137 -0.7891 -0.5171  1.8950
 5978TIP3    H239350   0.804   1.747  15.110 -1.2407  0.7270 -2.3322
 5979TIP3   OH239351   3.816   2.896   6.259  0.0376 -0.2197 -0.2602
 5979TIP3    H139352   3.765   2.974   6.235 -0.8301  0.2955  2.7448
 5979TIP3    H239353   3.754   2.841   6.307  1.2558 -1.6288 -0.2456
 5980TIP3   OH239354   0.022   3.998   1.905 -0.1174  0.1510  0.6711
 5980TIP3    H139355  -0.008   4.019   1.816  0.2295 -1.0414  0.2457
 5980TIP3    H239356  -0.049   4.025   1.962 -0.2142  1.2354  0.0625
 5981TIP3   OH239357   3.143   3.174  11.959  0.0455 -0.0200  0.1952
 5981TIP3    H139358   3.101   3.105  12.010  0.6376 -0.5550 -0.0363
 5981TIP3    H239359   3.074   3.239  11.946 -0.2674 -0.1182  1.2227
 5982TIP3   OH239360   6.253   3.025   1.353  0.2121  0.1320 -0.0975
 5982TIP3    H139361   6.167   3.000   1.386 -0.4214  0.8203 -1.1369
 5982TIP3    H239362   6.267   2.969   1.276  0.0752  0.9344 -0.7244
 5983TIP3   OH239363   5.235   2.110   5.378 -0.2143 -0.2506 -0.4174
 5983TIP3    H139364   5.252   2.026   5.420 -2.5855 -0.6840 -0.1962
 5983TIP3    H239365   5.262   2.175   5.443  1.9227 -0.7648 -0.7096
 5984TIP3   OH239366   2.411   1.305   2.638 -0.0851 -0.4710  0.8190
 5984TIP3    H139367   2.442   1.351   2.717 -0.0752  1.4798 -0.2482
 5984TIP3    H239368   2.484   1.313   2.576 -1.6072  1.9799 -0.8660
 5985TIP3   OH239369   5.669   0.753   5.674 -0.1569 -0.5107  0.5487
 5985TIP3    H139370   5.589   0.763   5.726 -1.3696 -2.1615 -0.8830
 5985TIP3    H239371   5.647   0.792   5.589  1.0549  0.2373  0.5555
 5986TIP3   OH239372   1.368   6.051  15.057  0.1449  0.3829 -0.3156
 5986TIP3    H139373   1.447   6.076  15.104  0.4320  0.6263 -0.9119
 5986TIP3    H239374   1.340   5.969  15.097  1.1985 -0.1732 -0.6903
 5987TIP3   OH239375   3.480   1.578   0.626  0.2255  0.0497 -0.4120
 5987TIP3    H139376   3.551   1.596   0.565 -0.0471 -1.4763 -1.2112
 5987TIP3    H239377   3.510   1.502   0.676 -0.7524 -0.5074 -0.6395
 5988TIP3   OH239378   0.742   2.002  11.134 -0.0660  0.0411 -0.3134
 5988TIP3    H139379   0.668   1.944  11.149  0.3087 -0.0343  1.4044
 5988TIP3    H239380   0.764   1.990  11.041 -0.0555 -2.5005 -0.0411
 5989TIP3   OH239381   3.940   4.664  16.671  0.1042  0.7859  0.5656
 5989TIP3    H139382   3.922   4.614  16.591  1.3315  0.1135  0.6796
 5989TIP3    H239383   3.998   4.735  16.642 -1.1319  1.8200  0.5140
 5990TIP3   OH239384   4.454   0.014   5.424 -0.0423 -0.2979  0.2811
 5990TIP3    H139385   4.370  -0.028   5.410 -0.4464  0.3901  0.5985
 5990TIP3    H239386   4.512  -0.057   5.453 -0.5061 -0.7719  0.0619
 5991TIP3   OH239387   2.324   5.000  14.794  0.0382 -0.0450 -0.3765
 5991TIP3    H139388   2.274   4.996  14.876 -0.2867 -1.3475 -0.6205
 5991TIP3    H239389   2.298   4.921  14.747  2.3060 -0.7449 -0.5458
 5992TIP3   OH239390   5.447   2.601   4.518 -0.6248 -0.1959  1.1293
 5992TIP3    H139391   5.426   2.561   4.433 -2.0824  0.1890  1.2800
 5992TIP3    H239392   5.385   2.562   4.579 -2.7718  2.8396  1.1203
 5993TIP3   OH239393   0.550   0.783  12.287 -0.0584  0.4960  0.3705
 5993TIP3    H139394   0.589   0.867  12.309  3.7173 -0.4821 -1.6574
 5993TIP3    H239395   0.566   0.728  12.364  1.0323  0.6447  0.2755
 5994TIP3   OH239396   2.832   6.757   3.875  0.8844 -0.3183 -0.1034
 5994TIP3    H139397   2.740   6.784   3.883  0.3337 -2.4253  1.7842
 5994TIP3    H239398   2.882   6.837   3.890 -0.6529  0.3956  1.6000
 5995TIP3   OH239399   4.959   0.723   2.193  0.0239  0.1265 -0.2142
 5995TIP3    H139400   4.944   0.791   2.126 -0.1418  0.8251  0.5143
 5995TIP3    H239401   4.997   0.771   2.267 -1.7832 -0.2303  1.0122
 5996TIP3   OH239402   5.213   1.436   2.079  0.1716 -0.0418 -0.0884
 5996TIP3    H139403   5.301   1.417   2.113 -0.2795 -0.2496  1.0186
 5996TIP3    H239404   5.218   1.528   2.051  0.6744  0.0269  0.2030
 5997TIP3   OH239405   5.786   2.025  14.339 -0.2770  0.3418  0.4011
 5997TIP3    H139406   5.841   1.987  14.271 -0.1228 -0.3689  0.9132
 5997TIP3    H239407   5.704   2.046  14.295 -0.2782 -0.3720  0.0588
 5998TIP3   OH239408   6.258   2.913   1.086  0.6106 -0.3292 -0.0718
 5998TIP3    H139409   6.256   2.818   1.072  0.5529 -0.6463  1.8807
 5998TIP3    H239410   6.201   2.949   1.018  0.6848 -1.6771 -0.8776
 5999TIP3   OH239411   1.834   5.290   4.944 -0.4015 -0.0335 -0.0359
 5999TIP3    H139412   1.748   5.256   4.917  0.2910 -1.6631 -0.2993
 5999TIP3    H239413   1.813   5.370   4.993 -2.0303 -0.1032 -0.5447
 6000TIP3   OH239414   6.679   3.193  10.966  0.6201 -0.2719  0.2112
 6000TIP3    H139415   6.746   3.257  10.991  0.5179  0.6158 -1.6164
 6000TIP3    H239416   6.727   3.125  10.920  0.7045 -1.4724  2.0091
 6001TIP3   OH239417   5.309   5.057  10.230 -0.1947 -0.3248 -0.4814
 6001TIP3    H139418   5.366   5.002  10.176  1.0114  0.9331 -0.5565
 6001TIP3    H239419   5.293   5.004  10.309  1.9399 -0.3645  0.0034
 6002TIP3   OH239420   4.539   5.629  11.720 -0.7030  0.4236  0.0116
 6002TIP3    H139421   4.606   5.693  11.698 -2.1218  1.9167 -0.1394
 6002TIP3    H239422   4.540   5.568  11.646 -1.9097  2.4873 -1.8273
 6003TIP3   OH239423   5.370   0.334   4.515 -0.3754  0.6545  0.7592
 6003TIP3    H139424   5.455   0.292   4.530 -0.2346  0.5521 -0.2917
 6003TIP3    H239425   5.345   0.308   4.426 -2.2499 -0.6058  1.5793
 6004TIP3   OH239426   6.776   0.983   2.592 -0.0077 -0.2705  0.0048
 6004TIP3    H139427   6.716   0.994   2.666  0.4347 -0.4095  0.3858
 6004TIP3    H239428   6.767   0.890   2.569  0.6118 -0.4765  0.5478
 6005TIP3   OH239429   6.440   1.924   0.048 -0.0413 -0.0420  0.8274
 6005TIP3    H139430   6.391   1.846   0.021  0.8782 -0.0026 -1.1205
 6005TIP3    H239431   6.407   1.944   0.135 -1.5139 -1.6121  0.6798
 6006TIP3   OH239432   3.385   5.810   1.843  0.5482 -0.7695  0.2952
 6006TIP3    H139433   3.389   5.736   1.783 -0.5933 -0.4361 -0.2208
 6006TIP3    H239434   3.416   5.775   1.926  2.1063 -1.2479 -0.4630
 6007TIP3   OH239435   3.058   0.397   5.555 -0.2082 -0.2445  0.1810
 6007TIP3    H139436   3.100   0.460   5.614  1.1067 -1.8665  1.0655
 6007TIP3    H239437   3.128   0.371   5.494 -0.8489 -0.5182 -0.4494
 6008TIP3   OH239438   1.674   1.253   3.105 -0.7994 -0.1652 -0.4756
 6008TIP3    H139439   1.606   1.220   3.164  0.1243 -0.6327  0.3655
 6008TIP3    H239440   1.633   1.252   3.019 -0.8888 -3.4518 -0.5019
 6009TIP3   OH239441   1.731   3.959   1.429 -0.9840  0.3323 -0.1201
 6009TIP3    H139442   1.644   3.941   1.465 -2.1575 -1.5968 -3.4432
 6009TIP3    H239443   1.718   3.962   1.334  2.1085  3.2563 -0.6501
 6010TIP3   OH239444   0.347   1.939   5.981  0.2712  0.3422  0.7147
 6010TIP3    H139445   0.268   1.890   6.003  1.5864 -1.8280  0.8820
 6010TIP3    H239446   0.329   1.974   5.893  0.3742 -3.1709 -0.8846
 6011TIP3   OH239447   2.247   2.599   0.754  0.6169 -0.4516  0.0510
 6011TIP3    H139448   2.295   2.670   0.711  0.3381 -1.2641 -1.7084
 6011TIP3    H239449   2.156   2.628   0.752  0.6772 -0.2225  0.6524
 6012TIP3   OH239450   6.431   5.527   3.708 -0.2535 -0.1511 -0.2245
 6012TIP3    H139451   6.390   5.450   3.746 -1.8185  0.3401 -0.8610
 6012TIP3    H239452   6.473   5.571   3.782  0.5393 -1.5220  0.1604
 6013TIP3   OH239453   0.911   6.654   1.967 -0.4611  0.9029  0.0912
 6013TIP3    H139454   0.852   6.604   1.911  0.7797  0.3259 -0.7591
 6013TIP3    H239455   0.991   6.601   1.970 -0.4404  0.9948  2.3179
 6014TIP3   OH239456   2.860   1.038   5.085  0.0276 -0.8029  0.1638
 6014TIP3    H139457   2.872   0.981   5.008 -0.9122  0.0986 -0.6812
 6014TIP3    H239458   2.767   1.059   5.084  0.2199  0.1140  0.9221
 6015TIP3   OH239459   1.599   6.512  15.639  0.1818  0.0924  0.1966
 6015TIP3    H139460   1.505   6.510  15.622  0.2985 -2.2463 -0.6015
 6015TIP3    H239461   1.638   6.543  15.558  0.1140  1.1253  0.5491
 6016TIP3   OH239462   1.129   1.670  15.233  0.6203  0.6283  0.5448
 6016TIP3    H139463   1.151   1.597  15.290 -0.3964 -0.7171 -0.7018
 6016TIP3    H239464   1.045   1.646  15.194  0.0016  2.7012  0.4655
 6017TIP3   OH239465   4.482   2.112  14.113  0.5634  0.0079 -0.8557
 6017TIP3    H139466   4.536   2.178  14.157 -1.5773  1.4809 -0.2625
 6017TIP3    H239467   4.523   2.100  14.027  2.2769  0.4044 -0.1297
 6018TIP3   OH239468   0.294   2.075  12.345  0.3413 -0.0934  0.9078
 6018TIP3    H139469   0.208   2.082  12.303  0.3335 -0.8758  0.7666
 6018TIP3    H239470   0.279   2.105  12.434  0.4450  1.9689  0.2808
 6019TIP3   OH239471   1.210   6.078  16.384  0.2126 -0.3249 -0.2999
 6019TIP3    H139472   1.261   6.010  16.339  0.6104 -0.6206  0.5622
 6019TIP3    H239473   1.123   6.040  16.395 -0.4156  0.3965 -2.2817
 6020TIP3   OH239474   2.727   6.484   3.516  0.2125  0.3831  0.1851
 6020TIP3    H139475   2.819   6.477   3.488  0.3217 -2.3178  0.9031
 6020TIP3    H239476   2.730   6.467   3.610 -1.0220 -0.0032  0.1642
 6021TIP3   OH239477   5.644   5.939   3.341 -0.1753  0.1946  0.0038
 6021TIP3    H139478   5.594   5.862   3.313 -1.1765  0.6550  0.4945
 6021TIP3    H239479   5.688   5.969   3.261 -0.5683 -0.2975 -0.4034
 6022TIP3   OH239480   2.663   0.019  11.067 -0.0939  0.7324 -0.0136
 6022TIP3    H139481   2.644  -0.074  11.056  3.6080 -0.1928 -0.0971
 6022TIP3    H239482   2.648   0.036  11.160  0.3333 -0.2903  0.2598
 6023TIP3   OH239483   6.295   4.394   0.236  0.5359  0.1696  0.0774
 6023TIP3    H139484   6.289   4.415   0.143  0.4255 -1.9579 -0.4453
 6023TIP3    H239485   6.274   4.477   0.280  1.1467  1.3725 -1.7551
 6024TIP3   OH239486   1.200   6.091   6.259 -0.1405 -0.1595  0.2835
 6024TIP3    H139487   1.218   6.185   6.269 -1.4131  0.0208  1.0694
 6024TIP3    H239488   1.245   6.067   6.178  0.2314  1.1259  0.0849
 6025TIP3   OH239489   0.792   3.423   1.349  0.0075  0.3157 -0.6454
 6025TIP3    H139490   0.727   3.493   1.353 -0.0144  0.2426  0.4049
 6025TIP3    H239491   0.753   3.350   1.398 -0.3824 -0.8018 -2.5028
 6026TIP3   OH239492   2.735   1.186  15.225 -0.2363  0.3636  0.3363
 6026TIP3    H139493   2.707   1.143  15.305 -2.5664  2.7796  0.9343
 6026TIP3    H239494   2.690   1.138  15.155 -0.9977  0.4158  0.7850
 6027TIP3   OH239495   0.294   2.127   3.388  0.1903  0.0806  0.3346
 6027TIP3    H139496   0.243   2.104   3.311  0.7142  0.3794 -0.1113
 6027TIP3    H239497   0.307   2.222   3.381 -0.2890  0.2123  1.1213
 6028TIP3   OH239498   3.120   3.872  12.301 -0.4696  0.0233  0.5869
 6028TIP3    H139499   3.115   3.882  12.396  0.7190 -1.1746  0.8107
 6028TIP3    H239500   3.196   3.815  12.287 -0.9260 -0.2318 -1.0576
 6029TIP3   OH239501   6.685   5.532  15.835  0.3162  0.0137  0.4340
 6029TIP3    H139502   6.738   5.463  15.796  2.1187  1.0599  0.8811
 6029TIP3    H239503   6.701   5.609  15.779  0.7596  0.8212  1.6218
 6030TIP3   OH239504   0.291   2.647   0.309 -0.2263  0.2338  0.0843
 6030TIP3    H139505   0.334   2.732   0.313 -1.1384  0.6563  2.9158
 6030TIP3    H239506   0.204   2.662   0.345 -1.0416 -1.5889 -0.9532
 6031TIP3   OH239507   1.337   3.685  11.944  0.0185 -0.3777 -0.6222
 6031TIP3    H139508   1.403   3.711  11.880 -1.3922  2.8695 -0.9771
 6031TIP3    H239509   1.259   3.668  11.892 -0.4625 -0.2709  0.0504
 6032TIP3   OH239510   4.110   3.793  13.751 -0.1606  0.2754 -0.0498
 6032TIP3    H139511   4.070   3.756  13.829  0.5543 -0.6659 -0.1079
 6032TIP3    H239512   4.154   3.719  13.709 -0.0964  0.8694 -1.0665
 6033TIP3   OH239513   1.619   1.137  13.395 -0.1028  0.2198 -0.0208
 6033TIP3    H139514   1.676   1.214  13.386  1.1658 -0.7345 -0.5516
 6033TIP3    H239515   1.561   1.140  13.319  0.6717  0.0905 -0.6324
 6034TIP3   OH239516   0.384   6.820  14.139  0.4078 -0.2335  0.2010
 6034TIP3    H139517   0.311   6.759  14.147 -0.5358  1.0576  2.1747
 6034TIP3    H239518   0.460   6.771  14.170 -0.0458 -0.8556  0.3442
 6035TIP3   OH239519   2.859   5.228  16.182 -0.4824  0.2364  0.2798
 6035TIP3    H139520   2.786   5.179  16.144  0.6124 -0.1576 -1.4331
 6035TIP3    H239521   2.891   5.282  16.110 -0.1897  1.7518  1.4975
 6036TIP3   OH239522   2.539   1.027  12.473  0.3686  0.1001  0.0102
 6036TIP3    H139523   2.617   0.973  12.487  0.4977  0.2356 -0.1901
 6036TIP3    H239524   2.468   0.976  12.512  0.3720 -0.5393 -0.7817
 6037TIP3   OH239525   2.098   5.701   3.931 -0.0356  0.3115  0.0101
 6037TIP3    H139526   2.025   5.659   3.885  0.7719 -1.4462  0.2257
 6037TIP3    H239527   2.143   5.752   3.865 -1.2181  1.1002 -0.2103
 6038TIP3   OH239528   4.472   6.665   1.312  0.5042 -0.7686  0.2478
 6038TIP3    H139529   4.450   6.573   1.321 -0.5588 -0.5830 -0.2875
 6038TIP3    H239530   4.388   6.710   1.308  0.9497 -0.0173 -1.9758
 6039TIP3   OH239531   0.622   3.878   4.982 -0.2235  0.2082  0.1474
 6039TIP3    H139532   0.556   3.865   4.913 -1.4947  2.1392  0.9185
 6039TIP3    H239533   0.704   3.851   4.942 -1.0976  0.2002 -1.7446
 6040TIP3   OH239534   5.938   0.998   1.011  0.1837 -0.5394 -0.1251
 6040TIP3    H139535   5.870   1.020   0.947  1.4778 -0.0746 -1.3881
 6040TIP3    H239536   5.943   1.076   1.067 -1.8395 -1.4318  1.4302
 6041TIP3   OH239537   3.826   2.552   5.842  0.0018 -0.6721  0.3286
 6041TIP3    H139538   3.743   2.505   5.838  0.5278 -1.7672  1.4433
 6041TIP3    H239539   3.834   2.579   5.933  0.6915 -0.2458  0.1471
 6042TIP3   OH239540   3.116   4.655  13.298 -0.5527 -0.7735 -0.0569
 6042TIP3    H139541   3.199   4.666  13.253 -0.5274  1.3287  0.3804
 6042TIP3    H239542   3.132   4.588  13.364  0.5380 -0.9968 -0.5379
 6043TIP3   OH239543   2.926   3.610   5.180 -0.0990 -0.3829 -0.9147
 6043TIP3    H139544   2.857   3.643   5.239 -0.2860 -1.7504 -0.3438
 6043TIP3    H239545   2.936   3.518   5.203  2.5075 -0.0610 -0.4331
 6044TIP3   OH239546   0.008   3.650  16.506 -0.1701 -0.3995  0.7995
 6044TIP3    H139547  -0.068   3.613  16.462  0.8346 -1.3992 -0.1642
 6044TIP3    H239548   0.065   3.678  16.435  0.7766 -0.5538  1.4809
 6045TIP3   OH239549   1.816   3.304  16.577  0.4499 -0.0700  0.0239
 6045TIP3    H139550   1.856   3.239  16.519 -0.8332 -1.1498  0.2935
 6045TIP3    H239551   1.783   3.253  16.651  0.9983  1.1416  1.1301
 6046TIP3   OH239552   2.264   5.806  11.407  0.2038 -0.4898 -0.2983
 6046TIP3    H139553   2.263   5.897  11.379  1.6831 -0.2521  0.3391
 6046TIP3    H239554   2.187   5.767  11.364  0.3249  0.7129 -1.6981
 6047TIP3   OH239555   4.302   1.603   3.464  0.4730 -0.6957 -0.5451
 6047TIP3    H139556   4.331   1.621   3.375  1.4846 -1.5371 -0.4114
 6047TIP3    H239557   4.364   1.538   3.497 -1.1356 -2.0103  0.0382
 6048TIP3   OH239558   3.391   2.225   3.395  0.0985 -0.0379 -0.1495
 6048TIP3    H139559   3.439   2.172   3.331  0.7718  1.5726 -1.0322
 6048TIP3    H239560   3.460   2.268   3.446 -0.4390  0.0019  0.5525
 6049TIP3   OH239561   3.072   6.138   0.468 -0.0820 -0.1885  0.1318
 6049TIP3    H139562   3.052   6.174   0.555  0.7062  0.1907  0.1593
 6049TIP3    H239563   3.165   6.156   0.455 -0.4210  0.6448 -1.2212
 6050TIP3   OH239564   3.834   0.854   3.436 -0.0996 -0.1720 -0.4034
 6050TIP3    H139565   3.831   0.761   3.456 -0.1208  0.0143  0.5045
 6050TIP3    H239566   3.743   0.881   3.430 -0.0946 -0.0759 -0.0276
 6051TIP3   OH239567   4.326   2.006   3.177  0.1813 -0.4086 -0.2003
 6051TIP3    H139568   4.361   2.037   3.261 -0.2683  1.7187 -0.7342
 6051TIP3    H239569   4.310   2.086   3.127 -3.2316 -1.3861 -0.8813
 6052TIP3   OH239570   4.158   3.423  12.906  0.0861 -0.9167  0.2734
 6052TIP3    H139571   4.204   3.345  12.876  0.9702 -0.2599 -0.1257
 6052TIP3    H239572   4.187   3.492  12.848 -1.0408 -0.3657  0.3311
 6053TIP3   OH239573   6.240   5.061   1.279 -0.4014 -0.0351 -0.8162
 6053TIP3    H139574   6.300   5.130   1.250  0.2516  0.6688  1.9196
 6053TIP3    H239575   6.293   4.981   1.278  0.6163  0.5466  1.3736
 6054TIP3   OH239576   2.153   6.451  13.032 -0.1031  0.5506  0.0415
 6054TIP3    H139577   2.107   6.450  13.116  1.6973 -0.2034  1.0610
 6054TIP3    H239578   2.219   6.383  13.039 -0.5582 -0.2529 -2.4100
 6055TIP3   OH239579   0.044   4.973   4.909  0.2600 -0.1011 -0.4581
 6055TIP3    H139580  -0.021   4.938   4.970  0.6331  0.6649  0.4071
 6055TIP3    H239581   0.058   4.903   4.846 -1.2690 -0.3515 -0.5618
 6056TIP3   OH239582   0.266   5.778   1.670 -0.1949  0.2941 -0.4812
 6056TIP3    H139583   0.196   5.750   1.729  0.2570  1.3663  0.6152
 6056TIP3    H239584   0.221   5.832   1.605 -0.6110 -0.3800 -0.7652
 6057TIP3   OH239585   1.176   1.544   2.829 -0.8713 -0.4286 -1.2193
 6057TIP3    H139586   1.120   1.617   2.801 -0.8272 -0.5042 -1.5134
 6057TIP3    H239587   1.207   1.569   2.916 -1.0335 -0.1974 -1.2268
 6058TIP3   OH239588   0.223   6.583   1.309 -0.5498  0.1965  0.2793
 6058TIP3    H139589   0.176   6.597   1.392  1.8433  3.4851  1.3006
 6058TIP3    H239590   0.171   6.631   1.244  0.1987  2.1161  1.0132
 6059TIP3   OH239591   4.997   0.753  11.639 -0.1817  0.1851  0.2798
 6059TIP3    H139592   5.060   0.708  11.583  1.5757  3.4164 -0.5358
 6059TIP3    H239593   5.029   0.740  11.728 -0.1589 -0.7706  0.1405
 6060TIP3   OH239594   2.595   3.631   2.595 -0.0201 -0.1435  0.0626
 6060TIP3    H139595   2.657   3.560   2.614 -0.2063 -0.4651 -0.4762
 6060TIP3    H239596   2.545   3.598   2.520  1.9117  1.7624 -2.2011
 6061TIP3   OH239597   5.731   5.468  15.682  0.2978 -0.1950  0.3974
 6061TIP3    H139598   5.756   5.529  15.753  0.3341 -0.2976  0.4728
 6061TIP3    H239599   5.760   5.512  15.602  2.9029 -1.3426  0.6080
 6062TIP3   OH239600   0.015   2.477   1.740  0.4893 -0.7312  0.2747
 6062TIP3    H139601  -0.034   2.527   1.675  1.0726  0.0571  0.4305
 6062TIP3    H239602  -0.049   2.454   1.807  0.1370 -0.5283  0.0089
 6063TIP3   OH239603   3.375   2.383  10.426  0.0904 -0.9008  0.0100
 6063TIP3    H139604   3.465   2.374  10.393 -0.3772 -2.7955 -0.9000
 6063TIP3    H239605   3.323   2.401  10.348 -0.2267  1.5732  0.6952
 6064TIP3   OH239606   2.252   4.649   0.293 -0.4368 -0.1842  0.3216
 6064TIP3    H139607   2.216   4.569   0.254  1.9002 -1.3765  0.4513
 6064TIP3    H239608   2.277   4.623   0.381 -0.1819  0.8667  0.5691
 6065TIP3   OH239609   6.248   0.302  12.011 -0.0753 -0.1850  0.3640
 6065TIP3    H139610   6.250   0.304  12.107  0.7660 -0.1279  0.3560
 6065TIP3    H239611   6.256   0.394  11.985  2.8167 -0.3908  0.2394
 6066TIP3   OH239612   1.750   0.343  11.386 -0.0198 -0.0010  0.2482
 6066TIP3    H139613   1.713   0.418  11.434  0.0531 -0.0906  0.4431
 6066TIP3    H239614   1.746   0.370  11.294  1.3575  0.8587  0.4072
 6067TIP3   OH239615   3.253   3.587   4.116 -0.0145  0.6534 -0.1701
 6067TIP3    H139616   3.261   3.640   4.195  1.8109 -2.0545  1.6235
 6067TIP3    H239617   3.165   3.550   4.121  0.1040  0.4551  0.6737
 6068TIP3   OH239618   4.957   3.999   4.675  0.1427  0.0539  0.2053
 6068TIP3    H139619   4.995   3.983   4.588  0.1196  1.5115 -0.0918
 6068TIP3    H239620   4.906   3.920   4.693  0.7963 -0.6179 -0.7479
 6069TIP3   OH239621   1.542   0.215   5.538 -0.1243 -0.2334 -0.3365
 6069TIP3    H139622   1.554   0.126   5.504 -2.5537 -0.8834  0.2920
 6069TIP3    H239623   1.547   0.205   5.633 -1.5975  0.0449 -0.2097
 6070TIP3   OH239624   5.905   6.278  13.243 -0.7001  0.2830 -0.3492
 6070TIP3    H139625   5.912   6.205  13.305  2.0598  0.1657 -0.6887
 6070TIP3    H239626   5.836   6.251  13.182 -0.5217 -1.5246  0.1864
 6071TIP3   OH239627   4.238   2.888   4.956  0.0091 -0.0783 -0.1618
 6071TIP3    H139628   4.265   2.974   4.924  0.3188  0.2080  0.8569
 6071TIP3    H239629   4.228   2.835   4.876  0.5060  0.6960 -0.7500
 6072TIP3   OH239630   5.744   0.317  14.171  0.1255  0.0171 -0.1050
 6072TIP3    H139631   5.825   0.267  14.161  0.3505  0.1062  1.1462
 6072TIP3    H239632   5.675   0.255  14.147  0.2421 -1.6780  3.3240
 6073TIP3   OH239633   4.013   4.164   4.801 -0.1559  0.0905 -0.2350
 6073TIP3    H139634   3.920   4.147   4.792 -0.4647  0.9650  1.0933
 6073TIP3    H239635   4.042   4.104   4.870  0.0292  0.5871  0.1259
 6074TIP3   OH239636   4.435   3.591  13.401 -0.3502 -0.6399  0.2267
 6074TIP3    H139637   4.421   3.498  13.422 -1.2388 -0.3455  1.0204
 6074TIP3    H239638   4.395   3.602  13.315 -0.7144 -0.8768  0.3640
 6075TIP3   OH239639   2.565   3.477  11.429 -0.2567 -0.3592  0.2347
 6075TIP3    H139640   2.510   3.402  11.406 -1.5683  0.4835  0.4693
 6075TIP3    H239641   2.557   3.537  11.355  0.4801 -0.2893  0.2089
 6076TIP3   OH239642   6.698   6.229  14.749 -0.3174 -0.4375  0.6733
 6076TIP3    H139643   6.620   6.244  14.802 -1.1518 -1.5800 -0.1699
 6076TIP3    H239644   6.755   6.176  14.805 -0.9005 -1.0545  0.7081
 6077TIP3   OH239645   6.364   3.980   0.384  0.3087 -0.0104 -0.1810
 6077TIP3    H139646   6.356   4.044   0.313 -0.6408 -1.1108 -1.1081
 6077TIP3    H239647   6.429   4.019   0.444 -0.0702  1.7010 -0.8054
 6078TIP3   OH239648   6.630   5.281  14.738  0.2235  0.3628  0.0186
 6078TIP3    H139649   6.553   5.262  14.683 -1.1603  0.8043  1.7252
 6078TIP3    H239650   6.672   5.195  14.750  0.5350  0.2469 -1.6341
 6079TIP3   OH239651   2.236   4.095  12.788 -0.4921 -0.2949  0.0342
 6079TIP3    H139652   2.178   4.171  12.781 -1.0989 -0.5987  1.3375
 6079TIP3    H239653   2.176   4.020  12.788 -0.0196 -0.6761  0.2513
 6080TIP3   OH239654   4.668   0.182   4.806 -0.0563 -0.2143 -0.6880
 6080TIP3    H139655   4.666   0.197   4.901  1.8054 -1.6485 -0.3594
 6080TIP3    H239656   4.579   0.158   4.783 -1.0271  2.1499  0.2961
 6081TIP3   OH239657   2.147   1.547   5.628 -0.4208 -0.0690 -0.4829
 6081TIP3    H139658   2.130   1.482   5.559 -1.3892 -1.1063  0.6678
 6081TIP3    H239659   2.135   1.498   5.709  1.6440  0.8707  0.4618
 6082TIP3   OH239660   0.735   6.536   4.772  0.4003  0.5190  0.7468
 6082TIP3    H139661   0.650   6.496   4.753  1.4176 -1.3289 -0.1470
 6082TIP3    H239662   0.716   6.601   4.840 -1.6335 -0.2201  0.9511
 6083TIP3   OH239663   0.719   5.426   1.451 -0.0777  0.4479 -0.1040
 6083TIP3    H139664   0.804   5.397   1.417 -0.5736  0.3122 -1.2887
 6083TIP3    H239665   0.722   5.522   1.445  0.2507  0.4811  0.5270
 6084TIP3   OH239666   1.129   6.047  14.382 -0.0882 -0.4103 -0.4442
 6084TIP3    H139667   1.221   6.024  14.365 -0.5770 -1.5399 -1.7416
 6084TIP3    H239668   1.103   5.990  14.454  0.2981  0.1430  0.1484
 6085TIP3   OH239669   3.381   1.253  12.727 -0.0096 -0.0849 -0.2035
 6085TIP3    H139670   3.420   1.182  12.778  1.6731  1.1547  0.3476
 6085TIP3    H239671   3.358   1.319  12.793 -1.7614 -0.1822 -0.6748
 6086TIP3   OH239672   5.974   0.265  12.089 -0.1482  0.2837 -0.4494
 6086TIP3    H139673   5.978   0.357  12.114 -0.4081  0.4768 -1.0928
 6086TIP3    H239674   6.034   0.258  12.015  0.6933 -0.2995  0.2674
 6087TIP3   OH239675   6.352   1.017  14.702  0.1687  0.2061  0.6155
 6087TIP3    H139676   6.360   0.924  14.725 -3.4308 -0.4287 -0.0936
 6087TIP3    H239677   6.367   1.063  14.784 -2.8429 -1.4182  2.2740
 6088TIP3   OH239678   0.982   4.490   3.146  0.2157 -0.0863  0.0346
 6088TIP3    H139679   0.890   4.494   3.173 -0.0818  0.6124 -1.0431
 6088TIP3    H239680   1.021   4.569   3.182  0.4955 -0.5543  0.7890
 6089TIP3   OH239681   4.443   2.050  14.996 -0.0357  0.1480  0.0105
 6089TIP3    H139682   4.484   2.112  14.936  0.0100  0.6191  0.5305
 6089TIP3    H239683   4.515   2.015  15.048 -0.2539  0.8468  0.8040
 6090TIP3   OH239684   3.634   1.742   5.572  0.5418 -0.1364  0.1361
 6090TIP3    H139685   3.667   1.826   5.605  0.0190 -0.0861  0.5574
 6090TIP3    H239686   3.590   1.703   5.648  0.3115 -0.5433 -0.2027
 6091TIP3   OH239687   3.587   4.955   5.915 -0.1575 -0.1052 -0.3194
 6091TIP3    H139688   3.668   4.941   5.964  0.7296  0.2413 -1.6386
 6091TIP3    H239689   3.603   4.915   5.830 -0.5078  1.9076 -1.4000
 6092TIP3   OH239690   3.060   1.481  14.701 -0.7505  0.0717 -0.3914
 6092TIP3    H139691   3.132   1.481  14.637 -0.7574 -1.3125 -0.4169
 6092TIP3    H239692   3.059   1.571  14.734 -0.5198  0.7446 -2.0789
 6093TIP3   OH239693   3.862   3.652   0.882  0.1598  0.5562  0.1022
 6093TIP3    H139694   3.888   3.717   0.817 -1.0398  1.5252  0.5587
 6093TIP3    H239695   3.834   3.703   0.958 -2.7178 -0.3829 -0.2223
 6094TIP3   OH239696   0.403   0.695   1.893  0.3856 -0.0797  0.1460
 6094TIP3    H139697   0.479   0.663   1.942  2.0782  1.0989 -1.5677
 6094TIP3    H239698   0.428   0.783   1.865 -1.4200  0.1425 -0.9133
 6095TIP3   OH239699   3.650   6.189   0.795 -0.4008  0.9730 -0.3276
 6095TIP3    H139700   3.659   6.241   0.715 -1.5090 -0.0804 -1.1863
 6095TIP3    H239701   3.734   6.145   0.806 -0.5651  0.3256 -1.5203
 6096TIP3   OH239702   0.843   0.349   0.003  0.2461  0.3095  0.4404
 6096TIP3    H139703   0.882   0.414  -0.056 -0.9066  1.2455  0.6800
 6096TIP3    H239704   0.911   0.282   0.012  0.2039 -0.3026 -2.5850
 6097TIP3   OH239705   0.317   4.709  14.620  0.1684  0.3227 -0.6302
 6097TIP3    H139706   0.317   4.629  14.673 -0.1987  0.2973 -0.6617
 6097TIP3    H239707   0.406   4.743  14.627 -0.1716  0.9732  1.0173
 6098TIP3   OH239708   4.955   6.599   3.393 -0.0254 -0.5871 -0.5086
 6098TIP3    H139709   4.910   6.632   3.471  1.4863 -0.7520  0.4791
 6098TIP3    H239710   4.907   6.520   3.369 -0.3085 -0.7244  0.4703
 6099TIP3   OH239711   2.529   0.033   5.630 -0.5774  0.0821 -0.6226
 6099TIP3    H139712   2.557   0.060   5.717 -1.2658  0.8531 -0.6237
 6099TIP3    H239713   2.548   0.109   5.574 -0.3228 -0.3313 -1.1048
 6100TIP3   OH239714   3.111   4.500   4.989 -0.0498 -0.1520 -0.1074
 6100TIP3    H139715   3.039   4.517   4.929 -0.7957 -1.0869  0.4849
 6100TIP3    H239716   3.096   4.559   5.063 -0.2690 -0.4056  0.0542
 6101TIP3   OH239717   6.081   0.433   3.875  0.1331  0.3170 -0.1272
 6101TIP3    H139718   6.021   0.507   3.887  1.0171  1.1676 -0.8206
 6101TIP3    H239719   6.058   0.397   3.789  0.4782  0.5171 -0.3035
 6102TIP3   OH239720   4.648   4.193  12.304  0.0194  0.2327 -0.0095
 6102TIP3    H139721   4.740   4.213  12.321  0.1398 -1.5837  1.8808
 6102TIP3    H239722   4.600   4.256  12.358  0.2270 -0.1682  0.6581
 6103TIP3   OH239723   6.806   5.179  13.263 -0.4408  0.2548  0.0917
 6103TIP3    H139724   6.740   5.209  13.200 -0.3846  1.0342  0.3960
 6103TIP3    H239725   6.889   5.187  13.217 -0.4800 -0.0199 -0.0330
 6104TIP3   OH239726   6.796   2.141  13.665 -0.6765 -0.4794  0.1728
 6104TIP3    H139727   6.854   2.177  13.732 -0.4317  0.2198 -0.4036
 6104TIP3    H239728   6.816   2.047  13.663 -0.3541 -0.4215  0.7454
 6105TIP3   OH239729   6.417   3.173  16.556 -0.4254 -0.0426  0.4881
 6105TIP3    H139730   6.394   3.263  16.535 -1.4056 -0.6264 -1.1415
 6105TIP3    H239731   6.336   3.134  16.589 -0.5320 -0.7922 -0.5804
 6106TIP3   OH239732   3.990   6.226   2.390 -0.2987 -0.0562  0.0066
 6106TIP3    H139733   3.984   6.316   2.360 -0.9258 -0.0414  0.1798
 6106TIP3    H239734   4.079   6.199   2.367  0.2596  0.9503  0.9025
 6107TIP3   OH239735   4.180   2.331  13.494 -0.1526 -0.2364  0.8424
 6107TIP3    H139736   4.135   2.248  13.514 -0.4077  0.0308  1.4069
 6107TIP3    H239737   4.111   2.397  13.501 -0.1217 -0.0480 -0.3702
 6108TIP3   OH239738   1.300   0.416   5.307  0.4554 -0.3698  0.4506
 6108TIP3    H139739   1.376   0.367   5.337  0.2906  0.1249  1.7414
 6108TIP3    H239740   1.317   0.432   5.214  2.4997  0.6948  0.9295
 6109TIP3   OH239741   2.005   6.588  14.391  0.1774 -0.4152  0.4878
 6109TIP3    H139742   1.955   6.586  14.309 -1.1872  0.8852  1.2493
 6109TIP3    H239743   2.092   6.554  14.367 -0.3628 -0.5900 -1.3625
 6110TIP3   OH239744   3.069   5.739   5.267  0.3353  0.6515  0.4034
 6110TIP3    H139745   3.017   5.797   5.322 -1.2734  2.3559 -2.6191
 6110TIP3    H239746   3.125   5.691   5.328 -0.5951  3.0119  3.3572
 6111TIP3   OH239747   6.185   3.228  12.750 -0.3161 -0.0639 -0.2535
 6111TIP3    H139748   6.109   3.183  12.786 -0.2896  0.5993  0.6526
 6111TIP3    H239749   6.234   3.159  12.705 -1.2856 -0.5588 -0.6028
 6112TIP3   OH239750   1.051   2.661  11.911  0.0500 -0.4222  0.3707
 6112TIP3    H139751   1.061   2.753  11.889  0.5831 -0.2002  1.4724
 6112TIP3    H239752   0.959   2.642  11.895 -0.0957  0.3474  0.2796
 6113TIP3   OH239753   2.721   5.847  15.112  0.0024 -0.4838 -0.1705
 6113TIP3    H139754   2.790   5.912  15.121 -1.7534  1.3801  0.7829
 6113TIP3    H239755   2.757   5.767  15.150  0.7428  1.1456  2.8017
 6114TIP3   OH239756   6.736   0.378  16.937  0.1090  0.4991  0.3134
 6114TIP3    H139757   6.777   0.309  16.884 -0.6958  0.7712 -0.6886
 6114TIP3    H239758   6.806   0.409  16.995  0.5022 -1.1279  0.7636
 6115TIP3   OH239759   4.612   0.669  13.475  0.4800 -0.0848 -0.1629
 6115TIP3    H139760   4.616   0.599  13.411  0.2645  0.0577 -0.3329
 6115TIP3    H239761   4.702   0.676  13.508  1.1798  1.4534 -2.1787
 6116TIP3   OH239762   5.855   4.125  16.211 -0.0006  0.3526  0.5922
 6116TIP3    H139763   5.870   4.139  16.117 -0.5776  2.0138  0.7147
 6116TIP3    H239764   5.864   4.031  16.223  1.4218  0.2524 -0.8964
 6117TIP3   OH239765   0.841   0.148  16.560 -0.3581  0.4274  0.3639
 6117TIP3    H139766   0.830   0.243  16.557 -0.8257  0.3821  0.5448
 6117TIP3    H239767   0.900   0.134  16.634 -1.3893  0.5004  1.2432
 6118TIP3   OH239768   2.149   3.868   6.239 -0.3515  0.2385 -0.2999
 6118TIP3    H139769   2.184   3.943   6.287  2.0782 -0.8299 -0.2392
 6118TIP3    H239770   2.060   3.857   6.272  0.2591  1.2837  1.8630
 6119TIP3   OH239771   1.410   6.363  11.564  0.0249  0.5621  0.6592
 6119TIP3    H139772   1.486   6.314  11.532 -0.9634  1.0688 -2.8406
 6119TIP3    H239773   1.408   6.344  11.658  1.7611 -3.1792  0.1433
 6120TIP3   OH239774   3.902   1.714  12.606 -0.2404  1.0323  0.1834
 6120TIP3    H139775   3.854   1.760  12.537  1.4070  0.5730 -1.3268
 6120TIP3    H239776   3.989   1.701  12.570  0.8419  1.2045  2.5749
 6121TIP3   OH239777   5.660   5.986  16.737  0.4220  0.3239 -0.3844
 6121TIP3    H139778   5.688   6.046  16.668  2.9930 -1.6558 -1.2194
 6121TIP3    H239779   5.738   5.971  16.790 -0.3308 -1.6181  0.3005
 6122TIP3   OH239780   2.607   6.366  16.428  0.1141 -0.5006  0.5726
 6122TIP3    H139781   2.658   6.414  16.362  0.5037 -1.4067  0.1978
 6122TIP3    H239782   2.591   6.430  16.497  0.2062  0.3039 -0.1358
 6123TIP3   OH239783   4.308   1.946  14.677  0.5368  0.5150 -0.0617
 6123TIP3    H139784   4.372   1.899  14.731  0.2559 -0.4853 -0.5921
 6123TIP3    H239785   4.250   1.878  14.644  0.8106  1.0847 -1.7951
 6124TIP3   OH239786   6.578   0.715  12.274  0.1496  0.4007 -0.4248
 6124TIP3    H139787   6.669   0.727  12.302 -0.4788  1.9094  1.1692
 6124TIP3    H239788   6.529   0.703  12.355 -1.4596  2.6219 -0.9650
 6125TIP3   OH239789   4.393   3.854  14.509  0.7476 -0.1835  0.0378
 6125TIP3    H139790   4.324   3.788  14.503 -3.2365  3.5737 -0.6571
 6125TIP3    H239791   4.446   3.828  14.584 -2.6182 -2.4061  1.8437
 6126TIP3   OH239792   0.600   1.144   3.974  0.5324 -0.2880  0.0726
 6126TIP3    H139793   0.671   1.117   4.032  1.6363 -0.3688 -1.2450
 6126TIP3    H239794   0.522   1.099   4.008  1.5314 -1.9008  0.3373
 6127TIP3   OH239795   5.665   5.978  11.629 -0.5642 -0.0115  0.1174
 6127TIP3    H139796   5.751   5.981  11.587 -0.9766 -0.5357 -0.7916
 6127TIP3    H239797   5.645   5.885  11.635 -0.1369 -0.0227  2.3333
 6128TIP3   OH239798   1.773   3.997  11.921 -0.0601 -0.0583  0.1653
 6128TIP3    H139799   1.772   3.908  11.958  1.5891  0.4099  1.4418
 6128TIP3    H239800   1.815   4.050  11.988 -1.6847  1.8673 -0.2592
 6129TIP3   OH239801   2.416   5.503  16.189 -0.3510  0.3481  0.0351
 6129TIP3    H139802   2.378   5.464  16.110 -0.7273 -0.0845  0.4284
 6129TIP3    H239803   2.370   5.587  16.198  0.7512  1.1120 -1.0414
 6130TIP3   OH239804   5.193   0.666  10.579  0.3895  0.0270  0.1365
 6130TIP3    H139805   5.282   0.699  10.567 -0.1695  2.5334  2.1214
 6130TIP3    H239806   5.137   0.733  10.541 -0.7246 -1.7493 -1.5449
 6131TIP3   OH239807   3.078   4.249  16.082  0.1245 -0.4438 -0.3830
 6131TIP3    H139808   3.136   4.311  16.038 -0.3900  0.1786 -0.1883
 6131TIP3    H239809   3.057   4.290  16.166 -1.6220 -0.0429 -0.9695
 6132TIP3   OH239810   5.021   1.257  13.249 -0.7224 -0.2077  0.4583
 6132TIP3    H139811   4.993   1.270  13.339 -0.5560 -1.6715  0.7531
 6132TIP3    H239812   4.966   1.185  13.217 -1.0689  0.5542 -0.7584
 6133TIP3   OH239813   4.980   1.532   4.317 -0.2465  0.4706  0.3728
 6133TIP3    H139814   5.069   1.507   4.340 -0.4662  0.5801  1.3790
 6133TIP3    H239815   4.941   1.452   4.282 -0.1230  0.1078  1.0559
 6134TIP3   OH239816   6.246   2.716   1.440  0.2840  0.4551  0.0092
 6134TIP3    H139817   6.157   2.716   1.476  0.2743 -0.1710 -0.0076
 6134TIP3    H239818   6.234   2.696   1.348  0.5711 -1.7257  0.3869
 6135TIP3   OH239819   2.914   1.738   2.420  0.2325  0.0029  0.6073
 6135TIP3    H139820   2.926   1.731   2.326 -0.9723  1.7620  0.2784
 6135TIP3    H239821   2.992   1.783   2.451 -0.0166  0.7136  0.2234
 6136TIP3   OH239822   3.037   5.253   1.467  0.2764  0.0043 -0.6062
 6136TIP3    H139823   3.016   5.162   1.447 -2.2214  0.5842 -0.9833
 6136TIP3    H239824   3.053   5.254   1.561 -1.3506 -0.5979 -0.2862
 6137TIP3   OH239825   2.976   2.716   6.338 -0.3130 -0.5293 -0.3542
 6137TIP3    H139826   2.919   2.646   6.369 -3.3541  1.4670 -1.0172
 6137TIP3    H239827   3.004   2.761   6.418 -1.0498 -0.5617 -0.0667
 6138TIP3   OH239828   6.089   2.629  14.518  0.2838 -0.1459 -0.0849
 6138TIP3    H139829   6.020   2.600  14.458 -0.1710 -0.0917  0.3968
 6138TIP3    H239830   6.166   2.640  14.463  0.1410 -1.0594 -0.4896
 6139TIP3   OH239831   0.944   3.208   3.670 -0.3084 -0.3583  0.7192
 6139TIP3    H139832   0.899   3.141   3.619 -0.6692  1.3639 -1.3649
 6139TIP3    H239833   1.032   3.213   3.631 -0.3489  0.4912  0.7243
 6140TIP3   OH239834   6.188   2.361   5.802  0.0815 -0.2778 -0.6914
 6140TIP3    H139835   6.257   2.393   5.859 -0.7771  2.2286 -0.9323
 6140TIP3    H239836   6.227   2.359   5.715  0.7757 -2.0830 -0.3700
 6141TIP3   OH239837   4.816   5.392   1.737 -0.3358 -0.3943 -0.3532
 6141TIP3    H139838   4.762   5.470   1.727  0.7126  0.2738 -1.0074
 6141TIP3    H239839   4.781   5.347   1.814 -1.0624  0.6298 -0.0751
 6142TIP3   OH239840   5.964   2.279   1.291 -0.0254 -0.6869 -0.2073
 6142TIP3    H139841   5.968   2.262   1.385  0.1990 -0.5578 -0.1914
 6142TIP3    H239842   5.899   2.217   1.258 -1.0848  0.1498  0.2257
 6143TIP3   OH239843   3.394   0.276  12.780  0.4209 -0.5282 -0.1918
 6143TIP3    H139844   3.470   0.332  12.792 -0.7680  1.0757  0.2762
 6143TIP3    H239845   3.326   0.316  12.834 -0.7551 -1.9014 -0.5896
 6144TIP3   OH239846   3.750   6.452  15.399 -1.0928 -0.1077 -0.1017
 6144TIP3    H139847   3.700   6.425  15.476 -1.3658 -1.1722 -0.6197
 6144TIP3    H239848   3.684   6.468  15.332 -0.9280  1.9070  0.1695
 6145TIP3   OH239849   2.443   5.047   3.209 -0.0977 -0.1850 -0.2522
 6145TIP3    H139850   2.474   5.090   3.289 -0.8044 -1.2882  0.6621
 6145TIP3    H239851   2.348   5.046   3.218 -0.1625 -0.6963 -0.9115
 6146TIP3   OH239852   0.043   0.900  14.977  0.3844  0.1401 -0.4413
 6146TIP3    H139853   0.093   0.894  14.895 -1.1865 -1.2193 -1.3660
 6146TIP3    H239854   0.039   0.993  14.996 -0.7908  0.6825 -2.9680
 6147TIP3   OH239855   2.719   3.304  14.833 -0.2210 -0.2225 -0.6995
 6147TIP3    H139856   2.803   3.310  14.879  0.1672 -2.0007 -1.1124
 6147TIP3    H239857   2.665   3.248  14.889 -0.4325 -0.7275 -1.3925
 6148TIP3   OH239858   1.547   1.437   0.190 -0.2385  0.7141  0.2907
 6148TIP3    H139859   1.610   1.430   0.261 -0.3732  1.6544  0.5145
 6148TIP3    H239860   1.480   1.371   0.211  1.2706 -1.2153 -0.6298
 6149TIP3   OH239861   4.903   1.679   3.441  0.1159 -0.7375 -0.3823
 6149TIP3    H139862   4.893   1.770   3.469 -1.0150 -1.1899  0.7296
 6149TIP3    H239863   4.998   1.665   3.438  0.2953 -0.2802  1.9846
 6150TIP3   OH239864   1.029   5.930  11.851  0.2982  0.2309 -0.3505
 6150TIP3    H139865   1.016   5.847  11.895 -0.7724  0.1135 -0.8422
 6150TIP3    H239866   1.120   5.929  11.823  0.8448  0.0768  1.3324
 6151TIP3   OH239867   5.057   6.693   3.710  0.2103  0.1216  0.2093
 6151TIP3    H139868   5.118   6.681   3.637  0.8193  2.4966  0.2426
 6151TIP3    H239869   4.974   6.659   3.677  0.0553  2.5324 -2.3152
 6152TIP3   OH239870   6.755   6.340   1.684 -0.8123 -0.1086  0.2533
 6152TIP3    H139871   6.764   6.351   1.779 -4.4854  0.9492  0.6046
 6152TIP3    H239872   6.788   6.422   1.647  0.6353 -0.5245  0.5443
 6153TIP3   OH239873   1.295   0.428   4.202  0.0990  0.1149  0.4178
 6153TIP3    H139874   1.286   0.464   4.291  0.8272  0.6748  0.2760
 6153TIP3    H239875   1.381   0.457   4.173 -0.6138  0.9543 -0.9474
 6154TIP3   OH239876   2.234   6.153   0.939  0.1225  0.1326 -0.1416
 6154TIP3    H139877   2.155   6.143   0.992  0.8287  1.5433  1.2645
 6154TIP3    H239878   2.283   6.072   0.952 -0.1029  0.1304  0.7436
 6155TIP3   OH239879   3.010   6.537   2.076  0.0539 -0.7260  0.1428
 6155TIP3    H139880   2.988   6.452   2.114 -1.3448 -0.0579  0.8592
 6155TIP3    H239881   2.956   6.544   1.997 -0.5934 -0.0735  0.6371
 6156TIP3   OH239882   3.638   4.646   5.809  0.1480 -0.0455 -0.5287
 6156TIP3    H139883   3.652   4.557   5.778  1.2065  0.3944 -1.4095
 6156TIP3    H239884   3.683   4.650   5.893  1.5280  0.0787 -1.2396
 6157TIP3   OH239885   0.422   6.775   1.618 -0.2462  0.5132  0.2371
 6157TIP3    H139886   0.481   6.839   1.579  0.6179  0.3065  1.1619
 6157TIP3    H239887   0.478   6.700   1.639 -0.9958 -0.0166  0.3720
 6158TIP3   OH239888   3.991   2.468   4.808  0.9259  0.2697 -0.0544
 6158TIP3    H139889   4.021   2.463   4.718  0.2133 -0.4945 -0.2687
 6158TIP3    H239890   3.903   2.507   4.803  0.8748  0.2119  0.3039
 6159TIP3   OH239891   5.612   1.694   1.678 -0.1077  0.3484 -0.2969
 6159TIP3    H139892   5.619   1.774   1.626 -0.3405  0.9991  0.6383
 6159TIP3    H239893   5.674   1.706   1.749 -1.2635  0.4044  0.7351
 6160TIP3   OH239894   1.240   4.851  14.170  0.0304 -0.0234 -0.0439
 6160TIP3    H139895   1.296   4.858  14.247  1.1331 -1.3738 -0.6698
 6160TIP3    H239896   1.165   4.907  14.189  0.5130  0.0574  1.7876
 6161TIP3   OH239897   0.384   6.624   1.064  0.1778 -0.2223  0.1471
 6161TIP3    H139898   0.432   6.672   0.997 -0.4098 -0.5730 -0.5229
 6161TIP3    H239899   0.304   6.674   1.078  0.0597 -0.4266  0.2139
 6162TIP3   OH239900   6.423   2.597  11.103  0.2643  0.5154 -0.0532
 6162TIP3    H139901   6.475   2.600  11.023 -0.6207  2.1112 -0.6194
 6162TIP3    H239902   6.372   2.678  11.101  0.6089  0.8649  2.4047
 6163TIP3   OH239903   1.389   6.001   1.409  0.1144 -0.0642 -0.1857
 6163TIP3    H139904   1.453   5.931   1.419 -0.5995 -0.5125  1.4423
 6163TIP3    H239905   1.392   6.022   1.315  1.2630 -1.3639 -0.4764
 6164TIP3   OH239906   4.167   6.190   1.881 -0.7681  0.1549  0.0466
 6164TIP3    H139907   4.128   6.275   1.865 -0.4895  0.1410 -0.7560
 6164TIP3    H239908   4.149   6.139   1.802 -0.5038 -0.3687  0.3108
 6165TIP3   OH239909   0.074   3.271   5.613 -0.2639 -0.3516 -0.4668
 6165TIP3    H139910   0.144   3.328   5.645  0.0410  0.6407 -2.6733
 6165TIP3    H239911  -0.001   3.291   5.668  0.5598  0.2812  0.4588
 6166TIP3   OH239912   6.107   6.079   0.476  0.5962 -0.8963  0.0506
 6166TIP3    H139913   6.150   6.048   0.396 -1.1193  0.0813 -1.3388
 6166TIP3    H239914   6.102   6.174   0.465 -1.8653 -0.9549  0.0821
 6167TIP3   OH239915   1.159   2.834  11.245  0.1835 -0.0307 -0.5071
 6167TIP3    H139916   1.225   2.903  11.243 -2.1158  2.3333  0.4002
 6167TIP3    H239917   1.144   2.814  11.152  2.4153 -1.0010 -0.7417
 6168TIP3   OH239918   0.361   5.599  12.779  0.7875 -0.2351  0.4379
 6168TIP3    H139919   0.390   5.510  12.758  1.2255  0.2172 -1.0537
 6168TIP3    H239920   0.267   5.598  12.761  0.9083 -0.2380 -0.2281
 6169TIP3   OH239921   6.727   6.271  12.448 -0.2576  0.6116 -0.1411
 6169TIP3    H139922   6.767   6.358  12.447  0.3420  0.3547 -1.8457
 6169TIP3    H239923   6.641   6.283  12.408  0.6126  0.1259 -2.2809
 6170TIP3   OH239924   0.504   2.082  16.654 -0.2727  0.1455 -0.3020
 6170TIP3    H139925   0.514   2.028  16.576  1.9337 -0.3505  0.2661
 6170TIP3    H239926   0.566   2.153  16.643 -0.7194  0.6796  0.5077
 6171TIP3   OH239927   1.715   5.474   5.238  0.0687  0.1831 -0.1664
 6171TIP3    H139928   1.782   5.490   5.304 -2.5992  2.2480  2.3202
 6171TIP3    H239929   1.718   5.551   5.181  1.0588 -0.6699 -1.3110
 6172TIP3   OH239930   6.725   1.855   5.453  0.5323 -0.8746  0.5379
 6172TIP3    H139931   6.637   1.817   5.458  0.0433  0.2468  0.8592
 6172TIP3    H239932   6.716   1.928   5.391  1.3890 -1.1287  0.1033
 6173TIP3   OH239933   5.528   5.341   2.981 -0.0084  0.1697  0.0961
 6173TIP3    H139934   5.527   5.247   2.999  1.8906 -0.3562 -1.9696
 6173TIP3    H239935   5.621   5.362   2.972 -0.4297  2.1030 -0.1374
 6174TIP3   OH239936   0.315   3.357  12.959  0.2567  0.1387  0.4338
 6174TIP3    H139937   0.401   3.385  12.990 -0.0928  0.6964  0.9190
 6174TIP3    H239938   0.326   3.265  12.936  0.2139 -0.7508  3.5326
 6175TIP3   OH239939   0.357   1.870  11.587  0.0011  1.0225 -0.4461
 6175TIP3    H139940   0.418   1.930  11.631 -1.9172  2.1014  0.8882
 6175TIP3    H239941   0.298   1.841  11.657 -0.6342 -0.4868 -1.5642
 6176TIP3   OH239942   5.384   0.282   3.296  0.4000  0.0833  0.0729
 6176TIP3    H139943   5.308   0.267   3.352 -1.3893  2.6114 -1.4661
 6176TIP3    H239944   5.414   0.194   3.272 -0.6517 -1.0133  2.4503
 6177TIP3   OH239945   2.070   2.738  10.648 -0.4159  0.0379 -0.0591
 6177TIP3    H139946   1.988   2.711  10.689 -0.4743 -1.4782 -1.0522
 6177TIP3    H239947   2.134   2.673  10.678  0.6179  1.6081  1.2636
 6178TIP3   OH239948   2.168   3.119  14.949 -0.0514 -0.1924 -0.3828
 6178TIP3    H139949   2.093   3.150  15.000 -0.1489  0.5273 -0.9498
 6178TIP3    H239950   2.222   3.197  14.936  0.4650 -0.5725 -0.5350
 6179TIP3   OH239951   2.921   4.873  14.743 -0.2809  0.1932 -0.2915
 6179TIP3    H139952   2.962   4.834  14.666  1.0276  1.6274 -0.3804
 6179TIP3    H239953   2.995   4.908  14.794 -1.2447  0.7673  0.7619
 6180TIP3   OH239954   6.073   3.102   3.353 -0.4504 -0.1903  0.1806
 6180TIP3    H139955   6.000   3.041   3.342  0.2417 -0.8710 -0.9044
 6180TIP3    H239956   6.053   3.150   3.433 -1.3918 -1.3422  0.6674
 6181TIP3   OH239957   1.843   1.907   3.634 -0.1240  0.3677 -0.4993
 6181TIP3    H139958   1.811   1.934   3.720 -0.5324  0.1471 -0.5778
 6181TIP3    H239959   1.792   1.828   3.613  2.0284 -1.3466  0.3563
 6182TIP3   OH239960   1.868   6.042  16.826 -0.5191 -0.1048  0.2458
 6182TIP3    H139961   1.930   6.076  16.891 -0.6026  0.3038  0.1160
 6182TIP3    H239962   1.786   6.033  16.875 -1.0214  1.7673 -0.1671
 6183TIP3   OH239963   5.170   6.383  14.039 -0.2557 -0.5826  0.0634
 6183TIP3    H139964   5.151   6.420  13.953 -0.1076 -1.1993 -0.2403
 6183TIP3    H239965   5.189   6.459  14.094 -1.8984 -0.0601 -0.0327
 6184TIP3   OH239966   4.811   3.159   3.918 -0.3898 -0.4167 -0.0580
 6184TIP3    H139967   4.853   3.195   3.840 -0.8640  0.5945  0.1330
 6184TIP3    H239968   4.797   3.235   3.975 -1.0173 -0.9750  0.5565
 6185TIP3   OH239969   6.702   4.696   0.138  0.0141 -0.1616  0.2760
 6185TIP3    H139970   6.715   4.665   0.227 -1.7772  1.6701  1.2793
 6185TIP3    H239971   6.671   4.619   0.090  1.3534 -1.2566  1.0986
 6186TIP3   OH239972   0.189   2.879  14.996 -0.4215 -0.1487 -0.5092
 6186TIP3    H139973   0.226   2.913  14.914  2.3224  1.1379  1.0996
 6186TIP3    H239974   0.196   2.784  14.988 -0.6215 -0.0685 -1.9169
 6187TIP3   OH239975   4.264   2.600  14.443  0.1451  0.7529  0.2105
 6187TIP3    H139976   4.349   2.557  14.449  0.8740  2.0106 -0.6350
 6187TIP3    H239977   4.207   2.549  14.500  0.9399 -1.3335 -0.7775
 6188TIP3   OH239978   0.850   5.447   0.047  0.6833 -0.0262  0.3223
 6188TIP3    H139979   0.852   5.516   0.114 -0.0454 -0.0753  0.4033
 6188TIP3    H239980   0.773   5.396   0.069 -0.7365  1.1140 -1.7086
 6189TIP3   OH239981   3.606   6.797   6.447 -0.7096  0.4042  0.7924
 6189TIP3    H139982   3.585   6.725   6.506 -3.3066  1.5926  1.4957
 6189TIP3    H239983   3.589   6.762   6.359 -2.0242  0.1341  1.1329
 6190TIP3   OH239984   4.383   2.897   2.254 -0.6371 -0.6238 -0.3827
 6190TIP3    H139985   4.322   2.876   2.182  0.5147  0.6571 -1.8092
 6190TIP3    H239986   4.366   2.990   2.273  0.4622 -0.4011 -0.4226
 6191TIP3   OH239987   0.822   6.327   5.694  0.0344  0.2340 -0.7166
 6191TIP3    H139988   0.727   6.340   5.684 -0.0038 -0.2616 -1.0382
 6191TIP3    H239989   0.861   6.398   5.643 -0.1477  1.1485  0.3693
 6192TIP3   OH239990   2.791   5.378  12.215 -0.1526  0.5697  0.3638
 6192TIP3    H139991   2.718   5.364  12.155 -0.5313  0.5138  0.8286
 6192TIP3    H239992   2.869   5.358  12.164 -0.5251 -0.5179  0.2030
 6193TIP3   OH239993   5.184   3.919   0.489 -0.3937 -0.2012 -0.0002
 6193TIP3    H139994   5.195   3.886   0.400  0.4996 -0.1165  0.0688
 6193TIP3    H239995   5.174   3.840   0.542 -0.7945 -0.2564 -0.1559
 6194TIP3   OH239996   3.055   3.196   6.445 -0.3861  0.1140 -0.4292
 6194TIP3    H139997   3.026   3.255   6.515  0.7381  1.1486 -0.7946
 6194TIP3    H239998   3.128   3.242   6.404 -0.7343 -0.6748 -2.0020
 6195TIP3   OH239999   4.781   6.679   4.645  0.2041  0.1832  0.1988
 6195TIP3    H140000   4.776   6.620   4.721  0.7044  0.1916  0.2382
 6195TIP3    H240001   4.807   6.763   4.682 -0.1472  0.3423  0.0922
 6196TIP3   OH240002   3.973   2.141   1.013  0.0439  0.4971 -0.3616
 6196TIP3    H140003   3.915   2.075   1.052  1.0694 -0.1353  0.1273
 6196TIP3    H240004   3.914   2.213   0.989 -0.7542  0.5046  1.4572
 6197TIP3   OH240005   4.269   1.953   5.220  0.3817  0.3930  0.2773
 6197TIP3    H140006   4.325   1.915   5.288  0.5954 -0.3128 -0.2742
 6197TIP3    H240007   4.207   2.007   5.267  0.8539  0.3271  0.9945
 6198TIP3   OH240008   4.766   1.865  13.280  0.0082 -1.0562 -0.2951
 6198TIP3    H140009   4.687   1.892  13.327  0.8307 -1.8292  1.6497
 6198TIP3    H240010   4.735   1.808  13.210 -1.2779  0.2484 -0.8267
 6199TIP3   OH240011   3.406   1.584   1.955  0.2692  0.1347  0.4167
 6199TIP3    H140012   3.487   1.542   1.985  0.7128 -0.4504 -1.4687
 6199TIP3    H240013   3.432   1.673   1.931  0.2613  0.0987  0.2715
 6200TIP3   OH240014   6.519   5.488  16.351 -0.1045  0.3459  0.3553
 6200TIP3    H140015   6.584   5.536  16.402 -0.2217  0.9718 -0.0761
 6200TIP3    H240016   6.548   5.498  16.260  0.5926 -1.4865  0.3325
 6201TIP3   OH240017   4.137   2.689  13.435 -0.0898 -0.5246  0.2355
 6201TIP3    H140018   4.221   2.648  13.456 -0.8134 -1.5740  1.1969
 6201TIP3    H240019   4.111   2.650  13.352 -0.4690 -1.5455  0.8279
 6202TIP3   OH240020   1.567   1.001  11.232  0.2146 -0.2794  0.3417
 6202TIP3    H140021   1.598   1.077  11.183 -0.5617  0.0857  0.3886
 6202TIP3    H240022   1.639   0.938  11.229  0.4304  0.0050 -0.6889
 6203TIP3   OH240023   1.316   4.501   3.111  0.1650  0.1060  0.1032
 6203TIP3    H140024   1.325   4.484   3.017  0.1935  1.7697 -0.2151
 6203TIP3    H240025   1.246   4.566   3.117  0.2055  0.0608  1.2388
 6204TIP3   OH240026   1.839   0.147  13.968 -0.1823  0.3541  0.0520
 6204TIP3    H140027   1.794   0.067  13.940  0.8687 -0.1637 -0.2032
 6204TIP3    H240028   1.796   0.171  14.050  0.6818 -1.5217  1.1096
 6205TIP3   OH240029   5.991   4.857  15.824  0.4440 -0.1801 -0.2212
 6205TIP3    H140030   5.934   4.807  15.883 -1.1389  0.2239 -1.3516
 6205TIP3    H240031   6.045   4.790  15.782  0.4828 -0.6273  0.5137
 6206TIP3   OH240032   2.240   6.722   1.334 -0.0949 -0.1253  0.2816
 6206TIP3    H140033   2.210   6.640   1.297 -2.4019  1.4168 -1.5695
 6206TIP3    H240034   2.167   6.753   1.387 -0.9182  2.3814 -2.0423
 6207TIP3   OH240035   1.756   5.944   2.304  0.2043  0.2088  0.0515
 6207TIP3    H140036   1.809   5.884   2.252 -0.0521  1.3450 -1.5956
 6207TIP3    H240037   1.819   6.004   2.343  0.3280 -0.0927  0.3207
 6208TIP3   OH240038   5.008   0.061   1.443  0.1990 -0.3512 -0.0154
 6208TIP3    H140039   4.939  -0.005   1.433 -0.9356  0.7233  0.4454
 6208TIP3    H240040   5.086   0.011   1.466 -1.1863 -1.4029  2.8656
 6209TIP3   OH240041   1.906   4.539   2.779 -0.4542 -0.5907  0.3602
 6209TIP3    H140042   1.818   4.533   2.742 -0.7699 -1.4746  1.2049
 6209TIP3    H240043   1.924   4.633   2.783 -0.6118 -0.4490 -1.4971
 6210TIP3   OH240044   4.804   5.288   5.793  0.5295 -0.1085  0.3223
 6210TIP3    H140045   4.744   5.361   5.774 -0.7959 -1.1737  0.2439
 6210TIP3    H240046   4.746   5.212   5.802  1.9638 -1.3596 -0.6818
 6211TIP3   OH240047   2.168   3.326  12.115  0.5375 -0.2900  0.4186
 6211TIP3    H140048   2.240   3.388  12.125  0.6824 -0.2635 -0.5973
 6211TIP3    H240049   2.151   3.325  12.020 -0.4222 -0.7168  0.5845
 6212TIP3   OH240050   1.033   4.957  10.766 -0.0720  0.3222 -0.0584
 6212TIP3    H140051   0.973   4.998  10.828  0.5869  0.2314  0.6605
 6212TIP3    H240052   1.117   5.001  10.781 -0.0803  0.8793 -1.4731
 6213TIP3   OH240053   6.528   3.589  11.880  0.2386 -0.1639 -0.2346
 6213TIP3    H140054   6.453   3.648  11.884  1.2697  1.1509  2.3783
 6213TIP3    H240055   6.566   3.603  11.794 -1.7191  0.1189 -1.0961
 6214TIP3   OH240056   1.224   5.788   1.071  0.0273 -0.1742 -0.1185
 6214TIP3    H140057   1.302   5.767   1.019 -0.8285 -0.0471 -1.5033
 6214TIP3    H240058   1.160   5.818   1.007 -1.3080 -0.6632  0.9384
 6215TIP3   OH240059   2.744   1.341  11.647 -0.5613 -0.0185 -0.2758
 6215TIP3    H140060   2.698   1.261  11.671 -0.2953 -0.0456  0.1559
 6215TIP3    H240061   2.768   1.381  11.731 -0.7305  0.5361 -0.4874
 6216TIP3   OH240062   1.488   2.998  11.001  0.2062 -0.1996 -0.4764
 6216TIP3    H140063   1.440   2.916  10.989  0.5537 -0.3726 -0.7150
 6216TIP3    H240064   1.578   2.976  10.979  0.1546  0.4630 -1.4290
 6217TIP3   OH240065   0.768   0.346  13.878  0.0795 -0.3321  0.0787
 6217TIP3    H140066   0.856   0.366  13.845  0.3830 -0.9923  0.4668
 6217TIP3    H240067   0.775   0.360  13.972 -0.3981  0.1863  0.0384
 6218TIP3   OH240068   1.704   1.994   2.001  0.2438  0.3716 -0.0645
 6218TIP3    H140069   1.735   1.950   1.922  1.6587  0.7600  0.2501
 6218TIP3    H240070   1.780   1.994   2.060  0.2636  3.0701  0.0031
 6219TIP3   OH240071   1.376   2.238  14.377 -0.1908 -0.4063 -0.3985
 6219TIP3    H140072   1.453   2.252  14.322 -1.6182  1.7956 -2.0179
 6219TIP3    H240073   1.333   2.161  14.339  0.0001 -0.2233 -1.0043
 6220TIP3   OH240074   0.757   6.684  12.010  0.5616  0.1111 -0.0162
 6220TIP3    H140075   0.805   6.659  12.089 -1.0845  1.3512  1.4681
 6220TIP3    H240076   0.665   6.684  12.036  0.1366  4.4276 -0.6343
 6221TIP3   OH240077   1.337   0.717  11.751 -0.1551 -0.7397  0.1539
 6221TIP3    H140078   1.349   0.789  11.690 -1.4149 -1.7350 -1.3624
 6221TIP3    H240079   1.376   0.641  11.707 -0.6657 -1.3970  0.8007
 6222TIP3   OH240080   6.413   2.105   3.688  0.2096  0.5298 -0.1904
 6222TIP3    H140081   6.412   2.014   3.719  0.2960  0.3702 -0.6497
 6222TIP3    H240082   6.437   2.156   3.765 -0.8006  0.2591  0.3220
 6223TIP3   OH240083   1.969   0.064  11.256  0.1252 -0.4994 -0.4791
 6223TIP3    H140084   1.996  -0.012  11.205  0.6717  0.0331 -1.0061
 6223TIP3    H240085   1.881   0.044  11.286  0.7830 -1.9497  0.5860
 6224TIP3   OH240086   3.464   2.882   5.881 -0.4883 -0.3432 -0.1704
 6224TIP3    H140087   3.489   2.839   5.963  0.9171 -1.1040 -0.9482
 6224TIP3    H240088   3.369   2.888   5.884 -0.5469 -1.4747  0.9738
 6225TIP3   OH240089   2.121   2.619  16.165  0.2549 -0.6488  0.0785
 6225TIP3    H140090   2.105   2.602  16.072 -2.0544  0.2897  0.2332
 6225TIP3    H240091   2.167   2.703  16.167  1.1846 -1.1374 -0.2229
 6226TIP3   OH240092   4.063   0.260  12.659 -0.2174  0.6091 -0.2369
 6226TIP3    H140093   4.015   0.317  12.719  1.2616  1.1132  0.5176
 6226TIP3    H240094   4.088   0.317  12.587  0.3048  0.6665 -0.0177
 6227TIP3   OH240095   0.267   4.143   4.023  0.4175  0.1347 -0.1968
 6227TIP3    H140096   0.251   4.228   4.064 -2.3728 -1.1878  1.7978
 6227TIP3    H240097   0.192   4.130   3.965 -0.2712 -1.7537  1.0346
 6228TIP3   OH240098   0.235   3.870   4.094  0.0420 -0.2811 -0.4440
 6228TIP3    H140099   0.145   3.889   4.118  0.8005  0.6422  2.0173
 6228TIP3    H240100   0.273   3.956   4.075  0.5641 -0.5963 -0.8551
 6229TIP3   OH240101   2.500   3.771  12.293 -0.2628 -0.5603 -0.0348
 6229TIP3    H140102   2.462   3.707  12.354  1.0569 -0.6518  0.7272
 6229TIP3    H240103   2.503   3.725  12.209  1.5828 -1.9192  0.7037
 6230TIP3   OH240104   1.747   3.158   3.843  0.3237  0.1464  0.1243
 6230TIP3    H140105   1.689   3.232   3.862 -0.5147 -0.4323 -0.1207
 6230TIP3    H240106   1.744   3.104   3.922  2.1990  1.1378  0.9501
 6231TIP3   OH240107   5.085   1.432   5.080  0.2186  0.1634  0.3027
 6231TIP3    H140108   5.026   1.385   5.139  0.0918 -0.2941 -0.1820
 6231TIP3    H240109   5.126   1.364   5.028  1.7469  0.4001  1.1221
 6232TIP3   OH240110   5.783   3.524  16.866 -0.1029  0.2679 -0.0238
 6232TIP3    H140111   5.815   3.574  16.790 -1.3893  0.6165 -0.3544
 6232TIP3    H240112   5.778   3.589  16.936 -0.2911  0.2583 -0.0289
 6233TIP3   OH240113   3.735   6.605  16.030 -0.3720 -0.0569 -0.5418
 6233TIP3    H140114   3.796   6.641  16.095  0.1731 -0.4496 -0.8337
 6233TIP3    H240115   3.685   6.681  15.999  0.6738  0.4338 -1.0603
 6234TIP3   OH240116   5.498   1.908   1.008 -0.7569  0.6402  0.5144
 6234TIP3    H140117   5.496   1.812   1.012 -1.8911  0.6951  3.4145
 6234TIP3    H240118   5.591   1.929   0.999 -0.4702 -0.7129  0.0444
 6235TIP3   OH240119   0.163   5.687   2.795  0.3060 -0.0560  0.0974
 6235TIP3    H140120   0.125   5.689   2.707  0.2821  0.2220  0.1115
 6235TIP3    H240121   0.107   5.628   2.845 -1.1958  1.7253  0.6028
 6236TIP3   OH240122   5.438   6.781   4.668  0.3573  0.7392  0.2462
 6236TIP3    H140123   5.444   6.803   4.761 -1.8491  1.0089  0.3763
 6236TIP3    H240124   5.367   6.837   4.635  0.8637  0.3863 -1.5244
 6237TIP3   OH240125   3.243   2.777   1.799 -0.2319  0.3568 -0.0613
 6237TIP3    H140126   3.222   2.834   1.726 -0.6035 -0.9734 -1.0389
 6237TIP3    H240127   3.216   2.690   1.770 -3.4914  0.1722  2.8624
 6238TIP3   OH240128   3.122   1.228   0.849 -0.5580 -0.2109  0.4847
 6238TIP3    H140129   3.153   1.222   0.758  0.4335 -1.3662  0.8770
 6238TIP3    H240130   3.193   1.190   0.901 -0.6776  1.3263  1.8605
 6239TIP3   OH240131   1.432   1.500  14.883  0.2023 -0.5409 -0.0328
 6239TIP3    H140132   1.382   1.439  14.938 -1.0918  0.5242  0.0306
 6239TIP3    H240133   1.502   1.531  14.940  0.1530 -1.0626  0.3241
 6240TIP3   OH240134   1.680   0.300  14.163 -0.0569  0.2505 -0.0797
 6240TIP3    H140135   1.666   0.361  14.235 -0.0461  0.7146 -0.4649
 6240TIP3    H240136   1.612   0.234  14.175  0.6919 -0.3493  1.0466
 6241TIP3   OH240137   0.540   5.705  11.430 -0.0507 -0.8082  0.7238
 6241TIP3    H140138   0.461   5.653  11.443 -0.4575 -0.0115  1.5935
 6241TIP3    H240139   0.521   5.761  11.355  0.5792 -2.2228 -0.5428
 6242TIP3   OH240140   3.422   6.346  13.855  0.2418 -0.3233  0.4070
 6242TIP3    H140141   3.413   6.289  13.779 -0.0297 -0.8416  0.8190
 6242TIP3    H240142   3.509   6.385  13.845  1.7456 -3.0544  1.5972
 6243TIP3   OH240143   0.553   6.275  15.783  0.4067 -0.0429 -0.0725
 6243TIP3    H140144   0.609   6.290  15.707  1.8704 -0.9139  0.7895
 6243TIP3    H240145   0.592   6.326  15.853 -2.1253  2.4607 -0.3203
 6244TIP3   OH240146   2.902   6.237   4.767  0.6934  0.3819 -0.6491
 6244TIP3    H140147   2.938   6.226   4.855  0.6505 -0.1997 -0.7006
 6244TIP3    H240148   2.836   6.306   4.777  1.7210  1.3672 -0.5330
 6245TIP3   OH240149   3.948   1.139  14.479  0.1110  0.4543 -0.5530
 6245TIP3    H140150   4.031   1.121  14.524  0.0019  0.8794 -0.1811
 6245TIP3    H240151   3.924   1.227  14.506 -0.2960  0.4604 -0.9243
 6246TIP3   OH240152   1.507   6.145   2.330 -0.0594  0.4484 -0.1280
 6246TIP3    H140153   1.602   6.135   2.342 -0.0452  0.8275  0.1150
 6246TIP3    H240154   1.469   6.093   2.401 -0.0755 -0.9865 -1.1531
 6247TIP3   OH240155   1.209   3.848   2.467 -0.2665 -0.3111 -0.2087
 6247TIP3    H140156   1.217   3.756   2.491  1.0638  0.4249  2.6349
 6247TIP3    H240157   1.122   3.874   2.498 -0.4978 -0.5224 -0.6796
 6248TIP3   OH240158   5.879   1.727   1.766 -0.3631  0.3577  0.1940
 6248TIP3    H140159   5.885   1.707   1.673  1.3462  0.8818  0.1514
 6248TIP3    H240160   5.941   1.666   1.807 -1.2890 -0.0438  1.0278
 6249TIP3   OH240161   4.263   3.337   5.897  0.8018  0.0376  0.0209
 6249TIP3    H140162   4.339   3.394   5.910  0.9481  0.2643 -1.6265
 6249TIP3    H240163   4.187   3.395   5.912  0.9430  0.8686 -2.1874
 6250TIP3   OH240164   5.781   5.724  13.364 -0.1511 -0.1019  0.6986
 6250TIP3    H140165   5.760   5.800  13.310  0.1584 -0.1903  0.4509
 6250TIP3    H240166   5.828   5.760  13.439  0.8132 -0.1327  0.1303
 6251TIP3   OH240167   5.840   2.544   3.151  0.4336 -0.8526 -0.4289
 6251TIP3    H140168   5.760   2.541   3.098  0.6988  1.3861 -1.0637
 6251TIP3    H240169   5.908   2.573   3.089  1.3200 -0.8135  0.5416
 6252TIP3   OH240170   0.159   5.797  11.935 -0.1334 -0.2159 -0.2959
 6252TIP3    H140171   0.250   5.776  11.954  0.2803  1.7783  0.1807
 6252TIP3    H240172   0.108   5.733  11.986  1.0039  0.0428  1.2362
 6253TIP3   OH240173   4.580   4.841   5.998 -0.3213  0.7660  0.6265
 6253TIP3    H140174   4.527   4.916   6.026  1.0774  1.1394  2.4715
 6253TIP3    H240175   4.562   4.773   6.063 -0.4085  0.0297 -0.1564
 6254TIP3   OH240176   4.039   4.041  13.880 -0.8083  0.5532  0.1674
 6254TIP3    H140177   4.009   3.972  13.820  1.9042  0.0581 -0.8028
 6254TIP3    H240178   4.118   4.076  13.837  0.0160  1.6700  2.4521
 6255TIP3   OH240179   5.218   2.252   2.180 -0.4410 -0.2588 -0.4484
 6255TIP3    H140180   5.203   2.178   2.122  0.1670 -0.8706  0.1639
 6255TIP3    H240181   5.131   2.275   2.214 -0.6943 -0.3665 -1.0187
 6256TIP3   OH240182   4.106   6.052  13.482 -0.4493  0.2188 -0.5035
 6256TIP3    H140183   4.173   6.120  13.470 -1.3852  1.4923  0.9698
 6256TIP3    H240184   4.151   5.982  13.529 -0.0158  0.8373  0.0198
 6257TIP3   OH240185   5.546   4.556   6.669  0.0386  0.4771 -0.1109
 6257TIP3    H140186   5.635   4.592   6.666  0.5546 -0.7970 -1.7875
 6257TIP3    H240187   5.557   4.464   6.645 -1.5584 -0.1560  1.3547
 6258TIP3   OH240188   4.240   4.241  14.952 -0.0563  0.3426  0.2545
 6258TIP3    H140189   4.211   4.286  15.032 -0.0755 -0.2711  0.5992
 6258TIP3    H240190   4.327   4.207  14.974  0.1020  0.5094 -0.1184
 6259TIP3   OH240191   2.543   2.515  16.667 -0.1122  0.0770 -0.5845
 6259TIP3    H140192   2.561   2.490  16.577 -0.9993  1.7651 -1.2719
 6259TIP3    H240193   2.610   2.579  16.689 -0.8550  0.8979 -0.6402
 6260TIP3   OH240194   2.382   6.037   2.477 -0.0300  0.1966  0.1856
 6260TIP3    H140195   2.434   6.019   2.555  1.0884 -1.7706 -0.9436
 6260TIP3    H240196   2.446   6.062   2.411 -0.6989 -0.3734 -0.7034
 6261TIP3   OH240197   1.716   5.389   2.216 -0.3792 -1.0685  0.7203
 6261TIP3    H140198   1.695   5.396   2.310  0.2308 -1.4909  0.8929
 6261TIP3    H240199   1.632   5.376   2.173 -0.5487 -2.0451  1.3268
 6262TIP3   OH240200   6.650   2.993   1.607  0.1399  0.1498  0.4181
 6262TIP3    H140201   6.725   3.036   1.565  0.3077  0.1248  0.6901
 6262TIP3    H240202   6.574   3.037   1.571  0.2660 -0.1624 -0.2385
 6263TIP3   OH240203   4.619   2.847  14.063  0.3378 -0.3214 -0.5197
 6263TIP3    H140204   4.569   2.876  14.139  1.2390 -0.1120  0.0083
 6263TIP3    H240205   4.643   2.928  14.018 -0.6540 -0.4654 -1.3509
 6264TIP3   OH240206   3.024   4.003  15.722 -0.1509  0.2848 -0.5555
 6264TIP3    H140207   2.936   3.989  15.755  0.1201  2.0147  1.0536
 6264TIP3    H240208   3.048   3.919  15.682 -1.4605 -1.1561  1.4837
 6265TIP3   OH240209   3.075   5.367  11.662  0.4009  0.2190  0.0009
 6265TIP3    H140210   3.002   5.315  11.628 -1.6401  2.1846  1.0479
 6265TIP3    H240211   3.048   5.390  11.752  1.3149  2.6721 -0.2679
 6266TIP3   OH240212   0.663   1.046  12.314  0.2355 -0.0519  0.0258
 6266TIP3    H140213   0.711   1.044  12.397 -1.7573  0.4568  1.2672
 6266TIP3    H240214   0.717   1.101  12.257  2.4001 -1.6278  0.4212
 6267TIP3   OH240215   0.018   5.783  16.891  0.4040 -0.0666  0.5473
 6267TIP3    H140216  -0.076   5.772  16.905  0.2006  2.0683  1.0949
 6267TIP3    H240217   0.057   5.707  16.934 -1.0984 -1.6864 -0.7767
 6268TIP3   OH240218   1.345   1.289   0.298  0.7217  0.3474  0.4552
 6268TIP3    H140219   1.352   1.273   0.392  0.4292  0.3028  0.4701
 6268TIP3    H240220   1.277   1.228   0.268 -1.3718  2.4137  0.7276
 6269TIP3   OH240221   6.016   1.878  11.892 -0.2110 -0.0082  0.1988
 6269TIP3    H140222   6.073   1.889  11.968  0.9002 -0.7192 -0.4964
 6269TIP3    H240223   5.966   1.960  11.887  1.1115  0.8560  0.5504
 6270TIP3   OH240224   4.648   0.414   3.799  0.0988 -0.5489  0.5297
 6270TIP3    H140225   4.740   0.429   3.820  0.6886 -1.1702 -1.3903
 6270TIP3    H240226   4.601   0.487   3.840  1.6585  0.8024 -0.0077
 6271TIP3   OH240227   3.149   0.125   2.417 -0.6353  0.3726 -0.0250
 6271TIP3    H140228   3.140   0.031   2.399  2.6076 -0.0098 -0.3057
 6271TIP3    H240229   3.173   0.163   2.333  1.1696  0.8857  0.6862
 6272TIP3   OH240230   6.045   1.774   5.093  0.3238 -0.0595 -0.2054
 6272TIP3    H140231   5.999   1.744   5.015  0.8901 -0.7715 -0.2825
 6272TIP3    H240232   6.078   1.693   5.133 -1.5551  0.0696  1.8076
 6273TIP3   OH240233   0.686   6.666   5.233  0.0289  0.4773 -0.1503
 6273TIP3    H140234   0.685   6.737   5.168  2.9683  0.2720 -0.5601
 6273TIP3    H240235   0.693   6.586   5.180 -0.3789  0.1025  0.3640
 6274TIP3   OH240236   5.948   2.717  16.577 -0.1683  0.7803  0.0705
 6274TIP3    H140237   5.910   2.641  16.533  1.6070 -0.5730  0.7416
 6274TIP3    H240238   5.881   2.785  16.571 -1.1404 -0.2805 -2.0690
 6275TIP3   OH240239   0.616   1.995  12.962 -0.4512 -0.2040 -0.2682
 6275TIP3    H140240   0.532   2.017  13.002 -0.4417  1.4221 -1.0459
 6275TIP3    H240241   0.610   1.901  12.943 -1.2997 -0.5349  1.4579
 6276TIP3   OH240242   2.485   1.803  15.644  0.1161  0.4278 -0.2545
 6276TIP3    H140243   2.442   1.719  15.662  0.3565  0.2882 -0.3150
 6276TIP3    H240244   2.427   1.869  15.681  1.6570  0.0717  3.2300
 6277TIP3   OH240245   6.023   1.545   5.320  0.2933  0.0731 -0.3849
 6277TIP3    H140246   6.068   1.480   5.266  0.2135  0.6263 -1.1344
 6277TIP3    H240247   6.073   1.547   5.401  1.9227  0.9950 -1.3584
 6278TIP3   OH240248   5.115   1.101   2.320 -0.5802 -0.0732  0.5455
 6278TIP3    H140249   5.058   1.168   2.282  0.1131  1.1895  1.6662
 6278TIP3    H240250   5.054   1.039   2.361 -1.2208  0.0524 -0.1933
 6279TIP3   OH240251   3.655   2.879  14.377 -0.1566 -0.3399 -0.4657
 6279TIP3    H140252   3.571   2.877  14.423  0.0540 -1.3279 -0.1035
 6279TIP3    H240253   3.645   2.817  14.305  0.3438 -0.6867 -0.2502
 6280TIP3   OH240254   4.793   4.486   5.524  0.2690  0.3270  0.2345
 6280TIP3    H140255   4.798   4.492   5.619 -2.7850  0.7064  0.4527
 6280TIP3    H240256   4.810   4.394   5.505 -0.9983 -0.1705  1.3650
 6281TIP3   OH240257   5.119   3.288   2.880  0.0033 -0.4441  0.2283
 6281TIP3    H140258   5.154   3.377   2.871 -2.3261  0.4854 -0.5484
 6281TIP3    H240259   5.173   3.235   2.822  0.6077  0.7184 -0.3107
 6282TIP3   OH240260   3.814   5.572  14.691 -0.3257  0.3514  0.0664
 6282TIP3    H140261   3.744   5.541  14.748 -0.2807 -1.0687 -0.5950
 6282TIP3    H240262   3.889   5.517  14.714 -0.0190  0.4653 -0.6311
 6283TIP3   OH240263   2.156   4.400   4.139  0.1691 -0.0458  0.2064
 6283TIP3    H140264   2.103   4.465   4.093  0.4201 -1.3596 -2.0685
 6283TIP3    H240265   2.205   4.450   4.204  1.1903  2.2634 -2.1796
 6284TIP3   OH240266   4.805   2.247  11.075 -0.0209  0.1418  0.0577
 6284TIP3    H140267   4.753   2.198  11.011 -0.4839  0.2580  0.3430
 6284TIP3    H240268   4.811   2.189  11.151 -0.8585  0.6484  0.5270
 6285TIP3   OH240269   2.774   2.635   3.381  0.4330 -0.1671 -0.0183
 6285TIP3    H140270   2.792   2.723   3.348  0.5614  0.3916  1.4581
 6285TIP3    H240271   2.856   2.608   3.422  0.5495 -1.1936 -0.9023
 6286TIP3   OH240272   1.201   1.458   1.664  0.0940  0.2856 -0.2012
 6286TIP3    H140273   1.175   1.424   1.749  1.4343 -1.7413 -0.5278
 6286TIP3    H240274   1.210   1.381   1.609  2.3241  1.2407 -1.3093
 6287TIP3   OH240275   6.019   2.313  11.653  0.6959  0.1185  0.4848
 6287TIP3    H140276   5.929   2.345  11.643 -0.3327 -1.9055  2.3747
 6287TIP3    H240277   6.072   2.393  11.655 -0.9822  1.3665 -0.9216
 6288TIP3   OH240278   3.916   4.986   5.571 -0.1320  0.2985  0.0985
 6288TIP3    H140279   3.828   4.966   5.538  0.4934 -3.3637  0.2434
 6288TIP3    H240280   3.917   4.951   5.659  1.4958  0.2724  0.0990
 6289TIP3   OH240281   6.653   1.557   1.904 -0.3031 -0.0719 -0.2490
 6289TIP3    H140282   6.646   1.465   1.930 -1.2056  0.4319  1.4796
 6289TIP3    H240283   6.621   1.606   1.981 -0.2359  1.6634 -1.2745
 6290TIP3   OH240284   2.504   5.981  15.823 -0.3076  0.0028 -0.1123
 6290TIP3    H140285   2.414   6.012  15.836 -0.7001 -1.2672  0.3150
 6290TIP3    H240286   2.540   5.974  15.911 -0.0659 -0.2940 -0.2343
 6291TIP3   OH240287   4.591   2.586  13.247  0.4364  0.3112  0.0474
 6291TIP3    H140288   4.512   2.557  13.294 -0.6800  0.5445 -1.6032
 6291TIP3    H240289   4.574   2.679  13.228  1.1742  0.3998 -0.1956
 6292TIP3   OH240290   0.259   4.321  11.004 -0.5687 -0.4983 -0.1145
 6292TIP3    H140291   0.239   4.239  11.050 -0.7122 -0.1996  0.3666
 6292TIP3    H240292   0.213   4.388  11.055 -1.0404 -0.2003 -0.9121
 6293TIP3   OH240293   1.913   3.163   4.923  0.4196 -0.1879 -0.5145
 6293TIP3    H140294   1.885   3.075   4.900  0.9152 -0.4824 -0.0219
 6293TIP3    H240295   1.865   3.183   5.003 -1.0076  0.6809 -1.5426
 6294TIP3   OH240296   5.635   5.140  11.471  0.2846  0.1494 -0.1087
 6294TIP3    H140297   5.624   5.203  11.542 -0.3215 -0.7383  0.6004
 6294TIP3    H240298   5.611   5.055  11.509  0.3361 -0.4052 -1.2578
 6295TIP3   OH240299   1.974   2.977  10.780  0.7485  0.2986  0.3060
 6295TIP3    H140300   1.896   2.978  10.725  1.7005  0.3054 -1.0785
 6295TIP3    H240301   2.018   2.895  10.758  0.1074 -0.7488  2.6115
 6296TIP3   OH240302   2.925   2.790  14.380  0.5466  0.4747  0.2812
 6296TIP3    H140303   2.894   2.829  14.461  0.0874  0.3828  0.1488
 6296TIP3    H240304   2.882   2.841  14.311 -0.1247 -0.3155  0.1061
 6297TIP3   OH240305   3.879   3.268  13.313  0.2122 -0.2477 -0.0727
 6297TIP3    H140306   3.916   3.287  13.227 -0.7836 -1.6664 -0.8593
 6297TIP3    H240307   3.806   3.209  13.295 -0.2468 -0.2853  1.7254
 6298TIP3   OH240308   6.458   5.464  11.744  0.2431  0.7045  0.1957
 6298TIP3    H140309   6.460   5.535  11.809 -1.4432  0.7830  0.1870
 6298TIP3    H240310   6.397   5.495  11.676  0.0243 -0.4599 -0.1597
 6299TIP3   OH240311   1.445   3.718  10.576  0.0292 -0.2400  0.0557
 6299TIP3    H140312   1.498   3.647  10.540  1.3860  0.9737 -0.4420
 6299TIP3    H240313   1.433   3.778  10.502  0.0957  0.7180  0.8038
 6300TIP3   OH240314   4.040   0.704  11.100 -0.8848 -0.2910 -0.1569
 6300TIP3    H140315   4.085   0.745  11.025  0.8975 -0.6512  0.6554
 6300TIP3    H240316   3.952   0.684  11.067 -0.7590  1.2295 -1.5700
 6301TIP3   OH240317   3.247   3.943   5.045  0.0160 -0.1988 -0.0860
 6301TIP3    H140318   3.282   3.943   4.956 -2.1292  0.5185 -1.0009
 6301TIP3    H240319   3.219   4.034   5.060 -0.2191 -0.4414  1.0722
 6302TIP3   OH240320   2.603   0.916   5.401 -0.0623  0.4230 -0.6728
 6302TIP3    H140321   2.666   0.959   5.458 -0.8173  1.6436 -0.7160
 6302TIP3    H240322   2.634   0.826   5.393 -0.3354 -0.0252  2.2831
 6303TIP3   OH240323   5.554   3.855   0.973  0.3741 -0.0626 -0.2655
 6303TIP3    H140324   5.486   3.796   0.943  0.5342 -0.5310  0.2747
 6303TIP3    H240325   5.636   3.814   0.945  0.6341 -1.3548  2.1368
 6304TIP3   OH240326   4.172   4.183   4.277  0.2251  0.9630  0.0510
 6304TIP3    H140327   4.248   4.215   4.228  0.8339 -1.3306 -0.6357
 6304TIP3    H240328   4.209   4.123   4.342 -1.0016 -0.3238 -0.4020
 6305TIP3   OH240329   0.915   2.310   5.754  0.3183 -0.4176  0.3215
 6305TIP3    H140330   0.839   2.369   5.750  1.0378  0.4885 -0.7792
 6305TIP3    H240331   0.884   2.235   5.804 -1.2691 -0.0091  0.0371
 6306TIP3   OH240332   4.612   2.496   0.485 -0.4766 -0.9093  0.6983
 6306TIP3    H140333   4.672   2.441   0.434  2.9506  0.6873  2.6644
 6306TIP3    H240334   4.625   2.584   0.451 -2.8551 -0.6574  0.2793
 6307TIP3   OH240335   6.060   1.425  13.601  0.2912 -0.3111 -0.5013
 6307TIP3    H140336   6.033   1.468  13.521  0.1155 -0.1142 -0.3368
 6307TIP3    H240337   6.037   1.333  13.587 -1.7330  0.0380  0.1476
 6308TIP3   OH240338   4.616   3.995   0.658  0.3581 -0.0638 -0.1215
 6308TIP3    H140339   4.550   3.970   0.723  2.1594 -1.6556  1.1963
 6308TIP3    H240340   4.644   3.913   0.619  0.2543  0.7635 -2.0663
 6309TIP3   OH240341   6.660   5.457   0.805 -0.2111 -0.5421 -0.3454
 6309TIP3    H140342   6.724   5.517   0.768 -0.5286 -1.1923 -2.0433
 6309TIP3    H240343   6.711   5.380   0.831 -0.1749 -0.7518 -1.0014
 6310TIP3   OH240344   4.471   5.056   4.399  0.2092  0.2107 -0.3525
 6310TIP3    H140345   4.468   5.008   4.482  1.3530  0.1811 -0.3131
 6310TIP3    H240346   4.379   5.071   4.377 -0.1391  1.0183  1.3948
 6311TIP3   OH240347   4.440   3.381   5.507 -0.0271 -0.1082  0.1210
 6311TIP3    H140348   4.457   3.346   5.420 -0.6747  1.8128 -0.8187
 6311TIP3    H240349   4.347   3.366   5.521 -0.2386  0.8841 -0.1507
 6312TIP3   OH240350   3.256   1.018   4.394 -0.4288  0.0619 -0.7258
 6312TIP3    H140351   3.221   1.043   4.308  0.7522  2.1568 -0.6914
 6312TIP3    H240352   3.219   1.082   4.454 -2.5262 -2.3434  0.7104
 6313TIP3   OH240353   0.465   5.514  16.672 -0.3490 -0.0458  0.2285
 6313TIP3    H140354   0.385   5.497  16.722  0.2142  0.1883  1.2305
 6313TIP3    H240355   0.520   5.438  16.687 -0.8145 -0.7491 -1.4049
 6314TIP3   OH240356   0.162   3.960   5.368  0.5010  0.5901 -0.3506
 6314TIP3    H140357   0.251   3.961   5.334  1.6265 -1.5006  2.2733
 6314TIP3    H240358   0.133   3.869   5.359 -1.2605  1.1389 -0.7634
 6315TIP3   OH240359   3.078   3.843   1.985 -0.4378 -0.0512  0.4506
 6315TIP3    H140360   3.121   3.788   2.050 -0.7752  0.7837  1.4198
 6315TIP3    H240361   3.117   3.818   1.902  2.1919  0.8592  1.3009
 6316TIP3   OH240362   3.879   2.814  15.336 -0.7115 -0.1772 -0.7121
 6316TIP3    H140363   3.894   2.740  15.395 -3.2848 -1.3122 -1.3779
 6316TIP3    H240364   3.925   2.887  15.378  2.0615 -2.1136 -0.1313
 6317TIP3   OH240365   5.016   4.650   3.044  0.3567 -0.4543 -0.2494
 6317TIP3    H140366   4.973   4.719   2.992  0.3047  0.3665  0.8375
 6317TIP3    H240367   4.947   4.585   3.058 -0.5891  0.8102  1.4045
 6318TIP3   OH240368   4.476   5.555   3.534 -0.2112 -0.0078 -0.4555
 6318TIP3    H140369   4.481   5.580   3.442  0.2816 -0.9221 -0.6844
 6318TIP3    H240370   4.397   5.501   3.540  0.0883 -0.4550 -0.4746
 6319TIP3   OH240371   0.375   2.094   1.560  0.6759  0.5411  0.3531
 6319TIP3    H140372   0.355   2.033   1.631  0.4716 -0.2778 -0.3965
 6319TIP3    H240373   0.304   2.083   1.497  0.7146  1.4524  0.1262
 6320TIP3   OH240374   2.896   3.114  12.887  0.5961 -0.4394  0.5368
 6320TIP3    H140375   2.921   3.024  12.910  2.0257  0.3719  2.4268
 6320TIP3    H240376   2.806   3.123  12.920  0.5929 -1.0342  0.7061
 6321TIP3   OH240377   5.769   3.408  14.961  0.5011 -0.3532  0.0719
 6321TIP3    H140378   5.675   3.406  14.983  0.6298  1.8779  1.1516
 6321TIP3    H240379   5.805   3.331  15.005 -0.8308 -1.4744 -0.6714
 6322TIP3   OH240380   3.103   4.086  13.960 -0.0817 -0.1034 -0.3919
 6322TIP3    H140381   3.121   4.160  14.018 -0.5343  0.3801 -0.8607
 6322TIP3    H240382   3.044   4.030  14.010 -1.6354  1.0176 -0.8895
 6323TIP3   OH240383   1.005   3.979   0.557  0.2304  0.2280 -0.2146
 6323TIP3    H140384   0.920   3.936   0.550  0.0310  0.3956  1.0117
 6323TIP3    H240385   1.041   3.975   0.468 -1.1718  0.4263 -0.8211
 6324TIP3   OH240386   5.968   3.711  14.070 -0.0135 -0.5190 -0.0575
 6324TIP3    H140387   6.001   3.698  13.981 -0.6919 -1.2950 -0.2096
 6324TIP3    H240388   5.887   3.761  14.058  2.1032  3.5026  0.4554
 6325TIP3   OH240389   4.549   0.123   2.060 -0.1227  0.5393 -0.6144
 6325TIP3    H140390   4.608   0.095   1.990  0.0966  0.6904 -0.4922
 6325TIP3    H240391   4.605   0.175   2.118  0.3777 -1.8025  1.1432
 6326TIP3   OH240392   6.280   6.343  16.911 -0.2009 -0.4553 -0.3736
 6326TIP3    H140393   6.285   6.270  16.973  0.9119 -0.3484 -0.2996
 6326TIP3    H240394   6.261   6.303  16.827 -2.5916 -0.5275  0.1334
 6327TIP3   OH240395   5.827   3.756  11.207 -0.4027  0.1154  0.0617
 6327TIP3    H140396   5.765   3.755  11.280 -1.9684 -1.4707 -1.2295
 6327TIP3    H240397   5.798   3.828  11.152  1.2486  1.8284  1.2887
 6328TIP3   OH240398   6.809   5.032   3.618 -0.0921 -0.0077 -0.3583
 6328TIP3    H140399   6.781   5.009   3.707 -0.9770  0.2564 -0.5626
 6328TIP3    H240400   6.854   5.116   3.628  1.7517 -0.9853  0.1474
 6329TIP3   OH240401   2.441   5.602  11.375  0.2832 -0.9285  0.2421
 6329TIP3    H140402   2.519   5.633  11.421  0.5597  1.2071 -1.4817
 6329TIP3    H240403   2.374   5.667  11.396  0.3997  0.0776 -2.1993
 6330TIP3   OH240404   5.888   6.000   5.821 -0.2969  0.2453 -0.4433
 6330TIP3    H140405   5.945   6.002   5.897 -1.7941 -1.7024  0.8371
 6330TIP3    H240406   5.922   6.068   5.763  1.6778  0.9072  1.3797
 6331TIP3   OH240407   1.189   2.973   5.519  0.3179  0.5099 -0.8156
 6331TIP3    H140408   1.180   2.892   5.569 -0.1329  0.2011 -1.3778
 6331TIP3    H240409   1.234   3.033   5.578  0.4283 -0.0696 -0.3007
 6332TIP3   OH240410   0.583   0.229  16.948  0.7485  0.1330 -0.1347
 6332TIP3    H140411   0.619   0.141  16.943 -0.1675 -0.1982 -3.0230
 6332TIP3    H240412   0.653   0.281  16.987  2.8464 -1.2147 -1.8284
 6333TIP3   OH240413   1.454   3.173   3.903  0.3595 -0.7726  0.0357
 6333TIP3    H140414   1.460   3.226   3.824  0.1298 -0.1517  0.4237
 6333TIP3    H240415   1.490   3.229   3.972 -2.6746  0.1302  1.0344
 6334TIP3   OH240416   2.504   3.295   2.280  0.0359 -0.9234 -0.0170
 6334TIP3    H140417   2.540   3.207   2.267  1.4385 -0.3965  0.1071
 6334TIP3    H240418   2.430   3.299   2.220 -0.0254 -2.1697 -0.0645
 6335TIP3   OH240419   5.840   5.703   3.217 -0.2344  0.2740 -0.6295
 6335TIP3    H140420   5.904   5.752   3.268 -0.7698  1.1067 -0.7453
 6335TIP3    H240421   5.859   5.611   3.237  1.6451  0.4480 -1.4660
 6336TIP3   OH240422   1.190   6.305   2.430 -0.5336  0.3243  0.6652
 6336TIP3    H140423   1.183   6.294   2.525 -0.2607  1.4572  0.8338
 6336TIP3    H240424   1.284   6.311   2.412 -0.5620 -0.4035  0.2555
 6337TIP3   OH240425   6.467   1.494   4.813 -0.4787  1.0337 -0.6049
 6337TIP3    H140426   6.459   1.450   4.729  0.6576 -0.0339 -0.1808
 6337TIP3    H240427   6.556   1.528   4.815  0.4515 -1.2654  1.2027
 6338TIP3   OH240428   4.556   0.120  10.800  0.5432  0.0215 -0.8212
 6338TIP3    H140429   4.606   0.061  10.857 -0.8595  1.2136  1.8070
 6338TIP3    H240430   4.485   0.065  10.766 -1.2860  0.1657  2.3131
 6339TIP3   OH240431   0.716   4.180  16.496  0.5515 -0.0365 -0.3818
 6339TIP3    H140432   0.622   4.171  16.481 -0.0815  0.5104  2.6076
 6339TIP3    H240433   0.752   4.201  16.410 -2.1188  0.2196 -1.5372
 6340TIP3   OH240434   1.596   1.966   4.810 -0.1321 -0.1002  0.3571
 6340TIP3    H140435   1.566   1.877   4.825  0.4740 -0.4721 -0.5884
 6340TIP3    H240436   1.521   2.021   4.833 -0.8822 -0.9073 -0.1138
 6341TIP3   OH240437   5.635   5.759   0.500 -0.6519 -0.0640  0.7115
 6341TIP3    H140438   5.551   5.717   0.483 -0.6464  0.2859 -0.2386
 6341TIP3    H240439   5.612   5.837   0.551 -1.1495  1.0619 -1.1336
 6342TIP3   OH240440   6.701   0.431  14.262  0.0355  0.0355 -0.5362
 6342TIP3    H140441   6.670   0.347  14.297 -1.6711 -0.1954 -2.3762
 6342TIP3    H240442   6.654   0.440  14.179  2.7881  1.1742 -2.0847
 6343TIP3   OH240443   0.425   3.437  13.887 -0.5188 -0.3012 -0.4261
 6343TIP3    H140444   0.464   3.478  13.810 -0.8174 -0.6354 -0.7587
 6343TIP3    H240445   0.457   3.488  13.961  0.0972 -0.2311 -0.7416
 6344TIP3   OH240446   4.938   5.165  16.525 -0.1666  0.1031  0.5216
 6344TIP3    H140447   4.961   5.258  16.531  0.3076  0.2712 -2.4016
 6344TIP3    H240448   4.857   5.164  16.475  0.0745 -1.0689  0.1251
 6345TIP3   OH240449   0.832   1.425  10.852 -0.1619 -0.1237  0.0091
 6345TIP3    H140450   0.890   1.356  10.885 -1.7555 -1.2427  0.5628
 6345TIP3    H240451   0.861   1.438  10.761  0.1499 -1.5551 -0.1276
 6346TIP3   OH240452   6.351   2.510  15.294 -0.1730 -0.4689 -0.1377
 6346TIP3    H140453   6.304   2.593  15.297 -0.3396 -0.5641  1.9811
 6346TIP3    H240454   6.369   2.495  15.202 -0.5774  1.6658 -0.6079
 6347TIP3   OH240455   0.444   0.423   1.109 -0.6158  0.0479  0.8915
 6347TIP3    H140456   0.539   0.435   1.099 -0.3686 -1.7508  0.6692
 6347TIP3    H240457   0.433   0.396   1.200 -1.1561  1.9846  1.4413
 6348TIP3   OH240458   1.244   6.673   2.109  0.7790  0.3783  0.0328
 6348TIP3    H140459   1.273   6.764   2.108  2.7212 -0.1809  0.7671
 6348TIP3    H240460   1.241   6.650   2.202 -2.6118  0.5000  0.0632
 6349TIP3   OH240461   5.120   4.590  10.677  0.4018  0.1890  0.3462
 6349TIP3    H140462   5.207   4.623  10.654 -0.2190  1.2848 -0.5364
 6349TIP3    H240463   5.107   4.618  10.768  1.8371 -1.9352  1.2812
 6350TIP3   OH240464   1.512   1.358  16.175  0.1013  0.6022 -0.4037
 6350TIP3    H140465   1.437   1.383  16.120 -0.1489  1.0484  0.1313
 6350TIP3    H240466   1.544   1.441  16.210 -1.1728  0.1578  1.9862
 6351TIP3   OH240467   1.344   4.361  14.403 -0.0595 -0.4967  0.5626
 6351TIP3    H140468   1.382   4.313  14.477 -1.1736 -0.3053  1.2711
 6351TIP3    H240469   1.384   4.448  14.408  1.9119 -1.2615 -0.6798
 6352TIP3   OH240470   1.554   5.810  16.319  0.3951  0.2524 -0.1383
 6352TIP3    H140471   1.598   5.730  16.348 -0.4031 -0.1018  0.1338
 6352TIP3    H240472   1.606   5.881  16.357 -0.0919 -0.1863  1.4358
 6353TIP3   OH240473   0.494   0.134  16.489 -0.3505 -0.2403 -0.1535
 6353TIP3    H140474   0.455   0.217  16.463 -1.2229 -0.7286 -0.4124
 6353TIP3    H240475   0.565   0.159  16.549 -1.7023  0.6262  1.1709
 6354TIP3   OH240476   4.365   1.548   0.404  0.4358 -0.3452 -0.0193
 6354TIP3    H140477   4.418   1.512   0.476  2.4776  1.2873 -0.6253
 6354TIP3    H240478   4.399   1.505   0.326 -0.4273 -0.6435 -0.2401
 6355TIP3   OH240479   6.120   2.798  11.433 -0.2890 -0.3025  0.2224
 6355TIP3    H140480   6.173   2.876  11.450  0.1379 -0.4474 -0.4177
 6355TIP3    H240481   6.037   2.832  11.399  0.6191 -0.1613 -2.0025
 6356TIP3   OH240482   1.157   0.322   2.540 -0.1776 -0.8415 -0.4707
 6356TIP3    H140483   1.093   0.344   2.472  1.6565  0.0624 -1.9790
 6356TIP3    H240484   1.213   0.256   2.501  0.3667 -0.9894  0.5151
 6357TIP3   OH240485   5.886   6.324  13.751  0.1850  0.6312 -0.0885
 6357TIP3    H140486   5.822   6.367  13.808  0.9198 -1.0233  2.1719
 6357TIP3    H240487   5.843   6.243  13.724  0.9582 -0.0917  0.7647
 6358TIP3   OH240488   1.915   4.475   4.970 -0.1119 -0.2893 -0.6041
 6358TIP3    H140489   1.944   4.519   5.050  0.9229 -2.2483  0.1685
 6358TIP3    H240490   1.855   4.537   4.929  1.4029  1.9180  0.2892
 6359TIP3   OH240491   5.765   4.951  12.339  0.3320  0.1194  0.5186
 6359TIP3    H140492   5.714   4.930  12.260  0.2432  2.3338 -0.0700
 6359TIP3    H240493   5.718   4.907  12.410  1.0853 -2.9656 -0.7199
 6360TIP3   OH240494   6.172   2.051  13.053 -0.3234  0.4478 -0.5543
 6360TIP3    H140495   6.192   1.994  12.980  1.5947  0.1679  0.1224
 6360TIP3    H240496   6.172   1.994  13.130  1.0914  1.2189  0.0635
 6361TIP3   OH240497   4.890   2.210  13.618 -0.7717 -0.4243 -0.0144
 6361TIP3    H140498   4.862   2.119  13.610  0.4559 -0.6735 -2.4019
 6361TIP3    H240499   4.823   2.251  13.672 -1.7561 -2.5626  0.5048
 6362TIP3   OH240500   3.540   6.178  10.968  0.2254  0.4626 -0.1001
 6362TIP3    H140501   3.580   6.265  10.962  0.9193  0.0918 -1.1482
 6362TIP3    H240502   3.510   6.160  10.879  0.4825 -0.5562  0.0063
 6363TIP3   OH240503   4.035   2.329   0.734 -0.0118 -0.0956 -0.1674
 6363TIP3    H140504   3.983   2.353   0.811  0.8481  1.0661  0.0730
 6363TIP3    H240505   4.121   2.308   0.769  0.4072  0.5114 -0.8048
 6364TIP3   OH240506   6.058   1.796   3.502 -0.3667 -0.0074 -0.3007
 6364TIP3    H140507   6.024   1.784   3.591  0.0535  0.0836 -0.1261
 6364TIP3    H240508   6.069   1.708   3.468  1.1667 -0.1181  0.3876
 6365TIP3   OH240509   3.874   4.840   1.287 -0.0254  0.4003  0.0769
 6365TIP3    H140510   3.871   4.921   1.235  2.0616  0.7477  0.3833
 6365TIP3    H240511   3.928   4.781   1.235 -0.6104 -0.4194  0.3865
 6366TIP3   OH240512   2.927   5.896   6.115  0.3137 -0.3348  0.4046
 6366TIP3    H140513   2.861   5.886   6.184 -0.7342  2.4015 -0.0785
 6366TIP3    H240514   2.962   5.984   6.129 -0.2958  0.5265 -2.8141
 6367TIP3   OH240515   4.181   5.023   4.428 -0.7351  0.6497  0.5962
 6367TIP3    H140516   4.165   4.945   4.482  1.8634 -0.2924  0.1603
 6367TIP3    H240517   4.101   5.033   4.375 -1.8589 -0.5774  1.9828
 6368TIP3   OH240518   4.927   4.332  10.946  0.5637 -0.0510  0.4917
 6368TIP3    H140519   4.872   4.410  10.933  0.6237  0.3314  2.2748
 6368TIP3    H240520   4.870   4.259  10.923  0.7277  0.5015 -1.9009
 6369TIP3   OH240521   6.152   3.098  13.982 -1.2173 -0.3126  0.2049
 6369TIP3    H140522   6.089   3.036  14.019 -2.8572  1.5890  0.7628
 6369TIP3    H240523   6.100   3.177  13.965  0.2142  0.1074 -2.8974
 6370TIP3   OH240524   0.272   2.112   2.582 -0.3944 -0.0643 -0.6073
 6370TIP3    H140525   0.192   2.164   2.590 -0.4245 -0.4083  2.4789
 6370TIP3    H240526   0.244   2.030   2.540 -0.6153  1.6415 -4.1296
 6371TIP3   OH240527   4.334   2.199   2.351  0.6339 -0.1391  0.4198
 6371TIP3    H140528   4.288   2.181   2.270  0.1716  1.9531  0.1741
 6371TIP3    H240529   4.273   2.173   2.420  0.4655 -0.5644  0.1150
 6372TIP3   OH240530   0.619   5.195   1.759  0.0792  0.2708  0.0347
 6372TIP3    H140531   0.673   5.230   1.830  0.4104  0.2901 -0.2223
 6372TIP3    H240532   0.681   5.149   1.703 -0.3770 -0.8579  0.4386
 6373TIP3   OH240533   0.526   4.901   2.791  0.5037 -0.3041  0.0134
 6373TIP3    H140534   0.510   4.890   2.698 -0.7490  1.5411 -0.0548
 6373TIP3    H240535   0.517   4.995   2.806  2.8366 -0.2476  1.6440
 6374TIP3   OH240536   2.319   3.408  12.780 -0.1652 -0.0674 -0.5801
 6374TIP3    H140537   2.271   3.483  12.745 -0.4261  0.5997  1.1420
 6374TIP3    H240538   2.409   3.438  12.788 -0.5187  0.5661  1.4049
 6375TIP3   OH240539   3.651   1.460   1.987  0.1968 -0.6250 -0.4241
 6375TIP3    H140540   3.727   1.506   2.024  0.6169 -1.1980 -0.5565
 6375TIP3    H240541   3.623   1.401   2.056 -0.7834  0.3162  0.0075
 6376TIP3   OH240542   5.190   4.011  14.174 -0.0155 -0.2096 -0.1617
 6376TIP3    H140543   5.199   3.924  14.215 -2.0569  0.6066  2.3152
 6376TIP3    H240544   5.195   4.072  14.248  0.8035  1.7837 -1.7799
 6377TIP3   OH240545   5.493   3.984   3.362  0.5702 -0.4406 -0.0849
 6377TIP3    H140546   5.470   4.064   3.315  0.9698 -0.2824 -0.0141
 6377TIP3    H240547   5.426   3.921   3.335 -0.9449  0.4669  1.3955
 6378TIP3   OH240548   0.613   6.404   3.909 -0.1478 -0.0540  0.1466
 6378TIP3    H140549   0.658   6.489   3.914 -0.3821  0.0625  0.2580
 6378TIP3    H240550   0.521   6.426   3.892 -0.3255 -0.2638  0.8205
 6379TIP3   OH240551   3.157   6.297  11.886  0.3924  0.3338 -0.1935
 6379TIP3    H140552   3.145   6.351  11.964  0.3904  0.9054 -0.5857
 6379TIP3    H240553   3.251   6.299  11.869  0.1297  2.3707 -1.7072
 6380TIP3   OH240554   0.989   4.810  15.470 -0.4928  0.2412  0.1782
 6380TIP3    H140555   1.045   4.887  15.456 -0.5409  0.1705 -0.3878
 6380TIP3    H240556   0.924   4.840  15.534 -0.4557  0.6418  0.0329
 6381TIP3   OH240557   4.521   2.385   3.430  0.3059  0.0337 -0.0012
 6381TIP3    H140558   4.452   2.371   3.495 -1.2892  2.7112 -0.9778
 6381TIP3    H240559   4.598   2.407   3.482 -0.7720  1.5013  1.0609
 6382TIP3   OH240560   1.389   2.997   5.112 -0.0771 -0.4769  0.1540
 6382TIP3    H140561   1.462   2.948   5.074 -0.2769 -0.6324 -0.0266
 6382TIP3    H240562   1.429   3.045   5.185  0.1259 -0.8833  0.3140
 6383TIP3   OH240563   6.271   5.546  13.172 -0.2024  0.7180  0.0313
 6383TIP3    H140564   6.334   5.506  13.112  0.1782  0.1971  0.7548
 6383TIP3    H240565   6.186   5.536  13.129 -0.2854 -1.8899  0.6446
 6384TIP3   OH240566   4.450   4.661  14.369  0.2944  0.1345 -0.3334
 6384TIP3    H140567   4.446   4.572  14.402 -1.1867  0.3113  0.0463
 6384TIP3    H240568   4.539   4.671  14.336  0.3359 -1.6220 -0.8133
 6385TIP3   OH240569   2.927   1.261  13.436 -0.0284  0.3649  0.7425
 6385TIP3    H140570   2.834   1.271  13.455 -0.8156  0.2341 -2.4576
 6385TIP3    H240571   2.971   1.316  13.501 -2.4042  1.5181  1.4890
 6386TIP3   OH240572   4.938   4.483   4.972  0.2625 -0.2919 -0.6817
 6386TIP3    H140573   5.026   4.447   4.964  0.0009 -0.9161 -0.8146
 6386TIP3    H240574   4.886   4.433   4.909 -0.6069 -1.3428  0.8010
 6387TIP3   OH240575   2.686   2.892  15.049  0.8388 -0.3740 -0.1533
 6387TIP3    H140576   2.762   2.944  15.075  0.3387 -0.7189  2.1949
 6387TIP3    H240577   2.611   2.952  15.059  0.4348 -1.0544  1.0561
 6388TIP3   OH240578   0.962   5.690  14.883 -0.5018 -0.0624  0.3668
 6388TIP3    H140579   0.916   5.768  14.851 -3.0810 -2.4319 -2.3592
 6388TIP3    H240580   0.921   5.671  14.967 -0.2866  1.1347  0.7577
 6389TIP3   OH240581   5.606   3.917  16.012 -0.4731  0.1062  0.0922
 6389TIP3    H140582   5.565   3.843  15.967 -0.9772  1.1764 -1.2464
 6389TIP3    H240583   5.700   3.905  15.996 -0.5804 -0.0173 -0.4774
 6390TIP3   OH240584   0.603   3.349  14.788  0.4677 -0.1566  0.2263
 6390TIP3    H140585   0.551   3.389  14.858 -0.5255 -0.1492 -0.5061
 6390TIP3    H240586   0.630   3.423  14.734  3.9223  0.2906  2.2401
 6391TIP3   OH240587   2.123   4.894   1.560 -0.1073  0.4936 -0.9171
 6391TIP3    H140588   2.087   4.953   1.493  0.1442  1.4358 -0.2561
 6391TIP3    H240589   2.211   4.928   1.577 -0.7322  1.2972  1.0220
 6392TIP3   OH240590   1.041   6.482  11.217 -0.0622 -0.5869 -0.5386
 6392TIP3    H140591   1.092   6.550  11.174  0.7319 -0.4543  0.5776
 6392TIP3    H240592   0.959   6.525  11.243 -0.9915 -0.9091 -2.7134
 6393TIP3   OH240593   6.011   0.046  13.790 -0.3300  0.4087 -0.4603
 6393TIP3    H140594   5.964   0.115  13.743  1.2037  1.5654 -0.3752
 6393TIP3    H240595   6.097   0.043  13.748  0.1094 -0.5018  0.4551
 6394TIP3   OH240596   0.844   2.091   5.905  0.1804  0.5253  0.5569
 6394TIP3    H140597   0.845   2.007   5.859 -1.1306  0.2138  1.0653
 6394TIP3    H240598   0.841   2.068   5.998  0.0183  1.1302  0.7046
 6395TIP3   OH240599   1.042   2.014  15.489  0.8926 -0.3282 -0.3348
 6395TIP3    H140600   1.020   1.931  15.529  0.5798 -0.2622 -0.3691
 6395TIP3    H240601   1.061   2.072  15.563  0.3765 -0.2233 -0.2803
 6396TIP3   OH240602   0.177   3.137   2.238  0.2700 -0.1194  0.2924
 6396TIP3    H140603   0.188   3.167   2.148 -0.0395  0.3959  0.4250
 6396TIP3    H240604   0.085   3.114   2.245  0.1051  0.6398  0.7159
 6397TIP3   OH240605   4.666   2.585   1.915  0.2484  0.4615 -0.6032
 6397TIP3    H140606   4.732   2.522   1.888 -1.0394 -2.7174  2.8020
 6397TIP3    H240607   4.707   2.671   1.903  4.0494 -1.2192 -0.8525
 6398TIP3   OH240608   4.654   2.144   1.154 -0.0216 -0.4244  0.1305
 6398TIP3    H140609   4.571   2.142   1.203 -0.2974 -0.9816 -0.3515
 6398TIP3    H240610   4.714   2.094   1.208 -0.3348 -1.0638 -0.1085
 6399TIP3   OH240611   4.345   2.839   5.522 -0.3911  0.2684 -0.4786
 6399TIP3    H140612   4.276   2.793   5.473 -0.5980  0.0411  0.0213
 6399TIP3    H240613   4.409   2.864   5.455 -0.4835 -0.3753 -0.8096
 6400TIP3   OH240614   2.756   4.722  14.908  0.2506  0.4307  0.1363
 6400TIP3    H140615   2.819   4.787  14.877 -1.4118  1.9941 -0.1223
 6400TIP3    H240616   2.775   4.644  14.856  1.5832  1.0247 -0.3232
 6401TIP3   OH240617   2.673   1.913  14.838 -0.7470 -0.4628  0.1142
 6401TIP3    H140618   2.692   1.969  14.763  2.6181 -1.0336  0.3507
 6401TIP3    H240619   2.688   1.824  14.806  1.9419 -0.6666  1.5620
 6402TIP3   OH240620   4.549   4.820  11.021  0.4562  0.0306 -0.2363
 6402TIP3    H140621   4.621   4.883  11.010 -0.1639  0.7331 -0.3915
 6402TIP3    H240622   4.545   4.805  11.115 -0.1893  1.2164 -0.0480
 6403TIP3   OH240623   3.189   2.607  15.366 -0.4411 -0.3348  0.3743
 6403TIP3    H140624   3.175   2.702  15.370 -0.3484 -0.1834 -1.9161
 6403TIP3    H240625   3.139   2.573  15.440 -2.3474  1.2929 -0.0827
 6404TIP3   OH240626   6.299   0.565   5.756 -0.4790  0.0638  0.0204
 6404TIP3    H140627   6.347   0.645   5.776 -0.9996  0.2436  0.5957
 6404TIP3    H240628   6.366   0.497   5.748  0.0529  0.7302 -1.4539
 6405TIP3   OH240629   4.738   5.009   0.474  0.0004  0.3519  0.1084
 6405TIP3    H140630   4.721   4.977   0.563  1.2663  1.0826  0.6423
 6405TIP3    H240631   4.704   4.940   0.417 -3.0305  0.9139  1.0388
 6406TIP3   OH240632   0.919   0.779  12.403  0.8482  0.3276 -0.1630
 6406TIP3    H140633   0.981   0.791  12.331  2.7856 -0.3128  1.2983
 6406TIP3    H240634   0.950   0.839  12.471  0.9239 -1.2420  1.2425
 6407TIP3   OH240635   6.371   2.225   3.409  0.2355  0.4036  0.1078
 6407TIP3    H140636   6.347   2.286   3.479  0.3083  1.5765 -0.8513
 6407TIP3    H240637   6.345   2.139   3.441 -1.6549  1.1582  0.7115
 6408TIP3   OH240638   5.763   4.729  10.520 -0.2652 -0.0955 -0.3841
 6408TIP3    H140639   5.815   4.777  10.583  0.1682 -1.3928  0.2819
 6408TIP3    H240640   5.672   4.748  10.544 -0.1297  1.4206 -0.9674
 6409TIP3   OH240641   0.577   3.026   4.510 -0.4195  0.0837 -0.1871
 6409TIP3    H140642   0.640   3.097   4.523 -0.8138  0.4144 -0.0731
 6409TIP3    H240643   0.608   2.956   4.567 -0.4709  0.4542  0.3038
 6410TIP3   OH240644   1.803   2.914   3.386 -0.1516 -0.0056  0.2702
 6410TIP3    H140645   1.793   2.976   3.459  3.1123 -0.8526  1.5853
 6410TIP3    H240646   1.800   2.970   3.308 -0.7333  1.3451  1.2077
 6411TIP3   OH240647   3.102   0.759   3.080  0.3327 -0.9585  0.6397
 6411TIP3    H140648   3.075   0.808   3.157  0.3449 -1.6466  1.0852
 6411TIP3    H240649   3.123   0.827   3.015  1.1910 -0.3358  1.5244
 6412TIP3   OH240650   1.052   4.128   4.221 -0.1407 -0.2475  0.6063
 6412TIP3    H140651   1.091   4.110   4.136  0.6564  0.0787  0.8944
 6412TIP3    H240652   1.005   4.048   4.243  2.4063 -1.6650  1.3452
 6413TIP3   OH240653   6.371   1.805  14.125 -0.8378  0.6273  0.5854
 6413TIP3    H140654   6.311   1.783  14.196 -0.8630 -0.3698  0.2670
 6413TIP3    H240655   6.333   1.764  14.047  0.2517 -0.0565  0.3866
 6414TIP3   OH240656   1.158   4.129  11.149  0.0814 -0.1796  0.2598
 6414TIP3    H140657   1.244   4.150  11.186  0.3113 -1.0243  0.2136
 6414TIP3    H240658   1.131   4.209  11.104  2.0193 -0.6857 -1.9822
 6415TIP3   OH240659   4.310   4.990  14.933 -0.4905 -0.2252  0.1223
 6415TIP3    H140660   4.322   5.076  14.893 -1.0590  0.4980  1.4660
 6415TIP3    H240661   4.397   4.965  14.963 -0.3734 -0.0100 -0.0398
 6416TIP3   OH240662   4.760   0.677  15.686  0.2986  0.8876 -0.0282
 6416TIP3    H140663   4.773   0.713  15.599 -1.2106 -0.5112 -0.8843
 6416TIP3    H240664   4.742   0.753  15.741  0.0654  1.6953 -1.1874
 6417TIP3   OH240665   5.291   5.329  14.188 -0.4150  0.5761  0.0338
 6417TIP3    H140666   5.216   5.324  14.127 -0.1288  1.0311 -0.3666
 6417TIP3    H240667   5.281   5.415  14.230  0.0933  0.8105 -0.3105
 6418TIP3   OH240668   5.011   4.307  13.331  0.7254  0.6393 -0.4977
 6418TIP3    H140669   5.065   4.386  13.328 -1.6075  2.4139  0.6986
 6418TIP3    H240670   5.054   4.252  13.396  2.2714  0.9931 -1.1706
 6419TIP3   OH240671   4.841   1.968  16.467 -0.9163  0.3251 -0.2597
 6419TIP3    H140672   4.890   1.900  16.513 -0.3203  1.8110  1.4254
 6419TIP3    H240673   4.907   2.021  16.423 -1.3553  0.0297 -1.3240
 6420TIP3   OH240674   1.283   0.154   4.212 -0.0305 -0.2878 -0.9397
 6420TIP3    H140675   1.325   0.234   4.180 -0.9932 -0.1807 -2.0036
 6420TIP3    H240676   1.275   0.168   4.306 -0.3478  0.9629 -1.1247
 6421TIP3   OH240677   3.277   3.847  15.388  0.0908 -0.1439  0.2374
 6421TIP3    H140678   3.314   3.861  15.300  0.5233 -1.4225  0.1928
 6421TIP3    H240679   3.314   3.918  15.441  0.1553  0.3983 -0.5098
 6422TIP3   OH240680   5.117   0.723  15.171  0.0502 -0.0648  0.1005
 6422TIP3    H140681   5.171   0.764  15.239  0.6451 -0.6154 -0.0250
 6422TIP3    H240682   5.028   0.725  15.206 -0.0038  1.6290 -0.0488
 6423TIP3   OH240683   1.351   2.494   4.791 -0.3716 -0.3698  0.9605
 6423TIP3    H140684   1.263   2.485   4.755 -1.3875 -0.1157  3.1816
 6423TIP3    H240685   1.409   2.496   4.715 -2.1334 -2.0607 -0.5223
 6424TIP3   OH240686   1.393   4.979  12.416 -0.2289 -0.6506  0.2996
 6424TIP3    H140687   1.385   5.052  12.478  1.5825 -1.2410  1.3092
 6424TIP3    H240688   1.316   4.986  12.361 -0.8695  1.1322  1.3304
 6425TIP3   OH240689   1.752   2.911  15.052 -0.2829 -0.2961  0.1391
 6425TIP3    H140690   1.770   3.004  15.043 -0.9327 -0.3546 -2.6486
 6425TIP3    H240691   1.670   2.897  15.005 -0.6456 -2.1456  1.2251
 6426TIP3   OH240692   4.624   5.305   2.517 -0.5118 -0.6067 -0.3417
 6426TIP3    H140693   4.634   5.329   2.425 -1.8484  0.3718 -0.2464
 6426TIP3    H240694   4.658   5.215   2.521  1.9145  0.1756 -1.2624
 6427TIP3   OH240695   0.065   0.178  10.962 -0.2682  0.2361 -0.2679
 6427TIP3    H140696   0.156   0.206  10.969 -0.8189  2.2906 -0.6165
 6427TIP3    H240697   0.055   0.112  11.031  1.5575 -0.3419 -0.5000
 6428TIP3   OH240698   0.321   4.255   4.665  0.4531  0.3535  0.3204
 6428TIP3    H140699   0.229   4.240   4.647  0.8768 -2.1404 -0.2059
 6428TIP3    H240700   0.366   4.181   4.624  2.7711  1.8881 -0.1074
 6429TIP3   OH240701   1.998   5.703  15.227  0.1692  0.2133  0.3232
 6429TIP3    H140702   1.974   5.610  15.236  0.0970  0.1108 -0.7865
 6429TIP3    H240703   2.050   5.721  15.305 -1.1600 -0.3092  1.3918
 6430TIP3   OH240704   2.862   2.850   4.387  0.2995 -0.0585  0.3221
 6430TIP3    H140705   2.826   2.936   4.363 -1.0358 -0.8826 -0.8475
 6430TIP3    H240706   2.952   2.867   4.412 -0.1344  1.7731  0.7545
 6431TIP3   OH240707   3.221   1.902  11.995  0.1953 -0.2432 -0.1206
 6431TIP3    H140708   3.256   1.813  11.995  0.0091 -0.3216  0.7297
 6431TIP3    H240709   3.189   1.915  12.084 -0.4968  0.3986 -0.4599
 6432TIP3   OH240710   3.611   0.046  15.982  0.0315 -0.3412 -0.2232
 6432TIP3    H140711   3.581   0.097  15.907 -1.6183 -1.6630 -0.5230
 6432TIP3    H240712   3.573   0.089  16.058  1.0864  0.5547 -0.1679
 6433TIP3   OH240713   4.228   0.862  13.389 -0.0093 -0.3642  0.6452
 6433TIP3    H140714   4.319   0.852  13.360 -0.7803 -0.4640 -2.0826
 6433TIP3    H240715   4.199   0.773  13.407 -0.4232 -0.7588 -1.6513
 6434TIP3   OH240716   5.254   3.293   2.411  0.1674  0.1019 -0.3857
 6434TIP3    H140717   5.299   3.212   2.436  0.3951  0.2559 -0.2955
 6434TIP3    H240718   5.306   3.363   2.450 -1.2029  0.1996  1.4098
 6435TIP3   OH240719   6.550   5.775   0.788  0.2910 -0.1912 -0.4674
 6435TIP3    H140720   6.608   5.776   0.712  0.4170  0.4149 -0.3722
 6435TIP3    H240721   6.607   5.755   0.862  0.5858  1.3541 -0.2338
 6436TIP3   OH240722   0.449   0.323  15.525 -0.1172  1.2514 -0.1186
 6436TIP3    H140723   0.477   0.409  15.495  1.6605  1.0207  0.7346
 6436TIP3    H240724   0.414   0.337  15.613 -2.4851  1.4715 -1.0195
 6437TIP3   OH240725   1.580   2.859   3.122 -0.5682  0.0696  0.0461
 6437TIP3    H140726   1.647   2.898   3.179 -0.1223 -1.0835  0.3363
 6437TIP3    H240727   1.501   2.912   3.139  0.0581  0.9644  0.2641
 6438TIP3   OH240728   5.304   0.373   5.584 -0.2984 -0.0278 -0.6854
 6438TIP3    H140729   5.264   0.395   5.668 -0.9021  0.1616 -1.0106
 6438TIP3    H240730   5.309   0.278   5.583 -0.2472 -0.0293 -0.4212
 6439TIP3   OH240731   3.310   6.050   1.635 -0.2029 -0.3516  0.0464
 6439TIP3    H140732   3.340   5.973   1.587 -0.8853 -0.1565 -0.7178
 6439TIP3    H240733   3.380   6.114   1.625 -0.1102 -0.4974 -0.2414
 6440TIP3   OH240734   0.662   2.328  15.399  0.2685 -0.0599  0.3973
 6440TIP3    H140735   0.672   2.399  15.336 -0.9977 -0.9397 -0.8373
 6440TIP3    H240736   0.656   2.249  15.346 -1.1614 -0.7923  1.5751
 6441TIP3   OH240737   1.660   2.514  12.662 -0.0619 -0.9603 -0.2547
 6441TIP3    H140738   1.709   2.446  12.708 -1.0306 -2.0583 -0.8080
 6441TIP3    H240739   1.578   2.472  12.638 -0.5179  0.2989 -0.9572
 6442TIP3   OH240740   1.411   5.822  14.835 -0.3093 -0.4598 -0.4190
 6442TIP3    H140741   1.369   5.873  14.904  0.3957 -0.4031 -0.0142
 6442TIP3    H240742   1.505   5.834  14.851 -0.0751 -3.0827  0.6258
 6443TIP3   OH240743   5.919   0.986   2.169  0.0947 -0.4739  0.3739
 6443TIP3    H140744   5.875   1.065   2.140  1.1261  0.3473  0.9634
 6443TIP3    H240745   5.859   0.946   2.232  1.0175  1.7939  2.8843
 6444TIP3   OH240746   1.965   3.538   1.329 -0.0284 -0.1872 -0.6241
 6444TIP3    H140747   2.060   3.531   1.318 -0.1700 -0.3406 -1.9100
 6444TIP3    H240748   1.950   3.526   1.423  1.1697 -0.7257 -0.4923
 6445TIP3   OH240749   3.679   1.367  12.684 -0.4834 -0.2752  0.9144
 6445TIP3    H140750   3.602   1.394  12.634 -0.9825 -2.2862  0.5145
 6445TIP3    H240751   3.670   1.412  12.768  0.0279  2.6455 -0.4356
 6446TIP3   OH240752   5.794   1.899  13.168 -0.1640 -0.1722 -0.1710
 6446TIP3    H140753   5.867   1.896  13.107 -0.3579 -0.1000 -0.4074
 6446TIP3    H240754   5.760   1.988  13.161 -0.2800 -0.2077 -0.0685
 6447TIP3   OH240755   6.202   0.198   1.495  0.2482 -0.1183  0.3919
 6447TIP3    H140756   6.108   0.210   1.477 -0.1655 -0.9116  1.8146
 6447TIP3    H240757   6.204   0.128   1.560  1.8698 -0.3303  0.1440
 6448TIP3   OH240758   4.483   5.200  14.180  0.1027 -0.2946 -0.2465
 6448TIP3    H140759   4.554   5.264  14.167 -0.8197  1.0457  0.9810
 6448TIP3    H240760   4.506   5.127  14.122  2.4984  0.0677  0.1205
 6449TIP3   OH240761   2.720   6.672  15.320 -0.1859 -0.1922 -0.4929
 6449TIP3    H140762   2.774   6.643  15.246 -0.5999 -0.7153 -0.5997
 6449TIP3    H240763   2.734   6.605  15.387  0.0200  0.1674 -0.1762
 6450TIP3   OH240764   4.386   1.008  12.396 -0.0302 -0.0293 -0.2671
 6450TIP3    H140765   4.340   1.025  12.314 -1.2395 -0.9895  0.1760
 6450TIP3    H240766   4.431   0.925  12.382 -2.2638 -1.5116  0.7963
 6451TIP3   OH240767   2.540   3.595  13.983 -0.3402 -0.0353  0.4756
 6451TIP3    H140768   2.597   3.664  14.017  1.6774 -1.2629 -0.2266
 6451TIP3    H240769   2.476   3.641  13.928  1.0015  1.2622 -0.0593
 6452TIP3   OH240770   1.862   0.488   5.183 -0.2121 -0.0648 -0.2369
 6452TIP3    H140771   1.771   0.478   5.210 -0.2836  1.1403  0.0056
 6452TIP3    H240772   1.857   0.531   5.097  0.1280  0.2955 -0.0790
 6453TIP3   OH240773   2.138   5.465  15.652 -0.1023 -0.3263  0.8583
 6453TIP3    H140774   2.128   5.381  15.607 -0.1043  0.0139  0.2086
 6453TIP3    H240775   2.205   5.449  15.719  1.9340 -0.1751 -1.0197
 6454TIP3   OH240776   1.747   5.347  16.799 -0.1797  0.2018  0.2474
 6454TIP3    H140777   1.745   5.253  16.781 -0.4710  0.0744  0.9237
 6454TIP3    H240778   1.841   5.368  16.806 -0.1257 -0.1263  0.5425
 6455TIP3   OH240779   0.273   6.412   6.536  0.3972  0.0024 -0.3540
 6455TIP3    H140780   0.316   6.464   6.468  0.2554  1.8513  0.9150
 6455TIP3    H240781   0.345   6.376   6.588  0.4561  0.4459 -0.1329
 6456TIP3   OH240782   0.535   0.496   2.337  0.1746  0.4473  0.1792
 6456TIP3    H140783   0.461   0.439   2.316  1.1923 -0.2075 -1.9037
 6456TIP3    H240784   0.577   0.454   2.413 -0.1555 -0.5519 -0.1748
 6457TIP3   OH240785   3.471   5.901  15.220 -0.2237  0.2778  0.0922
 6457TIP3    H140786   3.499   5.976  15.168  0.1420  0.2411  0.2376
 6457TIP3    H240787   3.539   5.890  15.286 -0.6679  0.2989  0.5577
 6458TIP3   OH240788   2.606   0.136   2.692 -0.0960 -0.2689  0.4364
 6458TIP3    H140789   2.565   0.077   2.756  0.8419 -0.3763  0.9534
 6458TIP3    H240790   2.698   0.110   2.690  0.5984  1.8569  1.5122
 6459TIP3   OH240791   1.210   6.172   2.928  0.4439 -0.0609 -0.8050
 6459TIP3    H140792   1.254   6.220   2.998 -0.9566 -1.0598  0.8491
 6459TIP3    H240793   1.185   6.240   2.865  3.5239  0.6305 -1.4470
 6460TIP3   OH240794   0.719   4.695   2.249  0.6112 -0.3102  0.3145
 6460TIP3    H140795   0.805   4.729   2.273  0.8520  1.1413 -2.2562
 6460TIP3    H240796   0.661   4.724   2.320  1.8332  0.6727  0.9504
 6461TIP3   OH240797   6.631   0.957   2.845  0.1785  0.0651 -0.2045
 6461TIP3    H140798   6.644   0.918   2.931  0.1817  1.3023  0.3786
 6461TIP3    H240799   6.538   0.980   2.842 -0.0343 -0.8254 -0.9168
 6462TIP3   OH240800   5.517   6.695   0.813  0.5345  0.0698  0.1667
 6462TIP3    H140801   5.465   6.619   0.839  0.5901 -0.6246 -1.6568
 6462TIP3    H240802   5.573   6.664   0.743 -0.1453  2.0037 -1.3350
 6463TIP3   OH240803   5.607   5.409   0.852  0.1026  0.6029 -0.2980
 6463TIP3    H140804   5.583   5.436   0.763  1.4676  3.4574  0.0887
 6463TIP3    H240805   5.703   5.407   0.851  0.1612  1.2947  1.2319
 6464TIP3   OH240806   1.029   2.262  10.197  0.2733  0.3788  1.0593
 6464TIP3    H140807   0.935   2.248  10.190  0.5317 -1.3633  0.5728
 6464TIP3    H240808   1.064   2.235  10.112  1.4989 -2.0016  2.2332
 6465TIP3   OH240809   3.518   4.246   4.881 -0.0205  0.2624  0.4078
 6465TIP3    H140810   3.441   4.298   4.857  0.2983  0.5067 -0.1131
 6465TIP3    H240811   3.587   4.311   4.894  0.4884 -0.0368 -0.6586
 6466TIP3   OH240812   2.130   4.814  11.746 -0.0427  0.1690 -0.4567
 6466TIP3    H140813   2.178   4.735  11.720 -0.9597 -0.2159 -1.0626
 6466TIP3    H240814   2.184   4.854  11.814  0.1768 -1.2979  0.2811
 6467TIP3   OH240815   6.486   0.299   4.222 -0.4296  0.1171  0.2897
 6467TIP3    H140816   6.457   0.368   4.162 -2.2989  0.1648  1.1566
 6467TIP3    H240817   6.576   0.322   4.245 -0.7490  1.8393 -0.0446
 6468TIP3   OH240818   6.161   4.822   1.451 -0.5079 -0.8335  0.0312
 6468TIP3    H140819   6.086   4.834   1.510 -0.2671  1.2958 -0.0045
 6468TIP3    H240820   6.229   4.878   1.489  1.1417 -2.7872  0.1180
 6469TIP3   OH240821   6.383   2.035  16.240  0.0157  0.3121  0.0459
 6469TIP3    H140822   6.453   1.990  16.194  1.5481 -0.8353  3.1874
 6469TIP3    H240823   6.305   1.982  16.224  0.4033  0.1255 -1.3651
 6470TIP3   OH240824   0.998   4.213   0.004  0.4832 -0.5687  0.2507
 6470TIP3    H140825   1.088   4.230  -0.021  0.8498 -2.1297  0.3608
 6470TIP3    H240826   1.005   4.161   0.085 -0.4624 -1.4141 -0.1771
 6471TIP3   OH240827   1.856   5.554  10.768  0.1299  0.0768  0.0305
 6471TIP3    H140828   1.786   5.612  10.798 -0.1186 -0.4084  0.4026
 6471TIP3    H240829   1.819   5.466  10.776 -0.0250 -0.0794 -1.8670
 6472TIP3   OH240830   5.235   0.599  14.476  0.9094  0.7404  0.2618
 6472TIP3    H140831   5.253   0.678  14.425  0.4704  3.0820  3.4613
 6472TIP3    H240832   5.315   0.583  14.524  1.1559 -1.1516 -0.6832
 6473TIP3   OH240833   4.706   0.377  16.342 -0.1459  0.5928 -0.5333
 6473TIP3    H140834   4.737   0.453  16.293  1.0967  1.8017  1.9033
 6473TIP3    H240835   4.724   0.400  16.434 -2.5641 -1.3774  0.5356
 6474TIP3   OH240836   0.307   2.151  11.788 -0.6857  0.1258 -0.3667
 6474TIP3    H140837   0.352   2.099  11.855 -1.1815  2.6619  2.1843
 6474TIP3    H240838   0.221   2.110  11.778 -0.4234 -0.5769  0.2430
 6475TIP3   OH240839   4.848   4.830   4.758 -0.3759  0.3906 -0.1196
 6475TIP3    H140840   4.764   4.826   4.805 -0.3934 -2.0899 -0.2185
 6475TIP3    H240841   4.912   4.852   4.825 -0.7870 -0.2662  0.5114
 6476TIP3   OH240842   6.551   2.760  13.423 -0.1631 -0.0934  0.0508
 6476TIP3    H140843   6.547   2.728  13.333 -0.0633 -0.3165  0.1265
 6476TIP3    H240844   6.641   2.743  13.452  0.4915  2.0083 -0.5548
 6477TIP3   OH240845   0.714   5.427   4.500  0.0001  0.5100 -0.0581
 6477TIP3    H140846   0.809   5.427   4.511 -0.0488  0.2485  0.3668
 6477TIP3    H240847   0.689   5.335   4.507 -0.0412  0.2857 -2.3445
 6478TIP3   OH240848   1.520   6.355  12.039 -0.0021  0.3651  0.2875
 6478TIP3    H140849   1.566   6.272  12.024 -0.8164 -0.0545  0.0792
 6478TIP3    H240850   1.468   6.368  11.960 -0.1895  0.8702  0.4913
 6479TIP3   OH240851   6.316   3.308  12.229 -0.2595  0.0126  0.8430
 6479TIP3    H140852   6.261   3.386  12.224 -0.0218  0.3371  2.4802
 6479TIP3    H240853   6.396   3.333  12.184 -0.9131  0.0175 -0.3488
 6480TIP3   OH240854   4.947   5.215  13.782 -0.0335  0.1034 -0.2268
 6480TIP3    H140855   4.866   5.209  13.731 -0.2755 -3.4088  0.3000
 6480TIP3    H240856   5.017   5.220  13.717 -0.5602  1.5808 -0.7165
 6481TIP3   OH240857   0.044   0.341  15.654  0.1831 -0.1562 -0.3093
 6481TIP3    H140858   0.051   0.433  15.680 -0.3366 -0.3559  0.5758
 6481TIP3    H240859  -0.037   0.310  15.694  1.7021 -1.7384  1.7922
 6482TIP3   OH240860   4.175   1.839   2.513  0.5535 -0.0769  0.1885
 6482TIP3    H140861   4.101   1.791   2.549  1.1675 -2.6088 -1.5883
 6482TIP3    H240862   4.252   1.791   2.543  1.1784 -0.5967 -2.0105
 6483TIP3   OH240863   6.741   5.424   2.403 -0.2806  0.2711 -0.3664
 6483TIP3    H140864   6.735   5.345   2.349  0.2532 -1.4345  1.9327
 6483TIP3    H240865   6.691   5.403   2.482 -0.7106  2.5205  0.0262
 6484TIP3   OH240866   1.554   3.366  12.093  0.9643 -0.0140 -0.1775
 6484TIP3    H140867   1.581   3.398  12.179  1.5839 -0.8972 -0.0299
 6484TIP3    H240868   1.599   3.423  12.031  2.6000 -0.9497  0.0769
 6485TIP3   OH240869   5.903   1.825   1.472 -0.1837  0.1528 -0.0887
 6485TIP3    H140870   5.846   1.870   1.410  1.1269  0.9299 -0.7798
 6485TIP3    H240871   5.976   1.793   1.418  0.4884 -0.0083  0.8923
 6486TIP3   OH240872   2.893   6.819   0.358 -0.5851  0.1657 -0.5416
 6486TIP3    H140873   2.961   6.838   0.422  0.0275 -1.0327 -0.7915
 6486TIP3    H240874   2.930   6.851   0.275  0.5707 -2.1293 -1.0122
 6487TIP3   OH240875   3.534   3.755   3.585 -0.3453 -0.3830 -0.0135
 6487TIP3    H140876   3.511   3.680   3.530  0.4002 -0.0202 -0.8231
 6487TIP3    H240877   3.551   3.716   3.671  1.4017 -1.3410 -0.7480
 6488TIP3   OH240878   1.542   6.776   4.484  0.2323  1.2439  0.4016
 6488TIP3    H140879   1.572   6.701   4.536  1.4015  1.1466 -0.3717
 6488TIP3    H240880   1.542   6.743   4.394 -2.6155  1.1273  0.3421
 6489TIP3   OH240881   6.608   0.320  13.135 -0.1754  0.1568  0.1826
 6489TIP3    H140882   6.589   0.387  13.200  1.6279  0.4923  0.4180
 6489TIP3    H240883   6.689   0.278  13.166 -0.1878 -0.7948 -0.9764
 6490TIP3   OH240884   0.538   3.910  11.515 -0.0622  0.4676 -0.1732
 6490TIP3    H140885   0.625   3.916  11.555  1.0563 -1.5675 -2.0857
 6490TIP3    H240886   0.544   3.835  11.456 -3.8686 -1.2811  1.3264
 6491TIP3   OH240887   6.735   2.991   2.901 -0.3391  0.2161  0.3302
 6491TIP3    H140888   6.736   2.949   2.987  0.6364  1.4412  0.9475
 6491TIP3    H240889   6.818   3.038   2.896 -0.6814  0.7356 -1.0055
 6492TIP3   OH240890   4.037   2.997   0.691  0.0858  0.3553 -0.0157
 6492TIP3    H140891   4.114   3.043   0.726  1.0304 -0.9865 -0.2637
 6492TIP3    H240892   4.046   3.006   0.596  0.5964 -0.8042 -0.0912
 6493TIP3   OH240893   0.247   2.603  15.196 -0.4747 -0.2648 -0.1627
 6493TIP3    H140894   0.173   2.645  15.151 -1.0684 -0.9813  0.1120
 6493TIP3    H240895   0.239   2.631  15.286  0.5547  0.9518 -0.4395
 6494TIP3   OH240896   6.046   2.426   4.931  0.3148  0.3450  0.3547
 6494TIP3    H140897   6.046   2.517   4.962 -0.3633  0.4795 -0.0209
 6494TIP3    H240898   6.125   2.388   4.968  1.4511  1.5245 -0.7431
 6495TIP3   OH240899   3.753   0.696   2.946 -0.3557 -1.0102 -0.0373
 6495TIP3    H140900   3.695   0.651   3.007 -0.8174  0.4232  0.6102
 6495TIP3    H240901   3.841   0.665   2.970 -0.7859 -3.4953 -1.2870
 6496TIP3   OH240902   4.625   1.444  14.189  0.1841  0.0626 -0.2329
 6496TIP3    H140903   4.681   1.397  14.251 -1.0134  0.6681  1.3845
 6496TIP3    H240904   4.654   1.535  14.196 -0.1374  0.1755 -0.3802
 6497TIP3   OH240905   0.832   5.436  12.694 -0.5642 -0.1331 -0.0559
 6497TIP3    H140906   0.743   5.415  12.666 -0.8520  0.2378  0.5585
 6497TIP3    H240907   0.828   5.436  12.790  0.0006  0.2876 -0.0243
 6498TIP3   OH240908   5.299   6.453  11.983  0.3066  0.5280 -0.4323
 6498TIP3    H140909   5.368   6.507  12.019  0.6485 -0.7304  0.9181
 6498TIP3    H240910   5.316   6.451  11.889  1.8664  0.5716 -0.1762
 6499TIP3   OH240911   1.645   3.531  15.614  0.0018  0.2491  0.2958
 6499TIP3    H140912   1.728   3.572  15.639  1.5866 -3.5753  2.1671
 6499TIP3    H240913   1.665   3.485  15.533 -0.5411 -0.0569  0.3329
 6500TIP3   OH240914   2.338   5.867   0.965 -0.5187 -0.3306  0.2393
 6500TIP3    H140915   2.389   5.811   0.908  1.5434  0.6966  0.9675
 6500TIP3    H240916   2.345   5.826   1.052 -0.1287  0.2988  0.5154
 6501TIP3   OH240917   2.298   1.959  14.722  0.7769  0.4935  0.3324
 6501TIP3    H140918   2.352   1.939  14.798  0.5628  0.9267  0.5983
 6501TIP3    H240919   2.248   2.037  14.747  0.7000  0.6338 -0.2451
 6502TIP3   OH240920   0.743   2.683  14.093  0.4141 -0.7380 -0.9434
 6502TIP3    H140921   0.807   2.615  14.072 -1.0473 -2.4462 -0.1085
 6502TIP3    H240922   0.786   2.737  14.159  1.9704 -0.1874 -2.3339
 6503TIP3   OH240923   4.872   2.764   4.893 -0.1808 -0.1079  0.1473
 6503TIP3    H140924   4.871   2.839   4.834 -0.0453  0.3834  0.7501
 6503TIP3    H240925   4.841   2.799   4.977  0.5192 -0.5663  0.6145
 6504TIP3   OH240926   5.531   4.777   1.010 -0.0378 -0.8414 -0.4380
 6504TIP3    H140927   5.569   4.865   1.004  0.0025 -0.7997  0.3376
 6504TIP3    H240928   5.585   4.723   0.952 -0.2413 -0.2964 -1.1391
 6505TIP3   OH240929   6.761   3.441  10.705  0.0485 -0.6428  0.1822
 6505TIP3    H140930   6.843   3.395  10.686  1.2152  0.5604  2.0050
 6505TIP3    H240931   6.730   3.470  10.620  1.9576 -0.4249 -0.4930
 6506TIP3   OH240932   5.972   1.059  15.050 -0.2542  0.4892 -0.8841
 6506TIP3    H140933   6.005   1.134  15.002 -0.1709  0.2542 -1.1998
 6506TIP3    H240934   5.985   0.985  14.990  0.3338  0.1090 -0.3072
 6507TIP3   OH240935   0.241   2.315   2.912  0.5487  0.1727 -0.3477
 6507TIP3    H140936   0.303   2.375   2.953 -1.0038  0.7582  1.2367
 6507TIP3    H240937   0.229   2.351   2.824 -0.3687  2.3026  0.5574
 6508TIP3   OH240938   3.836   1.829   6.109  0.1805 -0.0748 -0.4120
 6508TIP3    H140939   3.921   1.789   6.092 -0.0938 -0.4796 -0.8726
 6508TIP3    H240940   3.852   1.891   6.180  0.7509 -0.5287 -0.1334
 6509TIP3   OH240941   2.097   0.836   3.641 -0.2298 -1.0166 -0.2592
 6509TIP3    H140942   2.155   0.780   3.692  0.7209  0.3663  0.2520
 6509TIP3    H240943   2.035   0.871   3.705  0.8257  0.5441 -0.0311
 6510TIP3   OH240944   2.692   4.125  11.500 -0.0965  0.3918  0.1448
 6510TIP3    H140945   2.682   4.145  11.407  0.0016  0.1777  0.0897
 6510TIP3    H240946   2.768   4.068  11.505 -0.6796 -0.3872  0.2506
 6511TIP3   OH240947   5.201   0.714   2.801 -0.3950 -0.1738  0.5902
 6511TIP3    H140948   5.183   0.807   2.794  2.3920  0.4506  0.6276
 6511TIP3    H240949   5.206   0.696   2.895  1.8021  0.3196  0.6209
 6512TIP3   OH240950   2.395   6.710  15.318  0.3345 -0.2325  0.4835
 6512TIP3    H140951   2.340   6.714  15.239  1.2770 -0.4836 -0.2145
 6512TIP3    H240952   2.411   6.617  15.332  2.7929 -0.1317 -0.9752
 6513TIP3   OH240953   2.280   2.578   0.278  0.2895  1.1630 -0.1738
 6513TIP3    H140954   2.195   2.596   0.318 -1.1988  0.6467 -2.8390
 6513TIP3    H240955   2.289   2.645   0.211  1.2802  0.3145 -0.9250
 6514TIP3   OH240956   6.363   2.388   2.057  0.3378 -0.0185  0.6211
 6514TIP3    H140957   6.276   2.373   2.094  0.0936  0.2007  0.1450
 6514TIP3    H240958   6.348   2.390   1.962  1.0261 -1.0895  0.4756
 6515TIP3   OH240959   3.126   2.313  11.975  0.4615  0.1199 -0.4437
 6515TIP3    H140960   3.121   2.353  12.062  0.0110  1.2471 -0.9651
 6515TIP3    H240961   3.047   2.259  11.969  1.1820 -1.0597  0.3458
 6516TIP3   OH240962   5.918   6.809  15.359  0.3827  0.3767  0.2084
 6516TIP3    H140963   5.921   6.754  15.436  0.2372  0.9312  0.6202
 6516TIP3    H240964   5.827   6.840  15.355  0.3434  0.2170 -0.2856
 6517TIP3   OH240965   6.041   4.413  10.508  0.0427  0.1872 -0.2907
 6517TIP3    H140966   6.065   4.374  10.592 -0.5225 -0.4352 -0.4070
 6517TIP3    H240967   6.119   4.462  10.480  0.6621 -0.6181  0.0081
 6518TIP3   OH240968   0.897   6.797  14.095 -0.3194  0.3714 -0.6964
 6518TIP3    H140969   0.875   6.815  14.186  0.0170  0.5117 -0.6406
 6518TIP3    H240970   0.906   6.702  14.091  1.3030  0.4671 -0.1871
 6519TIP3   OH240971   6.170   4.070   6.104 -0.4920  0.5137 -0.1299
 6519TIP3    H140972   6.161   4.113   6.189  1.4520 -0.0272  0.3971
 6519TIP3    H240973   6.234   4.001   6.118 -0.0142  0.4902 -2.0629
 6520TIP3   OH240974   3.583   5.997   2.299 -0.2615 -0.2901  0.2043
 6520TIP3    H140975   3.508   6.018   2.242  1.2900  1.0649 -1.4568
 6520TIP3    H240976   3.622   6.081   2.320  0.9876 -0.9837  0.7737
 6521TIP3   OH240977   3.725   4.971  15.783 -0.7962  0.7094  0.3487
 6521TIP3    H140978   3.785   5.033  15.744 -0.6796  0.6392  0.4156
 6521TIP3    H240979   3.727   4.991  15.876  0.1151 -0.1300  0.5298
 6522TIP3   OH240980   2.699   2.234  15.587 -0.1680  0.6039  0.6883
 6522TIP3    H140981   2.780   2.241  15.536 -0.7140  0.0413 -0.2730
 6522TIP3    H240982   2.643   2.303  15.552  0.1954  1.6061  1.9767
 6523TIP3   OH240983   3.324   4.630  12.406 -0.3970  0.0038 -0.4684
 6523TIP3    H140984   3.303   4.709  12.356  0.8732 -0.1386 -1.2524
 6523TIP3    H240985   3.347   4.565  12.340  2.7340  0.2110  0.2695
 6524TIP3   OH240986   0.135   0.621   0.167  0.8377 -0.0593 -0.3777
 6524TIP3    H140987   0.084   0.610   0.248  1.6534  0.2782  0.1985
 6524TIP3    H240988   0.220   0.652   0.197  0.4190  2.4196 -1.5154
 6525TIP3   OH240989   4.919   1.382  15.035 -0.2881  0.5873 -0.2817
 6525TIP3    H140990   4.896   1.330  14.958 -3.3567  1.4051 -0.0465
 6525TIP3    H240991   4.872   1.341  15.107 -1.4795  2.6154  0.2041
 6526TIP3   OH240992   0.326   2.896   3.725 -0.2091  0.0492 -0.6477
 6526TIP3    H140993   0.360   2.928   3.808 -0.2290 -1.1980 -0.1253
 6526TIP3    H240994   0.257   2.834   3.750 -1.4293  0.9443 -1.6387
 6527TIP3   OH240995   3.010   5.944   4.704  0.0041 -0.1916 -0.1858
 6527TIP3    H140996   2.931   5.899   4.673  0.2224 -0.3866 -0.4625
 6527TIP3    H240997   3.048   5.983   4.625 -1.1755  2.0796  0.2682
 6528TIP3   OH240998   0.508   2.814  12.313 -0.0191 -0.0265 -0.3441
 6528TIP3    H140999   0.546   2.765  12.385  0.7663  1.4806  0.3006
 6528TIP3    H241000   0.413   2.807  12.326  0.0310 -2.1463 -0.8343
 6529TIP3   OH241001   1.796   1.605   1.070  0.3306 -0.6083  0.0076
 6529TIP3    H141002   1.705   1.581   1.050  0.3990 -0.4214 -0.5327
 6529TIP3    H241003   1.792   1.639   1.159 -0.3869  0.7076 -0.4921
 6530TIP3   OH241004   0.929   5.915  11.496  0.4121  0.0063  0.0801
 6530TIP3    H141005   0.866   5.956  11.437 -1.0285 -1.6961  0.3811
 6530TIP3    H241006   0.886   5.916  11.582  0.9029 -0.8993  0.3527
 6531TIP3   OH241007   0.423   4.836   2.126 -0.4644  0.1435  0.1463
 6531TIP3    H141008   0.483   4.909   2.117 -0.2938  0.2792  1.9389
 6531TIP3    H241009   0.379   4.829   2.041  0.8153  1.1440 -0.6286
 6532TIP3   OH241010   0.506   6.476   4.665  0.0383 -0.4967 -0.3245
 6532TIP3    H141011   0.550   6.428   4.596 -0.4834  0.0581 -1.0623
 6532TIP3    H241012   0.476   6.557   4.623  0.5960  0.3253  0.7989
 6533TIP3   OH241013   1.149   3.780  13.290  0.5766  0.8813 -0.0347
 6533TIP3    H141014   1.242   3.796  13.270 -0.0231  1.5325 -2.6270
 6533TIP3    H241015   1.114   3.866  13.312  0.6429  0.5655  1.4052
 6534TIP3   OH241016   3.423   0.069  11.770  0.1021 -0.1649 -0.0601
 6534TIP3    H141017   3.496   0.043  11.713 -0.5303  0.1775 -1.0703
 6534TIP3    H241018   3.456   0.145  11.818  0.4141 -0.0011 -0.5202
 6535TIP3   OH241019   2.651   5.490  11.609  0.4807 -0.4387 -0.6225
 6535TIP3    H141020   2.582   5.536  11.657  1.2797  2.6941 -2.2245
 6535TIP3    H241021   2.717   5.470  11.676 -0.5134 -0.5491  0.3537
 6536TIP3   OH241022   6.673   1.669  14.740 -0.1162 -0.2917 -0.5003
 6536TIP3    H141023   6.658   1.599  14.676 -2.1216 -0.5016  0.1395
 6536TIP3    H241024   6.616   1.741  14.711  1.0179  0.6630 -0.4650
 6537TIP3   OH241025   0.918   1.208   3.188  0.1993  0.3127  0.5012
 6537TIP3    H141026   0.938   1.245   3.102 -1.2341 -1.9151 -0.9026
 6537TIP3    H241027   0.847   1.263   3.222 -0.5289  0.1064 -0.6285
 6538TIP3   OH241028   1.103   2.081  17.014  0.4599 -0.5526 -0.4077
 6538TIP3    H141029   1.013   2.055  17.000  0.1336 -0.8317  1.7854
 6538TIP3    H241030   1.099   2.175  17.029  0.9623 -0.0191 -3.1003
 6539TIP3   OH241031   3.239   5.535  12.204  0.2803  0.0204  0.3931
 6539TIP3    H141032   3.328   5.539  12.239  0.0266  1.2760  0.9645
 6539TIP3    H241033   3.217   5.626  12.186 -0.9680 -0.2600  0.4562
 6540TIP3   OH241034   4.959   3.857  15.801  0.3148 -0.0842 -0.5291
 6540TIP3    H141035   4.925   3.946  15.790  1.1973  0.2818 -0.3716
 6540TIP3    H241036   5.031   3.866  15.863 -0.0524 -1.0295  0.0501
 6541TIP3   OH241037   0.752   2.905   3.076  0.3131  0.0774 -0.0442
 6541TIP3    H141038   0.836   2.894   3.120  0.3715 -1.2588 -0.4459
 6541TIP3    H241039   0.690   2.925   3.146  0.5954 -1.0063  0.5362
 6542TIP3   OH241040   3.531   6.253   5.544  0.6981 -0.3559  0.2069
 6542TIP3    H141041   3.451   6.235   5.495  1.1496  0.1363 -0.7547
 6542TIP3    H241042   3.594   6.279   5.477  2.3208 -2.8341  0.6552
 6543TIP3   OH241043   2.019   5.662  16.654 -0.5929 -0.1826 -0.1383
 6543TIP3    H141044   2.023   5.570  16.680 -1.4147 -0.8259 -2.1433
 6543TIP3    H241045   2.100   5.677  16.606 -0.4440  0.1754  0.2144
 6544TIP3   OH241046   6.289   3.142   2.810 -0.1586  0.0660  0.1069
 6544TIP3    H141047   6.242   3.208   2.758 -3.1235 -1.3011  0.7945
 6544TIP3    H241048   6.269   3.166   2.901 -1.7444 -1.9141  0.3751
 6545TIP3   OH241049   0.065   1.690  13.447 -0.1303  0.0058 -0.0932
 6545TIP3    H141050   0.059   1.632  13.371  1.7984 -0.6896  0.2169
 6545TIP3    H241051   0.120   1.763  13.416  0.8058 -0.3668  0.6598
 6546TIP3   OH241052   2.658   1.143   1.099 -0.1888 -1.0584  0.3665
 6546TIP3    H141053   2.688   1.054   1.119 -0.2617 -0.7442  2.0046
 6546TIP3    H241054   2.665   1.190   1.182  0.3216  0.6119 -0.5689
 6547TIP3   OH241055   1.749   0.322  13.121 -0.5924 -0.1073  0.3653
 6547TIP3    H141056   1.833   0.341  13.162  0.2520  0.6226 -1.5747
 6547TIP3    H241057   1.685   0.327  13.192  0.7780  1.0965  1.5608
 6548TIP3   OH241058   3.584   6.383   3.607 -0.1066  0.0189  0.0971
 6548TIP3    H141059   3.677   6.382   3.630 -0.0861  2.7523  0.4272
 6548TIP3    H241060   3.551   6.298   3.639  2.0847 -0.6993  0.6516
 6549TIP3   OH241061   4.909   0.643  12.436  0.4685  0.7154 -0.2706
 6549TIP3    H141062   4.992   0.685  12.412  0.0826  0.9871 -1.1838
 6549TIP3    H241063   4.842   0.697  12.394 -0.0377 -0.8552 -1.5964
 6550TIP3   OH241064   1.299   3.298   2.712  0.0185 -0.4852 -0.1233
 6550TIP3    H141065   1.238   3.310   2.784  0.2574 -1.6868  0.2983
 6550TIP3    H241066   1.375   3.351   2.736  0.9650 -2.4767  1.5889
 6551TIP3   OH241067   0.206   4.062   0.445 -1.0229 -0.4056  0.2236
 6551TIP3    H141068   0.182   3.969   0.443  0.9177 -0.9242 -1.6224
 6551TIP3    H241069   0.175   4.096   0.362 -1.7788  0.6760  0.9184
 6552TIP3   OH241070   0.448   2.128  14.508 -0.3860 -0.3853  0.1162
 6552TIP3    H141071   0.389   2.201  14.525 -0.8219 -0.6733 -0.1438
 6552TIP3    H241072   0.431   2.066  14.579 -0.3863 -0.4630  0.0477
 6553TIP3   OH241073   5.061   5.776   4.726  0.1192 -0.3275  0.6871
 6553TIP3    H141074   5.146   5.789   4.768 -1.1541 -1.0265  3.7952
 6553TIP3    H241075   5.053   5.848   4.665  2.0191  1.0666  1.9716
 6554TIP3   OH241076   2.601   4.088  12.354  0.4810 -0.3569  0.0660
 6554TIP3    H141077   2.602   4.067  12.261 -1.5985 -0.0786 -0.0503
 6554TIP3    H241078   2.562   4.012  12.396  2.9564 -1.2369  0.9980
 6555TIP3   OH241079   6.421   5.429  15.268  0.3960 -0.6183 -0.3289
 6555TIP3    H141080   6.390   5.502  15.321  0.4258 -1.2624  0.5859
 6555TIP3    H241081   6.409   5.459  15.177 -0.2734  0.2311  0.0278
 6556TIP3   OH241082   4.766   6.432   3.287 -0.2981  0.5194 -0.1184
 6556TIP3    H141083   4.676   6.439   3.319 -1.0222 -1.0877 -1.6566
 6556TIP3    H241084   4.794   6.345   3.314 -0.1495 -0.0105 -1.8632
 6557TIP3   OH241085   5.242   5.904   4.386  0.3257 -0.7374  0.0403
 6557TIP3    H141086   5.325   5.939   4.418  0.3627 -0.5412 -0.2620
 6557TIP3    H241087   5.255   5.899   4.291 -1.1713  2.4305 -0.4559
 6558TIP3   OH241088   0.661   3.129  16.963  0.1094 -0.3115  0.2465
 6558TIP3    H141089   0.685   3.182  16.887 -1.0282 -0.8028 -0.4914
 6558TIP3    H241090   0.742   3.121  17.013  0.8582  0.1518 -0.8348
 6559TIP3   OH241091   3.198   2.637  12.593  0.3435  0.2581 -0.4142
 6559TIP3    H141092   3.263   2.661  12.658  0.0935 -0.0560 -0.0442
 6559TIP3    H241093   3.118   2.622  12.643  0.4049 -1.0029 -0.6692
 6560TIP3   OH241094   6.598   1.650   1.656 -0.1405  0.2993  0.1266
 6560TIP3    H141095   6.652   1.613   1.586  0.2522  0.5080  0.3148
 6560TIP3    H241096   6.617   1.596   1.733 -1.3083 -0.5419 -0.1573
 6561TIP3   OH241097   4.698   2.992  16.230  0.3803 -0.2114 -0.2075
 6561TIP3    H141098   4.625   2.953  16.181  0.0987 -0.1467  0.1624
 6561TIP3    H241099   4.706   3.080  16.194  1.4846 -0.8143 -1.5587
 6562TIP3   OH241100   1.681   0.083   3.992  0.0053 -0.9165 -0.9808
 6562TIP3    H141101   1.775   0.086   3.972 -0.1723 -1.0306 -1.8327
 6562TIP3    H241102   1.644   0.022   3.929 -0.8302  0.0168 -1.4144
 6563TIP3   OH241103   3.850   3.151   2.384  0.1060  0.5611 -0.5059
 6563TIP3    H141104   3.778   3.178   2.328 -1.2441  1.1470  1.4175
 6563TIP3    H241105   3.825   3.179   2.472  2.5662  0.5488  0.2967
 6564TIP3   OH241106   0.179   4.137   2.483  0.1191  0.1623 -0.3397
 6564TIP3    H141107   0.095   4.132   2.528  0.6460 -2.4070  0.5219
 6564TIP3    H241108   0.162   4.195   2.408 -2.3440 -0.1263 -0.1020
 6565TIP3   OH241109   4.389   2.809  14.258  0.2662 -0.3113  0.5270
 6565TIP3    H141110   4.306   2.763  14.275  0.0279  0.7894  2.6815
 6565TIP3    H241111   4.445   2.784  14.332  0.9577  0.9632  0.4559
 6566TIP3   OH241112   3.765   4.102   3.655  0.1257  0.3115  0.0314
 6566TIP3    H141113   3.673   4.079   3.674  0.7326 -3.1641 -0.4791
 6566TIP3    H241114   3.797   4.142   3.736 -1.2251 -0.6667  1.1015
 6567TIP3   OH241115   5.390   4.528   1.909  0.1810 -0.4483  0.4698
 6567TIP3    H141116   5.482   4.505   1.916  0.2619 -0.2868 -0.0174
 6567TIP3    H241117   5.385   4.618   1.942  0.2256 -0.3943  0.3268
 6568TIP3   OH241118   3.214   5.251   0.452  0.1584  0.0240 -0.2600
 6568TIP3    H141119   3.217   5.323   0.515  0.2943  0.7281 -1.0610
 6568TIP3    H241120   3.283   5.271   0.389 -1.9169  0.9461 -2.3600
 6569TIP3   OH241121   6.022   1.843   1.101 -0.4832 -0.0218 -0.1341
 6569TIP3    H141122   6.056   1.766   1.055 -0.3989 -0.1985  0.2194
 6569TIP3    H241123   6.095   1.873   1.155  0.6659  2.3555 -2.7589
 6570TIP3   OH241124   0.050   6.310   1.368 -0.0049  0.2665 -0.4332
 6570TIP3    H141125   0.036   6.258   1.289  0.5060 -1.3395  0.4873
 6570TIP3    H241126   0.145   6.318   1.375 -0.0846  1.6746 -0.7592
 6571TIP3   OH241127   0.865   1.264   2.739  0.1867  0.0721  0.1314
 6571TIP3    H141128   0.790   1.315   2.710 -1.0233 -1.7513 -0.1034
 6571TIP3    H241129   0.880   1.294   2.829  0.4906  1.8616 -0.4712
 6572TIP3   OH241130   3.883   3.391   0.897  0.2340  0.6168  0.3828
 6572TIP3    H141131   3.896   3.485   0.896  3.0300  0.3351 -1.1096
 6572TIP3    H241132   3.922   3.362   0.979  0.5315  0.6769  0.2666
 6573TIP3   OH241133   3.497   0.670  15.209  0.3892 -0.1274 -0.3122
 6573TIP3    H141134   3.423   0.619  15.176 -0.0525  0.8815 -0.9224
 6573TIP3    H241135   3.510   0.739  15.144 -0.2592  1.6974  1.3922
 6574TIP3   OH241136   2.674   2.875   3.756  0.0895  0.3651 -0.4271
 6574TIP3    H141137   2.687   2.784   3.782  1.3567 -0.0118 -2.1949
 6574TIP3    H241138   2.596   2.874   3.701 -0.3628  0.4939  0.2078
 6575TIP3   OH241139   0.374   5.351   4.128  0.0967  0.7790  0.6626
 6575TIP3    H141140   0.410   5.345   4.216  0.4299 -0.1622  0.4654
 6575TIP3    H241141   0.432   5.412   4.082  1.3057 -0.5231  0.4218
 6576TIP3   OH241142   6.253   0.229  16.262 -0.4207  0.0068 -0.0424
 6576TIP3    H141143   6.262   0.260  16.352 -0.5265 -0.5624  0.1682
 6576TIP3    H241144   6.317   0.280  16.212 -0.2531  0.2149  0.3795
 6577TIP3   OH241145   6.575   2.342  12.116  0.2829  0.0821  0.0396
 6577TIP3    H141146   6.616   2.355  12.202 -1.2226 -0.3087  0.8531
 6577TIP3    H241147   6.531   2.425  12.098 -0.8677 -0.4066  0.4942
 6578TIP3   OH241148   4.707   3.319   1.361  0.4999  0.3241 -0.7223
 6578TIP3    H141149   4.721   3.304   1.455  3.2600  3.8062 -0.3465
 6578TIP3    H241150   4.619   3.357   1.356  0.9889  1.7971  0.7965
 6579TIP3   OH241151   5.074   4.019   3.663 -0.6076  0.4257  1.1502
 6579TIP3    H141152   5.146   4.055   3.612  0.8401 -3.5953 -0.0714
 6579TIP3    H241153   4.995   4.056   3.624  0.6423  0.9958 -1.0073
 6580TIP3   OH241154   5.100   4.353   2.732  0.0476 -0.1538  0.1552
 6580TIP3    H141155   5.049   4.432   2.715 -1.3152 -1.3719 -1.9373
 6580TIP3    H241156   5.191   4.378   2.713 -0.5672  0.5312 -2.2015
 6581TIP3   OH241157   2.427   2.889   2.450 -0.3285 -0.3726 -0.5917
 6581TIP3    H141158   2.480   2.809   2.451 -1.0926 -0.9113  1.0865
 6581TIP3    H241159   2.338   2.859   2.467 -0.6635  0.8094 -0.1655
 6582TIP3   OH241160   4.375   6.530  11.581 -0.1351 -0.4557 -0.3176
 6582TIP3    H141161   4.426   6.588  11.524 -0.3043 -0.1647 -0.1753
 6582TIP3    H241162   4.337   6.588  11.647 -1.8262 -0.4491 -1.2390
 6583TIP3   OH241163   6.512   1.514  11.931  0.0318  0.0432 -0.5619
 6583TIP3    H141164   6.501   1.583  11.866 -0.0614 -0.3165 -0.9324
 6583TIP3    H241165   6.461   1.440  11.897  0.1259 -0.2064 -0.1706
 6584TIP3   OH241166   1.826   6.232  16.638 -0.4142 -0.2654  0.2286
 6584TIP3    H141167   1.850   6.173  16.710 -0.1110  0.0528  0.3939
 6584TIP3    H241168   1.785   6.306  16.681  0.8617  0.4876  0.1892
 6585TIP3   OH241169   1.755   3.084   1.623 -0.6257 -0.3612 -0.3301
 6585TIP3    H141170   1.686   3.104   1.559 -0.1959 -1.0306 -1.0133
 6585TIP3    H241171   1.719   3.012   1.676 -1.1698  0.5035  0.5063
 6586TIP3   OH241172   5.623   1.740   5.654  0.0893  0.0345 -0.3370
 6586TIP3    H141173   5.564   1.787   5.713  0.5679 -0.8124  0.8549
 6586TIP3    H241174   5.647   1.804   5.587 -1.1620  0.7631 -0.1219
 6587TIP3   OH241175   5.765   2.097  12.465 -0.3850 -0.2282  0.2033
 6587TIP3    H141176   5.717   2.085  12.547  0.4369 -2.2598  0.4364
 6587TIP3    H241177   5.854   2.118  12.493  0.2314 -2.2389 -0.0830
 6588TIP3   OH241178   4.267   5.563  16.783  0.1236 -0.4031  0.1660
 6588TIP3    H141179   4.301   5.620  16.852  0.9568  0.7120 -1.1254
 6588TIP3    H241180   4.273   5.615  16.703 -1.5806 -1.3643 -0.6526
 6589TIP3   OH241181   4.411   5.562   1.192  0.2558  0.0507 -0.6456
 6589TIP3    H141182   4.334   5.529   1.147 -0.6220  0.5116  0.4668
 6589TIP3    H241183   4.480   5.499   1.173 -0.9810 -1.6044  0.1664
 6590TIP3   OH241184   3.361   4.392   1.948  0.6169 -0.5853 -0.1013
 6590TIP3    H141185   3.361   4.488   1.943  1.4882 -0.5008  1.2017
 6590TIP3    H241186   3.281   4.371   1.997  0.8394 -0.4742  0.3135
 6591TIP3   OH241187   3.033   3.154   4.368  0.1483  0.0938 -0.3429
 6591TIP3    H141188   3.116   3.175   4.411 -0.0996  0.1368  0.1238
 6591TIP3    H241189   3.051   3.076   4.316  0.5220  0.1982 -0.3690
 6592TIP3   OH241190   1.723   0.823   3.559 -0.3064 -0.3254 -0.3714
 6592TIP3    H141191   1.635   0.792   3.537 -0.0779 -1.2293 -0.0595
 6592TIP3    H241192   1.709   0.895   3.621 -0.8000 -1.5236  0.9527
 6593TIP3   OH241193   1.691   3.267   1.359  0.6678 -0.2059  0.1920
 6593TIP3    H141194   1.754   3.225   1.299 -0.6361  1.0454 -2.2109
 6593TIP3    H241195   1.606   3.249   1.319 -0.0373  3.6522 -0.3775
 6594TIP3   OH241196   4.744   5.909   5.606  0.9124 -0.0822  0.0437
 6594TIP3    H141197   4.829   5.894   5.647  1.1570  0.2000 -0.3470
 6594TIP3    H241198   4.752   5.996   5.567  0.6901 -0.3576 -0.6206
 6595TIP3   OH241199   3.857   6.756  16.237 -0.8189 -0.5192  0.1182
 6595TIP3    H141200   3.919   6.723  16.301 -0.9722 -1.3029 -0.1342
 6595TIP3    H241201   3.791   6.802  16.290 -0.1685  0.1089  0.4010
 6596TIP3   OH241202   6.265   5.528  16.458 -0.1215 -0.0634  0.0522
 6596TIP3    H141203   6.270   5.620  16.433 -0.2575 -0.0737 -0.0170
 6596TIP3    H241204   6.350   5.491  16.434 -0.5285 -0.2584 -1.1520
 6597TIP3   OH241205   5.290   0.706   0.504 -0.2615 -0.1707 -0.0205
 6597TIP3    H141206   5.223   0.766   0.471 -0.2657 -0.5396 -0.6871
 6597TIP3    H241207   5.326   0.751   0.581  0.7881  1.3969 -1.3614
 6598TIP3   OH241208   2.611   5.193  11.721  0.1135 -0.5389  0.0521
 6598TIP3    H141209   2.525   5.186  11.763  0.4668 -2.9031  0.5060
 6598TIP3    H241210   2.672   5.198  11.795  0.5484 -1.9162 -0.1952
 6599TIP3   OH241211   4.074   4.932  15.302  0.4839 -0.2377 -0.0125
 6599TIP3    H141212   4.101   4.989  15.230  0.5985  0.4731  0.5890
 6599TIP3    H241213   4.042   4.853  15.258  0.9334  0.0177 -0.8318
 6600TIP3   OH241214   6.309   1.209  12.953 -0.2702 -0.3812  0.4479
 6600TIP3    H141215   6.354   1.147  12.896 -1.1582 -0.4006 -0.2356
 6600TIP3    H241216   6.217   1.201  12.931 -0.5346  0.2612  1.2574
 6601TIP3   OH241217   6.673   4.236  14.811 -0.1397  0.4991  0.7227
 6601TIP3    H141218   6.727   4.218  14.889  1.9888  2.3165 -0.2284
 6601TIP3    H241219   6.592   4.273  14.846  0.2390  0.0712  2.1160
 6602TIP3   OH241220   5.800   1.227   4.175  0.4084 -0.1990  0.0510
 6602TIP3    H141221   5.894   1.237   4.163  0.1163  0.6950 -2.0567
 6602TIP3    H241222   5.790   1.190   4.262  2.6686  0.3594  0.6067
 6603TIP3   OH241223   5.340   5.887   0.386  0.5764  0.1582 -0.1205
 6603TIP3    H141224   5.364   5.799   0.360  0.6958  0.2236 -0.2291
 6603TIP3    H241225   5.380   5.899   0.472 -2.3410 -1.2003  1.6174
 6604TIP3   OH241226   2.120   2.198  14.746 -0.3446  0.4204 -0.1520
 6604TIP3    H141227   2.053   2.218  14.812  0.0267  0.2373  0.2859
 6604TIP3    H241228   2.112   2.268  14.682  1.0454  2.0965  1.4182
 6605TIP3   OH241229   2.254   0.582   0.107 -0.2877  0.1866  0.6189
 6605TIP3    H141230   2.182   0.520   0.093  0.1408 -0.1309 -0.2426
 6605TIP3    H241231   2.330   0.540   0.067  0.8172 -0.3121  3.0216
 6606TIP3   OH241232   2.429   1.696  14.855 -0.4910 -0.5172 -0.1493
 6606TIP3    H141233   2.441   1.605  14.828  2.2201 -0.2241 -0.1500
 6606TIP3    H241234   2.471   1.701  14.941 -0.4043  0.8062 -0.2509
 6607TIP3   OH241235   2.176   5.355  12.204  0.3154 -0.2023 -0.1673
 6607TIP3    H141236   2.116   5.384  12.135  0.8040 -1.3790 -1.1071
 6607TIP3    H241237   2.215   5.436  12.237  0.2666  0.3547 -1.4461
 6608TIP3   OH241238   4.733   4.965   1.022  0.3826 -0.0035 -0.3158
 6608TIP3    H141239   4.683   4.926   0.950 -0.6569  0.8120 -0.0522
 6608TIP3    H241240   4.754   4.891   1.079 -0.2652 -0.4051 -0.5900
 6609TIP3   OH241241   1.864   1.670  15.073 -0.0652 -0.0012  0.2133
 6609TIP3    H141242   1.797   1.714  15.022 -1.2577 -1.1826  0.6840
 6609TIP3    H241243   1.947   1.691  15.029 -0.8350  0.7607 -0.9051
 6610TIP3   OH241244   4.753   5.923   1.244  0.1284  0.7866  0.0574
 6610TIP3    H141245   4.664   5.926   1.279 -0.2556 -1.2242 -0.6087
 6610TIP3    H241246   4.749   5.972   1.162 -0.9837 -1.1635 -1.1204
 6611TIP3   OH241247   4.784   4.920  15.281  0.0012  0.3284 -0.0099
 6611TIP3    H141248   4.734   4.972  15.344  0.9377  0.5917  0.5385
 6611TIP3    H241249   4.720   4.860  15.244 -0.5770  0.1525  1.2077
 6612TIP3   OH241250   0.601   2.611  10.767  0.2633 -0.0283 -0.6203
 6612TIP3    H141251   0.640   2.524  10.772 -1.2688 -0.7391 -0.6210
 6612TIP3    H241252   0.673   2.668  10.740  1.5287 -1.1169  0.3479
 6613TIP3   OH241253   5.907   6.654  13.926  0.6552  0.4833  0.2626
 6613TIP3    H141254   5.932   6.740  13.892  0.7958 -0.7958 -3.4029
 6613TIP3    H241255   5.986   6.600  13.913  0.1223 -0.5245  1.1069
 6614TIP3   OH241256   2.583   4.845   2.544 -0.1280  0.4821  0.9824
 6614TIP3    H141257   2.670   4.882   2.528  0.1528 -0.9807 -1.2186
 6614TIP3    H241258   2.599   4.773   2.605  0.4375 -0.5770 -0.3748
 6615TIP3   OH241259   3.250   1.254  11.451  0.2704  0.1224 -0.3546
 6615TIP3    H141260   3.177   1.226  11.507 -1.8082  2.4721 -1.7076
 6615TIP3    H241261   3.219   1.335  11.410  3.6751  1.2208 -1.0283
 6616TIP3   OH241262   5.102   3.955  14.626 -0.2117  0.4446 -0.0052
 6616TIP3    H141263   5.086   3.874  14.577  0.4459  0.3464 -0.0773
 6616TIP3    H241264   5.061   4.024  14.574 -2.0660  0.0008  0.8000
 6617TIP3   OH241265   5.076   3.719  14.477  0.0587 -0.6697  0.1245
 6617TIP3    H141266   5.164   3.738  14.445 -0.0942 -0.5272 -0.2135
 6617TIP3    H241267   5.070   3.623  14.473  0.4850 -0.7453  0.9271
 6618TIP3   OH241268   4.814   0.909  12.592  0.3518  0.1079  0.1100
 6618TIP3    H141269   4.888   0.959  12.557  0.6291 -0.4015 -0.0446
 6618TIP3    H241270   4.761   0.974  12.639  1.1363  0.4005  0.6138
 6619TIP3   OH241271   2.913   4.934  16.348 -0.4985  0.0448  0.0053
 6619TIP3    H141272   2.867   4.929  16.264 -0.0380  2.2332 -0.4435
 6619TIP3    H241273   2.986   4.872  16.340 -1.7585 -1.4595 -0.2909
 6620TIP3   OH241274   0.252   5.786  11.065  0.3002 -0.1894  0.4151
 6620TIP3    H141275   0.180   5.848  11.071 -0.1681 -0.8819  2.6744
 6620TIP3    H241276   0.213   5.702  11.088  1.5505 -0.8153  0.3253
 6621TIP3   OH241277   1.559   3.679  11.728  0.0232 -0.3401 -0.5094
 6621TIP3    H141278   1.502   3.751  11.702  2.9340  2.0387 -0.8798
 6621TIP3    H241279   1.625   3.674  11.659  1.8986 -1.0122  1.2296
 6622TIP3   OH241280   1.421   2.138   4.120 -0.1868  0.4109  0.4034
 6622TIP3    H141281   1.498   2.130   4.176  0.1140  1.4338  0.1588
 6622TIP3    H241282   1.348   2.115   4.177  0.3655 -1.9512  0.2799
 6623TIP3   OH241283   0.252   3.233   0.108  0.1107  0.4268  0.1394
 6623TIP3    H141284   0.306   3.195   0.039 -0.7444 -1.1661  0.3014
 6623TIP3    H241285   0.281   3.189   0.188  0.4718  1.6027  0.6908
 6624TIP3   OH241286   1.123   3.308  13.405  0.1698  0.5627  0.0085
 6624TIP3    H141287   1.200   3.349  13.364 -0.3276  0.6565 -0.8587
 6624TIP3    H241288   1.057   3.307  13.336 -0.9318  1.3369  1.0295
 6625TIP3   OH241289   2.256   5.413   1.694  0.0142 -0.0248  0.2720
 6625TIP3    H141290   2.241   5.376   1.607  0.5192 -0.9408  0.5644
 6625TIP3    H241291   2.325   5.478   1.680 -0.2428  0.1761 -0.0881
 6626TIP3   OH241292   5.282   3.233  11.805 -0.2590 -0.0110  0.0527
 6626TIP3    H141293   5.376   3.241  11.823 -0.5748  3.3873  0.9545
 6626TIP3    H241294   5.248   3.182  11.878  0.5816  0.9961  1.1949
 6627TIP3   OH241295   6.437   4.638  16.282 -0.4317  0.0000 -0.0613
 6627TIP3    H141296   6.363   4.682  16.241  0.2823  1.1249 -0.1685
 6627TIP3    H241297   6.417   4.545  16.274 -3.4631  0.2213  2.8016
 6628TIP3   OH241298   3.204   2.889  15.000 -0.0728 -0.0719 -0.5470
 6628TIP3    H141299   3.299   2.889  14.985  0.3171  2.1749  1.3330
 6628TIP3    H241300   3.181   2.982  15.005 -2.5648 -0.5481 -1.7371
 6629TIP3   OH241301   3.899   5.002  13.859  0.6127  0.0018  0.5049
 6629TIP3    H141302   3.856   4.947  13.924 -1.8892  0.4133 -0.6927
 6629TIP3    H241303   3.887   5.091  13.891  1.4120  0.0899  0.5925
 6630TIP3   OH241304   5.200   2.721  11.347  0.1528 -0.1426  0.3992
 6630TIP3    H141305   5.264   2.662  11.386  0.2845  0.0564  0.4813
 6630TIP3    H241306   5.139   2.662  11.301  1.6843 -0.2293 -1.6654
 6631TIP3   OH241307   3.322   4.690  13.110  0.2864  0.3017 -0.3506
 6631TIP3    H141308   3.359   4.650  13.031 -0.5098  0.9811 -1.0891
 6631TIP3    H241309   3.325   4.784  13.093 -2.5733  0.4025 -0.8901
 6632TIP3   OH241310   0.212   3.583   1.615  0.0324 -0.1618 -0.5644
 6632TIP3    H141311   0.154   3.591   1.539 -0.9093  2.1093  0.3104
 6632TIP3    H241312   0.157   3.547   1.684  0.0355  0.6007 -0.1475
 6633TIP3   OH241313   5.207   1.062   1.645 -0.9277  0.3117 -0.1156
 6633TIP3    H141314   5.115   1.036   1.643 -0.1872 -2.7091 -2.4856
 6633TIP3    H241315   5.222   1.106   1.561  0.0347 -0.5187 -0.4139
 6634TIP3   OH241316   4.695   6.249   5.732  0.2815  0.3332  0.0372
 6634TIP3    H141317   4.777   6.239   5.684 -0.2153  2.1761 -1.3339
 6634TIP3    H241318   4.721   6.255   5.824  1.4401 -1.3251 -0.1473
 6635TIP3   OH241319   5.668   3.911  12.919  0.0881  0.6657  0.1913
 6635TIP3    H141320   5.751   3.894  12.963  0.3391 -0.0690 -0.5319
 6635TIP3    H241321   5.637   3.824  12.892 -0.7649  0.9618  0.1837
 6636TIP3   OH241322   1.564   4.017   1.673 -0.1766 -0.0797 -0.4232
 6636TIP3    H141323   1.523   4.066   1.744 -0.1879  0.4782 -0.8157
 6636TIP3    H241324   1.573   3.928   1.708  0.5209  0.3675  0.5512
 6637TIP3   OH241325   1.738   4.619  13.719 -0.5307  0.5519 -0.1576
 6637TIP3    H141326   1.687   4.564  13.779 -1.8740  1.3010 -0.5758
 6637TIP3    H241327   1.737   4.571  13.636 -1.4805  1.0635 -0.4521
 6638TIP3   OH241328   5.023   6.636  16.562 -0.5303  0.0274  0.0188
 6638TIP3    H141329   4.942   6.685  16.550 -0.3960  1.2838  3.2879
 6638TIP3    H241330   4.996   6.544  16.560 -1.4600  0.2816 -1.9942
 6639TIP3   OH241331   5.213   1.248  12.583 -0.0298  0.7112  0.3799
 6639TIP3    H141332   5.147   1.238  12.515 -0.7889  0.5993  1.1212
 6639TIP3    H241333   5.167   1.288  12.656  0.9325  1.4585  0.5988
 6640TIP3   OH241334   0.299   6.233   0.031 -0.4764  0.2793 -0.1108
 6640TIP3    H141335   0.284   6.201   0.120  1.5504  1.2280  0.6365
 6640TIP3    H241336   0.287   6.156  -0.025 -1.5860 -0.3759  0.9962
 6641TIP3   OH241337   4.196   4.320  12.034  0.1541 -0.2711 -0.0044
 6641TIP3    H141338   4.165   4.239  12.072 -0.3178 -0.1775 -0.1883
 6641TIP3    H241339   4.180   4.311  11.940  0.0772  0.0450 -0.0239
 6642TIP3   OH241340   1.543   5.027   4.591 -0.7138  0.1736  0.3903
 6642TIP3    H141341   1.606   5.088   4.552 -0.2596 -1.0473 -0.8983
 6642TIP3    H241342   1.461   5.077   4.597 -0.5035  0.7580 -1.1563
 6643TIP3   OH241343   1.154   5.085  16.780 -0.2706 -0.1925 -0.3171
 6643TIP3    H141344   1.241   5.047  16.792 -0.5436 -1.0473 -0.9590
 6643TIP3    H241345   1.099   5.037  16.841 -0.6870 -1.0948 -1.3790
 6644TIP3   OH241346   6.403   0.164   4.970 -0.4061  0.4531  0.0907
 6644TIP3    H141347   6.426   0.183   5.061  0.2461  0.4923 -0.0747
 6644TIP3    H241348   6.313   0.132   4.974  0.4151 -2.0049  1.0722
 6645TIP3   OH241349   5.204   4.283  16.091 -0.1603  0.1225  0.4595
 6645TIP3    H141350   5.144   4.266  16.018 -0.6545 -2.1501  1.3039
 6645TIP3    H241351   5.206   4.200  16.139  0.7877  1.3042  2.5681
 6646TIP3   OH241352   3.517   5.782   5.171 -0.2123 -0.5126 -0.2044
 6646TIP3    H141353   3.476   5.779   5.085 -0.4047 -0.5905 -0.1106
 6646TIP3    H241354   3.535   5.874   5.187 -1.3845 -0.3437  0.2402
 6647TIP3   OH241355   3.005   6.564  14.872 -0.5408 -0.7115 -0.2731
 6647TIP3    H141356   2.963   6.542  14.789  1.2057 -0.4860 -1.2581
 6647TIP3    H241357   3.060   6.488  14.891 -0.3982 -0.4593  0.3259
 6648TIP3   OH241358   2.832   2.956  10.912  0.0131  0.1271  0.4320
 6648TIP3    H141359   2.867   2.872  10.944 -0.0765  0.1232  0.5192
 6648TIP3    H241360   2.834   2.948  10.817  0.2231  0.1146  0.4365
 6649TIP3   OH241361   4.347   5.560  10.117 -0.8635  0.2573  0.1517
 6649TIP3    H141362   4.259   5.561  10.155 -1.2276 -1.2148 -0.5687
 6649TIP3    H241363   4.350   5.479  10.065  1.2554 -0.2472  0.9533
 6650TIP3   OH241364   5.275   3.043   2.041  0.5737 -0.0994  0.1494
 6650TIP3    H141365   5.315   3.128   2.060 -0.9314  0.4330  1.1215
 6650TIP3    H241366   5.348   2.987   2.016  1.9779  0.7038  2.2487
 6651TIP3   OH241367   4.991   3.571  11.842 -0.3014  0.0888  0.1401
 6651TIP3    H141368   5.026   3.644  11.893  0.2989 -1.3875  1.9998
 6651TIP3    H241369   5.063   3.545  11.784 -0.3328  0.6357 -0.1457
 6652TIP3   OH241370   1.453   4.048   1.032 -0.2041  0.1882  0.2005
 6652TIP3    H141371   1.546   4.032   1.050  0.1239 -0.9567 -2.2257
 6652TIP3    H241372   1.407   4.003   1.104  1.0692  0.3531  1.1559
 6653TIP3   OH241373   0.506   1.358   5.014 -0.0766  0.7700  0.0905
 6653TIP3    H141374   0.514   1.371   5.108 -0.3278  1.1383  0.0631
 6653TIP3    H241375   0.479   1.443   4.980  1.6013  1.0877 -0.5279
 6654TIP3   OH241376   1.119   6.352   3.637  0.5741  0.4958 -0.3285
 6654TIP3    H141377   1.057   6.422   3.660 -0.2576 -0.0122 -0.9640
 6654TIP3    H241378   1.087   6.276   3.685  1.2594  0.4443  0.0637
 6655TIP3   OH241379   4.724   6.195  15.011  0.1758  0.0560 -0.2848
 6655TIP3    H141380   4.724   6.291  15.008  2.2351  0.0496 -1.9980
 6655TIP3    H241381   4.795   6.173  15.071  1.0476 -0.3816 -1.4501
 6656TIP3   OH241382   4.381   2.031  10.371  0.1393  0.2099  0.1840
 6656TIP3    H141383   4.453   2.039  10.308 -0.2622 -2.1779 -0.6954
 6656TIP3    H241384   4.401   1.952  10.420 -1.9412 -0.6450 -0.2289
 6657TIP3   OH241385   1.460   6.206  13.308 -0.1221 -0.5641  0.2325
 6657TIP3    H141386   1.376   6.165  13.332 -0.9275  0.2590 -1.0404
 6657TIP3    H241387   1.482   6.261  13.384  0.8900 -3.1044  1.9030
 6658TIP3   OH241388   6.660   4.328   6.042  0.2445 -0.2942 -0.1656
 6658TIP3    H141389   6.568   4.334   6.069 -0.5286 -3.8455 -1.4388
 6658TIP3    H241390   6.709   4.369   6.113 -2.2908  2.5714  0.1336
 6659TIP3   OH241391   6.802   3.312   2.046 -0.5049  0.3153  0.2323
 6659TIP3    H141392   6.755   3.241   2.003 -1.3370  1.1062 -0.1760
 6659TIP3    H241393   6.737   3.381   2.060  0.1651  0.8127  1.0874
 6660TIP3   OH241394   4.682   2.868   1.056  0.4664  0.4053  0.3319
 6660TIP3    H141395   4.707   2.861   0.964  1.1787 -2.6951  0.6395
 6660TIP3    H241396   4.586   2.868   1.054  0.4693  0.0268 -0.4250
 6661TIP3   OH241397   0.652   2.711   0.199 -0.3275  0.2367  0.9470
 6661TIP3    H141398   0.704   2.745   0.127  0.5164 -2.0207  0.4017
 6661TIP3    H241399   0.580   2.664   0.156 -1.6628  1.5165  1.6690
 6662TIP3   OH241400   4.745   5.609  13.359  0.1399 -0.1229  0.7154
 6662TIP3    H141401   4.839   5.594  13.353  0.1889  0.7479 -2.3188
 6662TIP3    H241402   4.736   5.703  13.372 -0.1925  0.3600 -2.1485
 6663TIP3   OH241403   1.755   1.904  12.658 -0.6545 -0.1371  0.1045
 6663TIP3    H141404   1.668   1.921  12.623 -0.4550 -0.2080 -0.4438
 6663TIP3    H241405   1.795   1.991  12.666  0.6146 -0.2273 -3.3535
 6664TIP3   OH241406   1.043   1.789  12.841 -0.7473 -0.3766  0.0739
 6664TIP3    H141407   1.018   1.700  12.865 -1.4649  0.0878  1.0986
 6664TIP3    H241408   1.041   1.790  12.745 -1.4682 -1.2526  0.0733
 6665TIP3   OH241409   4.156   4.538   0.537 -0.0515  0.8394  0.2938
 6665TIP3    H141410   4.191   4.623   0.512 -0.5525  1.0623  0.3441
 6665TIP3    H241411   4.071   4.534   0.494  0.2680  0.0649 -0.2904
 6666TIP3   OH241412   0.552   5.700  12.352  0.7688 -0.4153 -0.0493
 6666TIP3    H141413   0.607   5.763  12.399 -0.1202  0.7440 -0.5283
 6666TIP3    H241414   0.595   5.691  12.266  1.0776 -0.7195  0.1342
 6667TIP3   OH241415   1.729   4.262  10.826  0.1649 -0.2860 -0.4418
 6667TIP3    H141416   1.742   4.189  10.764 -0.3247 -0.8565  0.1104
 6667TIP3    H241417   1.637   4.285  10.816 -0.0932 -0.8416  0.5600
 6668TIP3   OH241418   0.284   5.441   1.519  0.3428  0.2257  0.0337
 6668TIP3    H141419   0.192   5.458   1.533  0.4711  0.8193  0.1622
 6668TIP3    H241420   0.328   5.473   1.597  0.6112 -0.5497  0.2146
 6669TIP3   OH241421   4.635   5.354  10.417  0.4036 -1.0014  0.2199
 6669TIP3    H141422   4.696   5.369  10.489  0.2093  1.1604  0.0138
 6669TIP3    H241423   4.687   5.370  10.338 -0.1219 -0.3103  0.0047
 6670TIP3   OH241424   6.468   3.843  13.694 -0.6570  0.2850 -0.0304
 6670TIP3    H141425   6.477   3.756  13.657  0.9836  0.9911 -1.4257
 6670TIP3    H241426   6.492   3.902  13.623  0.0615  1.8057  1.4031
 6671TIP3   OH241427   6.520   1.832   1.489 -0.4456  0.3671  0.6625
 6671TIP3    H141428   6.425   1.817   1.494 -0.6328  0.7458 -1.1606
 6671TIP3    H241429   6.554   1.795   1.571 -2.1115 -0.1647  1.1590
 6672TIP3   OH241430   6.177   4.712   4.611 -0.0812  0.1320 -0.1297
 6672TIP3    H141431   6.106   4.704   4.674 -0.2906 -1.6141 -0.5371
 6672TIP3    H241432   6.255   4.728   4.665 -0.6096  1.0889  0.3778
 6673TIP3   OH241433   2.141   0.243   1.666 -0.2622 -0.1309 -0.4513
 6673TIP3    H141434   2.194   0.310   1.711  1.0006 -0.4363 -1.4089
 6673TIP3    H241435   2.065   0.231   1.722  0.7136  0.2989  1.0427
 6674TIP3   OH241436   1.708   6.234  12.436  0.1146 -0.6521  0.9729
 6674TIP3    H141437   1.755   6.212  12.517  1.2363 -2.4707 -0.1042
 6674TIP3    H241438   1.692   6.149  12.395 -1.7721  0.1363 -0.0096
 6675TIP3   OH241439   6.461   2.007   9.946 -0.0117  0.0755  0.2247
 6675TIP3    H141440   6.365   2.004   9.952  0.0118 -1.9481  0.3409
 6675TIP3    H241441   6.483   2.099   9.959 -1.8226  0.3153  2.2323
 6676TIP3   OH241442   6.160   5.601  12.359 -0.0769 -0.1601  0.7413
 6676TIP3    H141443   6.191   5.559  12.279  0.7747  2.0507 -0.1836
 6676TIP3    H241444   6.090   5.544  12.391  0.7155 -1.9923 -0.6190
 6677TIP3   OH241445   1.685   0.447   5.769  0.2007  0.1086 -0.9987
 6677TIP3    H141446   1.739   0.414   5.841 -1.2344 -4.6779 -1.7646
 6677TIP3    H241447   1.748   0.462   5.698  1.1020  0.5641 -0.1374
 6678TIP3   OH241448   5.309   4.634   1.126  0.0380  0.4750 -0.0094
 6678TIP3    H141449   5.357   4.699   1.075 -2.7329  2.5349 -0.2241
 6678TIP3    H241450   5.288   4.565   1.063  2.0452 -0.1353 -0.0592
 6679TIP3   OH241451   2.058   5.592   3.312  0.0869  0.7365 -0.1216
 6679TIP3    H141452   2.044   5.651   3.386 -1.4088  0.6182 -0.2836
 6679TIP3    H241453   2.104   5.646   3.247  2.8915  0.4184  1.4124
 6680TIP3   OH241454   5.142   5.347   4.861 -0.4032  0.3438  0.2446
 6680TIP3    H141455   5.186   5.268   4.829 -0.2808  0.6716 -0.4098
 6680TIP3    H241456   5.197   5.419   4.831 -2.4116  0.9095 -2.4779
 6681TIP3   OH241457   3.721   4.032   1.706  0.3920  0.0775 -0.2843
 6681TIP3    H141458   3.639   4.063   1.666 -0.1222  1.1094  1.4571
 6681TIP3    H241459   3.701   3.943   1.736  0.3635 -0.1949 -1.0848
 6682TIP3   OH241460   6.533   6.661   0.194  0.4583 -0.2113 -0.0585
 6682TIP3    H141461   6.605   6.680   0.134  0.5445  1.6904  0.5931
 6682TIP3    H241462   6.454   6.676   0.143  0.5349  0.8326  0.1112
 6683TIP3   OH241463   1.833   5.099  14.743  0.5320  0.0375 -0.5069
 6683TIP3    H141464   1.894   5.065  14.810 -1.0674 -1.1529  0.4256
 6683TIP3    H241465   1.807   5.185  14.776 -0.4469 -0.6456  0.6166
 6684TIP3   OH241466   1.324   0.810   2.134 -0.3616 -0.2345  0.0449
 6684TIP3    H141467   1.294   0.766   2.055 -0.2763 -1.8965  0.9073
 6684TIP3    H241468   1.254   0.871   2.156 -0.8693 -0.5420 -0.6956
 6685TIP3   OH241469   2.015   3.266   2.051 -0.0958  0.1864  0.2675
 6685TIP3    H141470   1.950   3.257   1.981  1.0169  1.8341 -1.0450
 6685TIP3    H241471   2.037   3.176   2.075 -0.8876 -0.4085 -1.1322
 6686TIP3   OH241472   0.706   2.443  13.795 -0.2745  0.4649 -0.1883
 6686TIP3    H141473   0.742   2.500  13.862  3.2961 -0.2293 -1.2593
 6686TIP3    H241474   0.737   2.355  13.819 -0.1559 -0.0113 -1.9418
 6687TIP3   OH241475   4.808   6.493   5.339 -0.3685  0.3621 -0.2010
 6687TIP3    H141476   4.788   6.551   5.413 -0.8941 -1.1288  0.8591
 6687TIP3    H241477   4.751   6.525   5.269 -1.6640  0.2979  0.7798
 6688TIP3   OH241478   6.118   1.302   5.009 -0.6439 -0.5041  0.3312
 6688TIP3    H141479   6.166   1.219   5.004  0.4358  0.0783  0.6841
 6688TIP3    H241480   6.120   1.325   5.102 -1.5317 -0.4126  0.3367
 6689TIP3   OH241481   6.040   0.226  16.576 -0.2531  0.2909  0.7425
 6689TIP3    H141482   6.043   0.140  16.617  2.9864 -1.2042 -2.1151
 6689TIP3    H241483   5.953   0.231  16.536 -0.5349 -1.6322  1.0391
 6690TIP3   OH241484   5.615   3.587  12.637 -0.1001  0.0633  0.3931
 6690TIP3    H141485   5.701   3.608  12.602 -0.3190 -0.0144 -0.2120
 6690TIP3    H241486   5.573   3.672  12.650 -0.2198  0.0777 -0.0683
 6691TIP3   OH241487   2.819   4.082  14.358  0.4313 -0.3217 -0.1440
 6691TIP3    H141488   2.726   4.071  14.336  0.5265  1.0271 -1.3655
 6691TIP3    H241489   2.822   4.074  14.454 -0.4773 -3.2502 -0.2761
 6692TIP3   OH241490   5.541   1.655  13.381 -0.1254 -0.3462  0.0800
 6692TIP3    H141491   5.457   1.699  13.375  0.5002  1.1399  1.5718
 6692TIP3    H241492   5.591   1.689  13.307 -0.2262  0.1327  0.2344
 6693TIP3   OH241493   4.713   5.447   4.561  0.4008 -0.2935  0.0972
 6693TIP3    H141494   4.797   5.467   4.601  0.4374 -0.0345 -0.1123
 6693TIP3    H241495   4.675   5.379   4.618  0.4641  0.0515  0.5524
 6694TIP3   OH241496   0.772   1.806  15.599 -0.2983 -0.2137 -0.0688
 6694TIP3    H141497   0.797   1.719  15.567 -1.0749 -0.0795 -1.0976
 6694TIP3    H241498   0.693   1.828  15.550 -2.3677 -0.5181  2.8795
 6695TIP3   OH241499   5.316   3.424  14.500 -0.2786 -0.1780  0.0668
 6695TIP3    H141500   5.406   3.455  14.493  0.6768 -2.5658  0.9424
 6695TIP3    H241501   5.311   3.349  14.442 -1.8115  0.0675 -0.1621
 6696TIP3   OH241502   3.417   5.358   6.600  0.7210 -0.1136  0.1828
 6696TIP3    H141503   3.456   5.301   6.534 -0.5797 -1.1013  0.2415
 6696TIP3    H241504   3.418   5.306   6.680  1.0068  0.5597  0.6270
 6697TIP3   OH241505   0.339   2.065   1.107  0.1158 -0.3907  0.1711
 6697TIP3    H141506   0.337   2.064   1.011 -1.4149 -2.2889  0.1518
 6697TIP3    H241507   0.356   1.973   1.131 -1.7493 -0.4068  1.6873
 6698TIP3   OH241508   4.519   5.122  14.773  0.5487 -0.4578 -0.2784
 6698TIP3    H141509   4.491   5.053  14.713 -0.3864  0.8661 -1.4316
 6698TIP3    H241510   4.484   5.202  14.735 -1.3394  0.3193  2.7835
 6699TIP3   OH241511   4.437   5.709   3.824 -0.4336  0.1762 -0.0014
 6699TIP3    H141512   4.418   5.630   3.875  2.4301 -0.8180 -0.3013
 6699TIP3    H241513   4.414   5.685   3.734 -1.2619  0.3692  0.1436
 6700TIP3   OH241514   3.728   1.245   5.630  0.5727 -0.2107 -0.4970
 6700TIP3    H141515   3.709   1.289   5.547  1.3815  1.3402  0.0889
 6700TIP3    H241516   3.683   1.161   5.624 -1.8948  1.0632 -1.3198
 6701TIP3   OH241517   2.033   4.145   3.446 -0.0257 -0.1736 -0.3746
 6701TIP3    H141518   2.117   4.178   3.412 -0.9379  2.2774 -0.4406
 6701TIP3    H241519   1.978   4.223   3.455 -1.6410 -1.4303  1.6475
 6702TIP3   OH241520   3.615   6.072   3.231  0.4073  0.1841 -0.5445
 6702TIP3    H141521   3.597   6.115   3.147 -1.2470 -0.3167 -0.4837
 6702TIP3    H241522   3.706   6.093   3.249  0.1736  2.2190 -1.3651
 6703TIP3   OH241523   4.481   6.464   4.234  0.0412 -0.0468  0.1478
 6703TIP3    H141524   4.475   6.545   4.284  0.1440 -0.3981  0.7340
 6703TIP3    H241525   4.556   6.477   4.176  0.3602  0.0908  0.5854
 6704TIP3   OH241526   0.374   3.453   0.261  0.7526 -0.0775 -0.4320
 6704TIP3    H141527   0.296   3.473   0.209  0.2132  0.4222  0.5343
 6704TIP3    H241528   0.356   3.368   0.300  0.0842  0.6389  0.8673
 6705TIP3   OH241529   2.658   0.476  12.021  0.0529 -0.4415  0.2113
 6705TIP3    H141530   2.742   0.432  12.005 -0.1035 -0.7418  0.2199
 6705TIP3    H241531   2.616   0.425  12.090 -0.2653 -0.4645  0.0042
 6706TIP3   OH241532   2.884   6.816   6.413 -0.3393 -0.1081 -0.2561
 6706TIP3    H141533   2.974   6.785   6.413 -0.2495  0.0958 -1.7817
 6706TIP3    H241534   2.891   6.909   6.392 -0.9888 -0.4315 -2.0247
 6707TIP3   OH241535   0.311   1.535   5.381  0.3062 -0.6697  0.6900
 6707TIP3    H141536   0.395   1.577   5.364  0.2844 -0.3294  1.3839
 6707TIP3    H241537   0.247   1.606   5.373  0.1269 -0.8422  0.5891
 6708TIP3   OH241538   5.014   5.454   3.475  0.0922 -0.4404  0.3452
 6708TIP3    H141539   4.945   5.497   3.525  0.4089 -1.5548  1.7976
 6708TIP3    H241540   5.060   5.400   3.539  2.1670  0.0789 -0.6376
 6709TIP3   OH241541   1.821   6.602   5.031  0.2321 -0.7982 -0.1650
 6709TIP3    H141542   1.751   6.653   4.989 -0.4707 -3.0073 -1.9030
 6709TIP3    H241543   1.901   6.637   4.992  0.0212  0.6218  0.5816
 6710TIP3   OH241544   1.038   6.219   1.652 -0.5623 -0.4437 -0.2027
 6710TIP3    H141545   1.117   6.173   1.681 -0.9945 -0.5089  0.9221
 6710TIP3    H241546   1.068   6.307   1.629 -0.0191 -0.7457 -0.6622
 6711TIP3   OH241547   5.862   1.693  16.916 -0.4991 -0.1394 -0.6121
 6711TIP3    H141548   5.838   1.661  16.829 -1.3642 -0.5867 -0.2238
 6711TIP3    H241549   5.868   1.788  16.905 -2.2918 -0.0148 -0.7964
 6712TIP3   OH241550   5.004   5.059   3.418 -0.1854 -0.0913 -0.1935
 6712TIP3    H141551   4.942   4.986   3.423  0.1620 -0.4866 -1.1977
 6712TIP3    H241552   5.090   5.017   3.423  0.0147  0.3900  0.5624
 6713TIP3   OH241553   1.896   1.215  13.272 -0.0226  0.4019 -0.6407
 6713TIP3    H141554   1.962   1.226  13.340  0.5944 -0.2331 -1.1298
 6713TIP3    H241555   1.946   1.196  13.192 -0.8038 -0.5587 -0.9214
 6714TIP3   OH241556   0.799   1.009  14.679  0.0547 -0.0024  0.0802
 6714TIP3    H141557   0.843   1.094  14.669 -1.2933  0.7361  0.1720
 6714TIP3    H241558   0.708   1.028  14.660 -0.4267 -1.2473  1.0461
 6715TIP3   OH241559   0.974   0.631   6.364  0.3600  0.4944 -0.7524
 6715TIP3    H141560   0.926   0.710   6.389  0.9044 -0.2843  3.4213
 6715TIP3    H241561   0.908   0.577   6.320  0.0551  3.1501 -4.0675
 6716TIP3   OH241562   3.424   1.465  12.168  0.0968  0.6632 -0.3834
 6716TIP3    H141563   3.459   1.465  12.257 -1.5151 -0.0502  0.2983
 6716TIP3    H241564   3.491   1.422  12.115  0.4680 -0.2017  0.7565
 6717TIP3   OH241565   5.210   0.544   1.215  0.0297 -0.1563 -0.2352
 6717TIP3    H141566   5.135   0.537   1.275  0.9320  0.8967  1.0829
 6717TIP3    H241567   5.267   0.472   1.240 -0.9679 -1.6282 -1.9637
 6718TIP3   OH241568   6.785   4.404   4.350  0.0701  0.0165  0.7512
 6718TIP3    H141569   6.732   4.484   4.343 -0.7569 -0.5933 -0.1824
 6718TIP3    H241570   6.745   4.354   4.420 -0.3432 -0.2481  0.3337
 6719TIP3   OH241571   3.553   6.146   3.939 -0.0740  0.5191  0.1579
 6719TIP3    H141572   3.546   6.241   3.948 -0.6047  0.4666  0.3468
 6719TIP3    H241573   3.509   6.126   3.856  1.7595  0.6352 -0.8914
 6720TIP3   OH241574   3.475   1.250   3.439 -0.1757 -0.4825 -0.1611
 6720TIP3    H141575   3.439   1.233   3.352  1.0999  4.0761 -1.8607
 6720TIP3    H241576   3.469   1.345   3.449  2.3462 -0.5263  3.5466
 6721TIP3   OH241577   5.341   3.808  14.385 -0.2348 -0.1665  0.3082
 6721TIP3    H141578   5.431   3.802  14.418  1.1100 -0.5182 -3.0862
 6721TIP3    H241579   5.311   3.895  14.413  0.8521 -0.3215  2.1081
 6722TIP3   OH241580   1.002   6.260  14.628 -0.4301 -0.2210  0.0791
 6722TIP3    H141581   0.949   6.334  14.596 -2.2176  0.3458  3.7577
 6722TIP3    H241582   1.084   6.300  14.656 -0.0658 -0.2396 -0.9096
 6723TIP3   OH241583   0.183   2.786   1.336  0.0899  0.8560 -0.1388
 6723TIP3    H141584   0.147   2.707   1.378  0.8460  0.7538  0.3392
 6723TIP3    H241585   0.169   2.856   1.400  0.0093  0.9737 -0.2864
 6724TIP3   OH241586   3.121   6.161   1.855  0.3098 -0.0567 -0.4896
 6724TIP3    H141587   3.173   6.109   1.793  1.6845 -0.2413  0.7594
 6724TIP3    H241588   3.036   6.172   1.812  0.5623 -1.8498 -1.5460
 6725TIP3   OH241589   5.475   4.874   3.391 -0.3383 -0.2557  0.7669
 6725TIP3    H141590   5.401   4.934   3.394 -1.0631 -1.0498 -0.5991
 6725TIP3    H241591   5.485   4.852   3.299  1.9450  0.2225  0.8373
 6726TIP3   OH241592   0.653   5.504  15.484 -0.0713  0.2646 -0.2521
 6726TIP3    H141593   0.706   5.442  15.433  1.1288  1.2423 -0.2396
 6726TIP3    H241594   0.648   5.465  15.571  0.5898  0.1347 -0.2694
 6727TIP3   OH241595   4.673   2.732   5.387  0.1084 -0.2212 -0.1749
 6727TIP3    H141596   4.636   2.819   5.403  0.5731  0.1514 -1.0628
 6727TIP3    H241597   4.723   2.712   5.466  0.8019  0.7457 -0.3524
 6728TIP3   OH241598   5.135   5.411  13.671 -0.0673 -0.2294  0.2069
 6728TIP3    H141599   5.100   5.486  13.719  0.2315  1.0733 -1.4943
 6728TIP3    H241600   5.181   5.449  13.596  0.3087 -2.1063 -0.5966
 6729TIP3   OH241601   0.510   5.364   4.974 -0.1419 -0.1319 -1.5332
 6729TIP3    H141602   0.419   5.390   4.962 -0.3717 -0.6587 -0.9591
 6729TIP3    H241603   0.559   5.424   4.918 -0.4134  3.4094  1.5756
 6730TIP3   OH241604   0.554   1.316  14.382  0.4035  0.5615 -0.5624
 6730TIP3    H141605   0.583   1.238  14.335  2.0048 -0.2788  1.6323
 6730TIP3    H241606   0.462   1.299  14.402 -0.0372  0.5212 -2.4706
 6731TIP3   OH241607   2.100   2.553  15.911 -0.0799  0.0721 -0.2640
 6731TIP3    H141608   2.067   2.466  15.889  1.9150 -0.8261  0.0825
 6731TIP3    H241609   2.070   2.608  15.839 -1.0118 -0.9824 -0.7230
 6732TIP3   OH241610   2.251   4.149   1.339  0.4462 -0.3765 -0.2413
 6732TIP3    H141611   2.239   4.244   1.334  1.3407 -0.2120  0.5125
 6732TIP3    H241612   2.334   4.133   1.294  2.0005 -0.3785  2.4449
 6733TIP3   OH241613   6.155   2.607  13.184  0.1555  0.1861  0.0124
 6733TIP3    H141614   6.126   2.693  13.212  1.9049  1.0016 -0.5123
 6733TIP3    H241615   6.197   2.569  13.261 -0.2821 -0.0490  0.1371
 6734TIP3   OH241616   4.380   0.902  16.487  0.1910  0.1089  0.0629
 6734TIP3    H141617   4.374   0.854  16.404 -1.9511  0.3565  0.0196
 6734TIP3    H241618   4.474   0.906  16.506  0.5283 -3.5522 -0.2296
 6735TIP3   OH241619   1.486   6.601  15.343  0.0652 -0.0705  0.0447
 6735TIP3    H141620   1.423   6.622  15.412 -0.5347 -1.7879  0.0624
 6735TIP3    H241621   1.435   6.604  15.262 -0.3082 -2.2834  0.1368
 6736TIP3   OH241622   1.081   1.405  14.433 -0.5717  0.0339 -0.0291
 6736TIP3    H141623   1.101   1.323  14.478  0.7767  1.0345  1.2777
 6736TIP3    H241624   0.988   1.419  14.450 -0.3825 -0.2684  1.4083
 6737TIP3   OH241625   1.437   4.353  12.049  0.5114 -0.1955 -0.0605
 6737TIP3    H141626   1.530   4.362  12.072  0.0911 -1.5187  2.4087
 6737TIP3    H241627   1.435   4.279  11.988  1.1864  0.7195 -1.2436
 6738TIP3   OH241628   5.529   3.958  11.401 -0.2626  0.2338  0.2679
 6738TIP3    H141629   5.453   3.999  11.444  0.3167  0.0784  1.4675
 6738TIP3    H241630   5.516   3.977  11.308 -0.6275  2.1296  0.6602
 6739TIP3   OH241631   1.161   4.345  11.550 -0.3487 -0.0599 -0.2986
 6739TIP3    H141632   1.106   4.268  11.566 -0.0566 -0.1210  0.4700
 6739TIP3    H241633   1.158   4.394  11.632 -0.3640  0.6509 -0.7145
 6740TIP3   OH241634   6.172   0.156  13.027  0.1239  0.2614  0.2430
 6740TIP3    H141635   6.152   0.079  13.079  1.1335  0.4063  0.8772
 6740TIP3    H241636   6.096   0.167  12.969 -0.3611 -0.7506  0.6693
 6741TIP3   OH241637   0.984   5.928  16.471  0.1847  0.1434 -0.1891
 6741TIP3    H141638   0.934   5.858  16.429  0.1225  0.9585 -1.5229
 6741TIP3    H241639   0.972   5.913  16.565 -1.6351 -0.3406 -0.4620
 6742TIP3   OH241640   0.259   3.113   1.337  0.0290  0.1652  0.3165
 6742TIP3    H141641   0.176   3.088   1.297 -0.1145  0.4564  0.4254
 6742TIP3    H241642   0.321   3.049   1.305 -0.4686 -0.7448  1.1402
 6743TIP3   OH241643   4.107   2.179  13.102  0.1490 -0.0296  0.2476
 6743TIP3    H141644   4.036   2.237  13.075  0.3597 -0.5429 -1.5136
 6743TIP3    H241645   4.079   2.144  13.186 -0.7323  1.3486  0.5633
 6744TIP3   OH241646   1.243   0.687   5.906 -0.3023  0.1466  0.1141
 6744TIP3    H141647   1.279   0.641   5.982  2.6259  1.9308 -0.0081
 6744TIP3    H241648   1.300   0.660   5.833 -0.5776  1.4187 -0.6057
 6745TIP3   OH241649   1.398   3.578  14.443 -0.0991 -0.5037  0.3555
 6745TIP3    H141650   1.407   3.640  14.515  0.9255 -1.0378  0.7043
 6745TIP3    H241651   1.454   3.504  14.468  0.8523 -0.3941 -1.2914
 6746TIP3   OH241652   1.251   1.519  10.498 -0.5664 -0.0439  0.0938
 6746TIP3    H141653   1.216   1.468  10.571 -1.8671 -0.2388 -0.6384
 6746TIP3    H241654   1.178   1.529  10.438  0.7728 -0.9455 -1.7893
 6747TIP3   OH241655   4.548   6.186   3.160 -0.0315  0.2263 -0.8355
 6747TIP3    H141656   4.626   6.131   3.153  0.4698  0.4243  2.0679
 6747TIP3    H241657   4.476   6.123   3.166  0.4138 -0.1560  1.1400
 6748TIP3   OH241658   6.182   1.063   1.321  0.5495 -0.2253 -0.8636
 6748TIP3    H141659   6.225   1.089   1.239  0.4244 -0.6100 -1.0507
 6748TIP3    H241660   6.101   1.114   1.322  2.0191  2.2760  0.5957
 6749TIP3   OH241661   0.744   1.778  11.617 -0.5603  0.1381  0.3989
 6749TIP3    H141662   0.668   1.830  11.641 -2.9554 -3.4068  1.3370
 6749TIP3    H241663   0.748   1.709  11.684  2.0903 -1.1565 -0.9405
 6750TIP3   OH241664   2.643   2.636  14.674  0.0923  0.6559  0.0990
 6750TIP3    H141665   2.591   2.560  14.646  2.9463 -1.7374  0.7811
 6750TIP3    H241666   2.644   2.631  14.770  0.9328  1.0534  0.1251
 6751TIP3   OH241667   3.430   1.245  12.470  0.3686 -0.0587 -0.0664
 6751TIP3    H141668   3.432   1.152  12.448  2.7363  0.3182 -1.9703
 6751TIP3    H241669   3.397   1.249  12.559 -2.4087 -2.4517 -0.8418
 6752TIP3   OH241670   5.975   0.046   3.582  0.2036 -0.1839  0.1472
 6752TIP3    H141671   5.908  -0.021   3.568  1.1302 -1.1151  0.0556
 6752TIP3    H241672   6.057  -0.003   3.583  1.0051  1.1049 -1.0993
 6753TIP3   OH241673   0.467   1.933   5.398 -0.7143  0.0114 -0.2738
 6753TIP3    H141674   0.493   1.841   5.389  0.3698  0.0859  1.6238
 6753TIP3    H241675   0.471   1.968   5.309 -1.0822 -1.7485 -1.0233
 6754TIP3   OH241676   3.510   6.187   4.603  0.0321 -0.1716 -0.0680
 6754TIP3    H141677   3.585   6.232   4.642  0.1680 -0.9328  0.5837
 6754TIP3    H241678   3.457   6.257   4.565  0.5657  0.4701  0.3471
 6755TIP3   OH241679   6.299   5.822  15.748 -0.5762 -0.7668  0.2295
 6755TIP3    H141680   6.223   5.800  15.695 -0.6980 -0.2285  0.1685
 6755TIP3    H241681   6.264   5.831  15.837 -0.3230 -1.9510  0.4622
 6756TIP3   OH241682   0.847   6.368   2.417  0.0790  0.2353  0.0934
 6756TIP3    H141683   0.797   6.408   2.488  0.5833  0.0402  0.5624
 6756TIP3    H241684   0.935   6.356   2.453  0.7460  1.4776 -1.0208
 6757TIP3   OH241685   3.516   3.768   0.291  0.2266  0.1467  0.0336
 6757TIP3    H141686   3.556   3.855   0.292 -0.1373  0.3752 -1.6856
 6757TIP3    H241687   3.590   3.708   0.285  0.4539  0.5426 -2.5204
 6758TIP3   OH241688   2.969   4.482   4.740 -0.2820  0.0461  0.8049
 6758TIP3    H141689   3.009   4.418   4.681 -0.6331  1.7266 -1.3542
 6758TIP3    H241690   2.875   4.473   4.724 -0.2676  3.0196 -1.8149
 6759TIP3   OH241691   2.766   5.622  11.374  0.5886  0.1192 -0.8498
 6759TIP3    H141692   2.728   5.563  11.440  0.5775  0.3504 -0.6472
 6759TIP3    H241693   2.826   5.677  11.424 -0.9810  1.7348 -0.6429
 6760TIP3   OH241694   4.557   4.230   1.213  0.0356 -0.3982 -0.1258
 6760TIP3    H141695   4.466   4.209   1.192 -0.4633  0.4978  1.0310
 6760TIP3    H241696   4.574   4.184   1.295  0.4023  0.0290  0.0404
 6761TIP3   OH241697   0.509   6.467   0.472  0.3400 -0.0651  0.1407
 6761TIP3    H141698   0.453   6.400   0.510 -1.6551  0.9747 -0.8375
 6761TIP3    H241699   0.494   6.545   0.526 -0.2952  0.6082 -0.9597
 6762TIP3   OH241700   1.402   4.954   0.302  0.0168  0.2940  0.7665
 6762TIP3    H141701   1.415   5.016   0.374  2.5607  0.7728 -0.0273
 6762TIP3    H241702   1.464   4.884   0.320 -0.3626 -0.3013 -0.2110
 6763TIP3   OH241703   3.768   0.221   0.389 -0.3876 -0.4246 -0.1042
 6763TIP3    H141704   3.771   0.311   0.424 -0.6274 -0.0111 -1.1250
 6763TIP3    H241705   3.793   0.166   0.464 -1.3207  0.3923  0.8476
 6764TIP3   OH241706   5.156   4.221  11.095  0.0978 -0.0202 -0.3153
 6764TIP3    H141707   5.088   4.269  11.049 -0.6530  1.3144  2.0272
 6764TIP3    H241708   5.114   4.141  11.126 -0.7734  1.1659  1.8207
 6765TIP3   OH241709   0.750   2.990  15.233 -0.2026  0.0244  0.5583
 6765TIP3    H141710   0.668   2.980  15.185  0.1317 -0.1097 -0.0040
 6765TIP3    H241711   0.758   2.910  15.284 -0.7542  0.3371  1.1538
 6766TIP3   OH241712   2.902   4.705  12.590  0.4325 -0.4164 -0.7474
 6766TIP3    H141713   2.857   4.632  12.632  1.4829 -1.7430 -1.8165
 6766TIP3    H241714   2.946   4.751  12.661  0.7177 -1.5388 -0.1778
 6767TIP3   OH241715   4.442   4.087   0.946  0.0376 -0.2602 -0.4408
 6767TIP3    H141716   4.395   4.134   1.014 -1.6582 -2.1409 -0.1965
 6767TIP3    H241717   4.448   3.997   0.979 -0.0105 -1.0102 -2.3385
 6768TIP3   OH241718   2.757   6.243  11.712 -0.0211 -0.6430 -0.1105
 6768TIP3    H141719   2.723   6.161  11.749  1.1586  0.1224  2.9813
 6768TIP3    H241720   2.750   6.306  11.784  2.0150  1.1698 -1.3950
 6769TIP3   OH241721   2.565   4.446  11.177  0.1184  0.2092  0.4801
 6769TIP3    H141722   2.549   4.364  11.223 -1.0842  0.4513  0.5280
 6769TIP3    H241723   2.545   4.427  11.085  2.0128 -0.1342  0.1058
 6770TIP3   OH241724   4.704   2.377  13.720  0.2729 -0.7147  0.0756
 6770TIP3    H141725   4.693   2.411  13.632 -0.0655  1.0882  0.7751
 6770TIP3    H241726   4.615   2.362  13.752  0.1907  1.8981  1.2780
 6771TIP3   OH241727   3.832   2.880   4.156 -0.2585  0.4397 -0.3697
 6771TIP3    H141728   3.900   2.819   4.185 -0.7724  0.5717  1.2191
 6771TIP3    H241729   3.877   2.965   4.150 -0.2082  0.4743  0.4034
 6772TIP3   OH241730   3.891   1.750   1.450  0.2335  0.1400  0.0343
 6772TIP3    H141731   3.923   1.719   1.535  1.6325 -1.8354 -1.1106
 6772TIP3    H241732   3.954   1.714   1.386 -0.6207  1.7470 -1.8341
 6773TIP3   OH241733   1.453   1.757   3.348 -0.2254 -0.1073  0.1417
 6773TIP3    H141734   1.513   1.792   3.282  1.3690 -0.2301  1.4592
 6773TIP3    H241735   1.421   1.835   3.394  1.3530 -0.1821  1.4281
 6774TIP3   OH241736   6.367   3.422  13.874  0.1896 -0.5232  0.4901
 6774TIP3    H141737   6.399   3.378  13.952  1.5504  0.4832  0.5155
 6774TIP3    H241738   6.443   3.466  13.837 -1.4353  3.7454  1.6818
 6775TIP3   OH241739   2.222   4.962   2.267 -0.2391  0.2718 -0.1575
 6775TIP3    H141740   2.216   4.867   2.274 -0.4668  0.3906  1.7415
 6775TIP3    H241741   2.151   4.995   2.321 -0.8718  1.5471 -1.6818
 6776TIP3   OH241742   0.477   5.048  14.858  0.0480 -0.3830 -0.8471
 6776TIP3    H141743   0.465   5.139  14.829 -0.6252 -0.4094 -0.6773
 6776TIP3    H241744   0.499   5.055  14.950 -0.4961 -0.4025 -0.7089
 6777TIP3   OH241745   3.726   0.239  10.307 -0.1119  0.1335  0.1902
 6777TIP3    H141746   3.720   0.221  10.401 -1.5289 -1.2709 -0.1261
 6777TIP3    H241747   3.749   0.154  10.268 -0.2797  0.5236 -0.7888
 6778TIP3   OH241748   0.522   4.445  13.172  0.0044  0.0810  0.2481
 6778TIP3    H141749   0.528   4.464  13.266 -0.5857 -0.7758  0.4747
 6778TIP3    H241750   0.480   4.359  13.168 -1.2368  0.6998 -0.8353
 6779TIP3   OH241751   0.840   2.967   0.417  0.1218 -0.6902 -0.0752
 6779TIP3    H141752   0.837   3.038   0.352  0.4147 -1.0873 -0.5358
 6779TIP3    H241753   0.753   2.966   0.456 -0.5929 -1.4468 -1.5745
 6780TIP3   OH241754   3.684   2.049   4.902 -0.5000 -0.3705  0.1487
 6780TIP3    H141755   3.716   2.135   4.873 -0.8490  0.0818  1.0728
 6780TIP3    H241756   3.758   2.011   4.950 -1.1410  0.5017  1.9266
 6781TIP3   OH241757   4.326   5.622   4.956  0.4252 -0.3320  0.0964
 6781TIP3    H141758   4.271   5.560   5.004  0.5198  0.5493  1.3707
 6781TIP3    H241759   4.388   5.566   4.908 -0.4603 -1.2697  0.0102
 6782TIP3   OH241760   1.537   5.784   4.826 -0.3523 -0.0113 -0.1279
 6782TIP3    H141761   1.556   5.874   4.852 -2.0204  1.3864 -3.1263
 6782TIP3    H241762   1.620   5.751   4.790 -0.0169  0.7712 -0.0766
 6783TIP3   OH241763   0.101   6.201   6.449 -0.2215 -0.3816  0.1721
 6783TIP3    H141764   0.142   6.267   6.506  0.6836 -1.4452  0.8103
 6783TIP3    H241765   0.084   6.127   6.508 -0.3205 -1.0775 -0.7197
 6784TIP3   OH241766   5.020   3.707  12.205 -0.2254 -0.2168 -0.3003
 6784TIP3    H141767   5.064   3.753  12.133 -1.1602 -0.1949 -0.8759
 6784TIP3    H241768   5.072   3.729  12.283  2.2542 -2.2034 -1.2705
 6785TIP3   OH241769   3.648   4.050   2.050 -0.1182  0.4227  0.8255
 6785TIP3    H141770   3.736   4.023   2.024 -0.0013  1.0113  0.6080
 6785TIP3    H241771   3.590   3.982   2.015  0.2324  0.1157  0.8416
 6786TIP3   OH241772   1.295   1.135  11.307  0.4863  0.1343 -0.0505
 6786TIP3    H141773   1.351   1.059  11.295 -0.4982 -0.4741 -0.9608
 6786TIP3    H241774   1.337   1.205  11.258  1.8834  0.4599  1.5417
 6787TIP3   OH241775   1.327   3.243   2.349 -0.2441  0.0860 -0.7388
 6787TIP3    H141776   1.370   3.178   2.404  1.5380  1.3793 -0.4946
 6787TIP3    H241777   1.377   3.323   2.364 -1.9773  1.3686 -1.4929
 6788TIP3   OH241778   5.519   1.883  16.484  0.1192 -0.0681 -0.0507
 6788TIP3    H141779   5.499   1.853  16.572 -2.2967 -0.8574 -0.7657
 6788TIP3    H241780   5.553   1.806  16.439  0.1228 -0.0168 -0.1372
 6789TIP3   OH241781   4.634   0.229   1.256  0.4972 -0.0157 -0.0485
 6789TIP3    H141782   4.634   0.145   1.211  2.0030 -0.7476  1.2009
 6789TIP3    H241783   4.555   0.228   1.309  0.5434 -0.6944  0.0149
 6790TIP3   OH241784   3.647   5.522  13.697 -0.4217  0.2040  0.2511
 6790TIP3    H141785   3.700   5.464  13.642  1.2448  0.0041  1.9457
 6790TIP3    H241786   3.616   5.466  13.768 -0.0389  1.0352  1.1025
 6791TIP3   OH241787   2.461   5.632  10.761 -0.7617  0.2421  0.3375
 6791TIP3    H141788   2.428   5.713  10.723  1.0098  2.1403  2.5125
 6791TIP3    H241789   2.512   5.591  10.691 -0.9889  1.4539 -0.5569
 6792TIP3   OH241790   1.668   4.582  12.269 -0.2838  0.1223  0.2289
 6792TIP3    H141791   1.670   4.498  12.314 -2.6922 -0.8884 -1.3690
 6792TIP3    H241792   1.749   4.626  12.297  2.5560 -3.7800 -0.8968
 6793TIP3   OH241793   4.113   6.259  11.818 -0.1404 -0.2615  0.3434
 6793TIP3    H141794   4.205   6.265  11.844  0.0385  0.3365 -0.3829
 6793TIP3    H241795   4.087   6.170  11.840  1.4269 -1.3853 -1.9813
 6794TIP3   OH241796   3.505   6.086  14.631 -0.0732  0.7842  0.6070
 6794TIP3    H141797   3.430   6.030  14.612  0.0639  1.3817 -2.0843
 6794TIP3    H241798   3.581   6.034  14.605  0.2740  1.1330  0.9103
 6795TIP3   OH241799   3.031   1.486   0.650 -0.3426  0.1274  0.1394
 6795TIP3    H141800   3.109   1.511   0.700 -0.6010  0.8302  0.1992
 6795TIP3    H241801   3.007   1.400   0.685  0.4717 -0.1569  0.0366
 6796TIP3   OH241802   3.079   2.619   5.697 -0.5398  0.6880  0.4169
 6796TIP3    H141803   2.989   2.588   5.705 -0.6482  0.5919 -0.9515
 6796TIP3    H241804   3.133   2.541   5.714 -0.8134 -0.5881 -3.5799
 6797TIP3   OH241805   1.126   0.741   0.087  0.5097 -0.0950 -0.2741
 6797TIP3    H141806   1.171   0.804   0.032 -0.0249  1.1898  0.6981
 6797TIP3    H241807   1.184   0.730   0.163 -0.6660  1.4991  0.9416
 6798TIP3   OH241808   1.452   4.368   2.329  0.1440 -0.5915  0.7947
 6798TIP3    H141809   1.482   4.285   2.291  1.2915 -0.6268  1.7324
 6798TIP3    H241810   1.378   4.343   2.384 -0.8546 -0.6815 -0.5228
 6799TIP3   OH241811   2.349   1.789  14.153 -0.7653  0.2658  0.3346
 6799TIP3    H141812   2.302   1.864  14.190 -0.1157  0.4873  0.7260
 6799TIP3    H241813   2.429   1.783  14.205 -1.1463 -1.1544  0.7975
 6800TIP3   OH241814   6.462   3.342   5.963 -0.0125 -0.3410  0.1653
 6800TIP3    H141815   6.531   3.283   5.992 -0.0931  0.2696  1.7113
 6800TIP3    H241816   6.381   3.303   5.997 -0.5655 -1.3664 -2.1270
 6801TIP3   OH241817   3.406   6.516   3.770  0.3530 -0.1688 -0.1146
 6801TIP3    H141818   3.457   6.513   3.851 -0.7286  1.4747  0.6878
 6801TIP3    H241819   3.469   6.497   3.701  1.5131 -0.6106  1.0229
 6802TIP3   OH241820   4.140   4.806   2.390 -0.3274  0.1882 -0.8847
 6802TIP3    H141821   4.045   4.792   2.387 -0.1931 -0.7277 -1.1259
 6802TIP3    H241822   4.163   4.796   2.482 -0.2165 -1.5123 -1.0507
 6803TIP3   OH241823   3.136   5.212   2.739 -0.1070  0.3790 -0.1836
 6803TIP3    H141824   3.181   5.274   2.797  0.3381  0.2217 -0.3499
 6803TIP3    H241825   3.148   5.127   2.782 -0.4452  0.3652 -0.1146
 6804TIP3   OH241826   6.385   0.447  14.354  0.6991  0.3651 -0.1344
 6804TIP3    H141827   6.368   0.518  14.416  0.9978  0.9004 -0.6439
 6804TIP3    H241828   6.320   0.459  14.285  1.0720  0.4691 -0.4790
 6805TIP3   OH241829   1.779   4.370  14.744  0.1067 -0.3303 -0.0250
 6805TIP3    H141830   1.731   4.333  14.819 -0.5918 -1.8507 -1.1600
 6805TIP3    H241831   1.869   4.339  14.756  0.7703  1.9958  1.7686
 6806TIP3   OH241832   5.380   1.019   4.579 -0.1471 -0.1869  0.3414
 6806TIP3    H141833   5.352   0.969   4.656 -1.4313 -0.2594 -0.1553
 6806TIP3    H241834   5.332   0.980   4.506 -1.0954  1.6801 -0.0774
 6807TIP3   OH241835   3.599   6.528  13.733 -0.3892  0.0507 -0.4057
 6807TIP3    H141836   3.654   6.484  13.668  1.2433 -0.0165  0.9474
 6807TIP3    H241837   3.631   6.618  13.734 -2.1317  0.7274 -1.4777
 6808TIP3   OH241838   3.045   2.331  15.035  0.7132 -0.1686 -0.8983
 6808TIP3    H141839   3.003   2.378  15.106  0.7919 -0.5392 -0.6033
 6808TIP3    H241840   3.055   2.396  14.965  1.1107  0.3257 -0.3884
 6809TIP3   OH241841   3.497   4.634   4.141  0.4324  0.1076  0.7049
 6809TIP3    H141842   3.416   4.642   4.191 -1.5579 -2.4152 -1.7537
 6809TIP3    H241843   3.549   4.571   4.191 -1.2000 -1.8067  0.1460
 6810TIP3   OH241844   6.200   6.280   2.701  0.2622 -0.0332 -0.5385
 6810TIP3    H141845   6.240   6.227   2.770 -0.8627 -1.3028 -0.8320
 6810TIP3    H241846   6.195   6.368   2.738  2.4605  0.0001 -0.1560
 6811TIP3   OH241847   4.471   6.170  13.676 -0.3127 -0.3530 -0.9485
 6811TIP3    H141848   4.490   6.079  13.698  1.1911  0.4832  1.7070
 6811TIP3    H241849   4.530   6.190  13.603  1.6081 -0.7045  0.4422
 6812TIP3   OH241850   0.904   1.782   3.837 -0.1843 -0.0270 -0.5056
 6812TIP3    H141851   0.840   1.831   3.888  1.2931  0.5662  0.8886
 6812TIP3    H241852   0.926   1.839   3.764  1.0132  1.1700  0.7321
 6813TIP3   OH241853   2.763   3.505   6.732 -0.8285 -0.0303 -0.0218
 6813TIP3    H141854   2.668   3.494   6.739 -0.9072 -0.7370 -1.6689
 6813TIP3    H241855   2.774   3.567   6.660 -0.0413  0.4606  0.5117
 6814TIP3   OH241856   4.570   2.302  16.314  0.2593 -0.2935  0.0388
 6814TIP3    H141857   4.577   2.246  16.391  1.7498 -1.4527 -0.9002
 6814TIP3    H241858   4.658   2.305  16.278  0.4182  3.2710  0.4174
 6815TIP3   OH241859   5.578   2.561  17.013 -0.2328  0.0534  0.5259
 6815TIP3    H141860   5.660   2.592  17.052 -0.3559  1.1781 -0.0669
 6815TIP3    H241861   5.588   2.578  16.920 -1.2810  0.5528  0.4968
 6816TIP3   OH241862   6.718   6.723   4.809 -0.1184 -0.2417 -0.3310
 6816TIP3    H141863   6.633   6.687   4.784 -0.1439  0.6966 -1.7196
 6816TIP3    H241864   6.704   6.758   4.897 -0.7245 -1.4738  0.0854
 6817TIP3   OH241865   4.719   2.918  16.863 -0.4411  0.1078  0.3368
 6817TIP3    H141866   4.635   2.961  16.844  0.4310  1.6635 -0.1887
 6817TIP3    H241867   4.721   2.843  16.803 -0.2189  1.7289 -1.7977
 6818TIP3   OH241868   3.917   1.468  15.874 -0.1880  0.0243  0.3435
 6818TIP3    H141869   3.887   1.551  15.910  0.6704  1.2418 -1.5595
 6818TIP3    H241870   4.003   1.454  15.914  0.5154  1.0800 -0.7109
 6819TIP3   OH241871   3.731   6.093   0.469  0.2989 -0.4203 -0.4603
 6819TIP3    H141872   3.810   6.064   0.515 -1.1311  0.0502  2.5934
 6819TIP3    H241873   3.730   6.188   0.482 -0.8178 -0.4400 -0.3407
 6820TIP3   OH241874   1.192   1.278  16.494 -0.0493 -0.3889 -0.3074
 6820TIP3    H141875   1.240   1.278  16.577  0.3250  0.4548 -0.5075
 6820TIP3    H241876   1.100   1.269  16.519  0.2279 -2.7852  0.0469
 6821TIP3   OH241877   3.215   2.953  12.497  0.7514  0.6725 -0.0952
 6821TIP3    H141878   3.161   2.906  12.560  0.1870  0.5016 -0.6922
 6821TIP3    H241879   3.304   2.923  12.514  0.4244 -0.4933 -0.3558
 6822TIP3   OH241880   6.221   0.064  15.938  0.0109  0.3403  0.4946
 6822TIP3    H141881   6.222  -0.029  15.956 -1.3679  0.2337  0.1209
 6822TIP3    H241882   6.243   0.106  16.021  0.0271 -0.3057  0.8149
 6823TIP3   OH241883   0.980   5.434   0.419 -0.9020  0.0758 -0.6262
 6823TIP3    H141884   0.899   5.387   0.399 -1.8122  0.5214  1.6537
 6823TIP3    H241885   1.050   5.371   0.403 -1.7101 -0.4528 -2.2191
 6824TIP3   OH241886   4.163   3.771  12.095 -0.0198 -0.2237  0.8339
 6824TIP3    H141887   4.259   3.764  12.100 -0.1486 -1.3890  3.1490
 6824TIP3    H241888   4.132   3.685  12.122 -1.7600  0.2808  0.5481
 6825TIP3   OH241889   6.794   5.691   3.421 -1.0289 -0.7840 -0.4956
 6825TIP3    H141890   6.725   5.653   3.474  0.1087  1.0888  2.5587
 6825TIP3    H241891   6.852   5.617   3.401  0.2455 -1.2305  3.8197
 6826TIP3   OH241892   1.880   0.603  14.201  0.0926 -0.1119  0.1020
 6826TIP3    H141893   1.889   0.571  14.291  0.5842  1.8410  0.7867
 6826TIP3    H241894   1.791   0.637  14.196  1.1375  3.1495  1.0965
 6827TIP3   OH241895   0.109   1.146  12.639 -0.5446  0.6843 -0.2252
 6827TIP3    H141896   0.059   1.065  12.638 -0.1660  0.4134 -2.0654
 6827TIP3    H241897   0.059   1.206  12.585 -0.0758  1.1790 -0.1212
 6828TIP3   OH241898   1.901   0.449  14.437  0.0406  0.0653 -0.1034
 6828TIP3    H141899   1.995   0.446  14.453 -0.0994  1.3087  1.1513
 6828TIP3    H241900   1.865   0.375  14.486  0.1251  1.1124  1.6190
 6829TIP3   OH241901   5.649   5.557  14.688  0.2597  0.1312 -0.0007
 6829TIP3    H141902   5.582   5.504  14.731  0.2807  0.3952  0.3624
 6829TIP3    H241903   5.631   5.647  14.717  0.7039  0.2163  0.0204
 6830TIP3   OH241904   3.613   1.042   4.924 -0.0424  0.0655  0.0456
 6830TIP3    H141905   3.642   1.066   4.837  0.6379  0.2606  0.3208
 6830TIP3    H241906   3.641   1.114   4.980  0.6831 -0.6487  0.6320
 6831TIP3   OH241907   2.822   2.365   1.818  0.0638  0.3823 -0.2163
 6831TIP3    H141908   2.826   2.444   1.871  1.8273  0.2750 -0.1455
 6831TIP3    H241909   2.807   2.295   1.882 -1.8851  0.6574 -0.3179
 6832TIP3   OH241910   6.397   4.118  16.860  0.0477 -0.1828 -0.2978
 6832TIP3    H141911   6.367   4.155  16.777 -0.2958  2.1282  0.7593
 6832TIP3    H241912   6.488   4.147  16.868 -0.2214  0.4987  0.5473
 6833TIP3   OH241913   5.082   3.977  12.570 -0.3379 -0.0636 -0.1493
 6833TIP3    H141914   5.062   4.065  12.604  1.5090  0.4047 -0.1696
 6833TIP3    H241915   5.048   3.978  12.481  0.3228  0.9364 -0.4127
 6834TIP3   OH241916   0.383   1.240  16.155 -0.4448 -0.1042 -0.4748
 6834TIP3    H141917   0.396   1.301  16.083 -2.3544  1.4223  0.3522
 6834TIP3    H241918   0.358   1.157  16.114 -3.5176  1.2594 -1.6611
 6835TIP3   OH241919   5.416   5.298   1.041  0.7709  0.3423  0.1772
 6835TIP3    H141920   5.455   5.343   0.966  0.4227 -0.5510 -0.5595
 6835TIP3    H241921   5.460   5.337   1.117  2.4269  0.0215 -0.5651
 6836TIP3   OH241922   2.623   1.324   2.222  0.0621  0.0062  0.2242
 6836TIP3    H141923   2.717   1.311   2.235  0.2724  1.9313  0.8658
 6836TIP3    H241924   2.614   1.416   2.199 -1.7758  0.1425  1.2834
 6837TIP3   OH241925   3.583   3.319  12.415 -0.0830 -0.4531  0.0744
 6837TIP3    H141926   3.533   3.251  12.370 -0.6742  0.7165 -1.0952
 6837TIP3    H241927   3.634   3.271  12.481 -1.8712 -1.8196  0.5659
 6838TIP3   OH241928   6.449   6.605   2.874 -0.4343 -0.3884  0.4378
 6838TIP3    H141929   6.505   6.539   2.916  0.9837  0.0338 -0.7392
 6838TIP3    H241930   6.464   6.593   2.780 -1.4255  0.5265  0.1514
 6839TIP3   OH241931   3.415   0.010  13.347  0.4339  0.3901  0.4913
 6839TIP3    H141932   3.471  -0.066  13.363  1.3626  1.0747  0.5502
 6839TIP3    H241933   3.326  -0.024  13.356  0.7998 -0.9218 -0.5206
 6840TIP3   OH241934   0.758   0.105   2.780  0.1246  0.0240 -0.1082
 6840TIP3    H141935   0.751   0.160   2.858  1.9385 -2.6437  2.1250
 6840TIP3    H241936   0.851   0.109   2.757 -0.2410  0.0728 -1.6449
 6841TIP3   OH241937   5.969   0.101   0.820  0.1554 -0.0219  0.2018
 6841TIP3    H141938   5.887   0.074   0.861 -0.3541  1.8766  0.5396
 6841TIP3    H241939   5.942   0.160   0.750  1.1371 -1.4397 -1.4585
 6842TIP3   OH241940   2.568   0.779   5.795 -0.2986  0.5941 -0.2908
 6842TIP3    H141941   2.621   0.840   5.744  1.1818  1.5151  2.1510
 6842TIP3    H241942   2.606   0.693   5.777 -0.2039  0.8124 -1.1726
 6843TIP3   OH241943   5.959   4.162  15.937  0.2527 -0.2691  0.2750
 6843TIP3    H141944   6.040   4.189  15.895  0.0606  0.9677  0.6724
 6843TIP3    H241945   5.890   4.192  15.877 -0.0481  1.9176  1.6098
 6844TIP3   OH241946   6.700   1.759   5.029  0.1331  0.4284 -0.4872
 6844TIP3    H141947   6.722   1.852   5.017  0.0402  0.6215  0.7144
 6844TIP3    H241948   6.643   1.758   5.106 -0.8484 -0.5012 -1.2113
 6845TIP3   OH241949   1.909   6.256  13.502 -0.3535 -0.1308  0.0877
 6845TIP3    H141950   1.922   6.205  13.582 -0.9855 -2.8966 -1.4615
 6845TIP3    H241951   1.850   6.326  13.528  0.9053  0.1874  2.4131
 6846TIP3   OH241952   2.473   1.243   3.533 -0.3842 -0.5524  0.4717
 6846TIP3    H141953   2.416   1.312   3.498 -0.4213 -0.5137  0.6080
 6846TIP3    H241954   2.414   1.187   3.584 -1.2991 -3.1925 -3.0529
 6847TIP3   OH241955   1.652   0.054   2.168 -0.0373 -0.2378  0.1365
 6847TIP3    H141956   1.592   0.103   2.112 -0.7541 -0.0766  1.0167
 6847TIP3    H241957   1.696   0.120   2.221  1.2738 -0.3126 -0.7870
 6848TIP3   OH241958   4.985   0.140   1.162 -0.5352  0.2804 -0.8734
 6848TIP3    H141959   4.906   0.090   1.141 -0.9014  0.3180  0.3384
 6848TIP3    H241960   5.042   0.077   1.206  0.3213  0.1376 -2.1228
 6849TIP3   OH241961   0.445   3.992  15.217  0.2545  0.3064 -0.6621
 6849TIP3    H141962   0.448   4.014  15.310 -0.6080 -2.0609 -0.0098
 6849TIP3    H241963   0.536   3.983  15.191  0.5538  2.2533 -0.4230
 6850TIP3   OH241964   4.513   3.416   0.924  0.0441 -0.1037 -0.1958
 6850TIP3    H141965   4.422   3.440   0.940 -0.8321 -1.5667 -2.4712
 6850TIP3    H241966   4.548   3.394   1.010 -1.9714 -0.2054  0.6355
 6851TIP3   OH241967   5.014   3.081  11.184 -0.0256 -0.5321  0.8099
 6851TIP3    H141968   4.973   3.071  11.098  0.4286 -0.5932  0.5960
 6851TIP3    H241969   4.950   3.129  11.236  0.1505  0.5505  0.0790
 6852TIP3   OH241970   3.189   1.970  14.055  0.1863  0.0016 -0.7133
 6852TIP3    H141971   3.145   1.947  13.973  1.1099  1.1600 -1.5547
 6852TIP3    H241972   3.279   1.938  14.043  0.9194  2.0885 -1.0577
 6853TIP3   OH241973   5.680   0.640   3.384 -0.6749  0.9449  0.3189
 6853TIP3    H141974   5.652   0.730   3.401 -1.8688  0.8139 -0.7710
 6853TIP3    H241975   5.602   0.587   3.400  0.0071  0.0994  0.9142
 6854TIP3   OH241976   6.324   5.453  13.877 -0.2485  0.3738 -0.1605
 6854TIP3    H141977   6.411   5.482  13.850 -0.4571  1.5721  0.4083
 6854TIP3    H241978   6.264   5.517  13.839 -1.0142 -1.0507 -1.4821
 6855TIP3   OH241979   2.140   0.055  10.563 -0.0174  0.2531  0.1029
 6855TIP3    H141980   2.133   0.106  10.482 -0.0576 -0.1006 -0.1205
 6855TIP3    H241981   2.229   0.019  10.560 -0.2089 -0.2098 -0.0563
 6856TIP3   OH241982   4.020   5.381  12.476  0.1808  0.2087  0.6640
 6856TIP3    H141983   4.013   5.287  12.491  2.0732 -0.7434 -3.1133
 6856TIP3    H241984   4.089   5.410  12.536  1.9615 -1.5869 -0.4046
 6857TIP3   OH241985   0.468   5.158   3.928  0.1358  0.5030 -0.0477
 6857TIP3    H141986   0.394   5.152   3.989  0.9736  2.0141  1.2025
 6857TIP3    H241987   0.462   5.247   3.893  0.6992  0.2338 -0.8418
 6858TIP3   OH241988   5.673   0.511   3.137  0.5410 -0.2143 -0.0719
 6858TIP3    H141989   5.686   0.573   3.209 -0.1881 -1.0342  0.7926
 6858TIP3    H241990   5.713   0.430   3.168  0.6526 -0.4499 -0.8041
 6859TIP3   OH241991   3.964   0.672   5.231 -0.1417 -0.1842 -0.2366
 6859TIP3    H141992   3.971   0.577   5.221  1.5157 -0.2035  0.8419
 6859TIP3    H241993   3.963   0.686   5.325  0.0335  0.9062 -0.3912
 6860TIP3   OH241994   1.739   1.967   3.920  0.1061  0.4471  0.1248
 6860TIP3    H141995   1.787   1.968   4.003  0.9561  1.0381 -0.3556
 6860TIP3    H241996   1.723   2.060   3.901 -0.5979  0.2885 -0.0872
 6861TIP3   OH241997   3.714   2.442  15.645 -0.4509  0.1673  0.1228
 6861TIP3    H141998   3.679   2.496  15.716 -1.0678 -1.1033  0.8150
 6861TIP3    H241999   3.645   2.443  15.578 -0.9277 -0.5901  0.5825
 6862TIP3   OH242000   2.286   3.363   4.236  0.0172  0.4067  0.1468
 6862TIP3    H142001   2.339   3.288   4.265  0.0679  1.2742  2.4565
 6862TIP3    H242002   2.350   3.424   4.198 -0.0657 -0.7851 -2.0911
 6863TIP3   OH242003   4.969   0.357   2.955  0.4513 -0.1895  0.0420
 6863TIP3    H142004   4.991   0.389   2.868  1.4618 -0.2094  0.2844
 6863TIP3    H242005   5.011   0.271   2.961  0.5446 -0.1091  0.6150
 6864TIP3   OH242006   3.107   2.509  15.622  0.4080  0.5528 -0.1875
 6864TIP3    H142007   3.033   2.515  15.682  1.6039  0.6283  1.3531
 6864TIP3    H242008   3.134   2.418  15.624  0.4090  0.5373 -0.6829
 6865TIP3   OH242009   2.051   4.332   1.811 -0.0182  0.1727 -0.2739
 6865TIP3    H142010   2.023   4.309   1.722 -1.9132  0.8642  0.0833
 6865TIP3    H242011   2.135   4.375   1.799  1.3423 -2.5409 -1.3955
 6866TIP3   OH242012   1.573   4.546   4.124 -0.0331 -0.3441 -0.3515
 6866TIP3    H142013   1.569   4.454   4.097 -1.2227 -0.8066  1.2639
 6866TIP3    H242014   1.483   4.568   4.146  0.7719 -0.0466  3.2096
 6867TIP3   OH242015   1.615   2.614   0.273 -0.2040  0.2799  0.3928
 6867TIP3    H142016   1.525   2.584   0.260 -0.9637  1.6550  2.0963
 6867TIP3    H242017   1.624   2.689   0.214  0.3396 -0.7171 -0.8364
 6868TIP3   OH242018   0.565   1.478  14.047  0.6926 -0.0174 -0.6644
 6868TIP3    H142019   0.505   1.405  14.041 -0.9505  1.2097  0.0791
 6868TIP3    H242020   0.514   1.554  14.019  1.2299  1.3743  1.8387
 6869TIP3   OH242021   3.295   6.221  15.260 -0.0292 -0.8338 -0.6969
 6869TIP3    H142022   3.236   6.272  15.205 -1.6865 -0.3066  1.4340
 6869TIP3    H242023   3.380   6.263  15.249 -0.5106 -0.1685 -2.0811
 6870TIP3   OH242024   4.377   5.697   3.297  0.0626  0.2862 -0.2438
 6870TIP3    H142025   4.318   5.763   3.259 -2.0452 -0.0368  2.1486
 6870TIP3    H242026   4.328   5.615   3.291  2.2930 -0.9869 -2.3988
 6871TIP3   OH242027   5.634   5.034  15.642 -0.0577  0.5982 -0.1847
 6871TIP3    H142028   5.716   5.061  15.683 -0.6996  1.3125  0.6571
 6871TIP3    H242029   5.566   5.063  15.703 -0.9367  0.0023 -0.8642
 6872TIP3   OH242030   3.539   3.790   3.126  0.6158  0.1386 -0.1950
 6872TIP3    H142031   3.625   3.752   3.143  1.2671  1.2593 -0.9025
 6872TIP3    H242032   3.521   3.843   3.203  0.7678  0.2792 -0.2568
 6873TIP3   OH242033   6.597   6.438   3.486  0.1438  0.2167  0.1192
 6873TIP3    H142034   6.544   6.422   3.408 -0.2565 -2.3721  0.8191
 6873TIP3    H242035   6.602   6.533   3.493  0.3258  0.5600 -3.1236
 6874TIP3   OH242036   1.642   2.935  15.879 -0.4203 -0.0669  0.2165
 6874TIP3    H142037   1.672   2.887  15.956 -0.1172 -3.7168 -1.9095
 6874TIP3    H242038   1.573   2.879  15.842 -1.8377  2.4434 -1.1932
 6875TIP3   OH242039   0.974   1.160   3.818 -0.4528  0.3043  0.1207
 6875TIP3    H142040   0.933   1.233   3.773 -0.2243 -0.0163 -0.6236
 6875TIP3    H242041   0.925   1.083   3.788 -0.7261  0.1486  0.9314
 6876TIP3   OH242042   0.221   0.031   0.035 -0.1283 -0.2344 -0.1013
 6876TIP3    H142043   0.202  -0.007   0.121  0.8363  0.0986  0.2715
 6876TIP3    H242044   0.308  -0.002   0.013  0.1594  0.6860 -0.3743
 6877TIP3   OH242045   0.764   1.596  11.125 -0.0741  0.4795  0.2970
 6877TIP3    H142046   0.744   1.564  11.037  1.4110  0.3026 -0.0165
 6877TIP3    H242047   0.695   1.659  11.144 -2.4983 -2.0700  0.4999
 6878TIP3   OH242048   5.004   2.556  13.469 -0.2136  0.4790 -0.4263
 6878TIP3    H142049   5.037   2.486  13.526 -0.7254  0.6782  0.1249
 6878TIP3    H242050   5.071   2.565  13.401 -0.1583 -0.5616 -0.5204
 6879TIP3   OH242051   6.379   3.389  12.642 -0.1915  0.3347  0.4534
 6879TIP3    H142052   6.457   3.399  12.697 -1.4454  1.7262  2.0762
 6879TIP3    H242053   6.320   3.334  12.693 -1.2535  1.3900  0.4200
 6880TIP3   OH242054   4.333   1.963   4.465  0.4873  0.1478  0.6444
 6880TIP3    H142055   4.288   1.973   4.381 -2.3543  0.5525  2.0779
 6880TIP3    H242056   4.337   2.052   4.501 -0.8346 -0.3065  2.0483
 6881TIP3   OH242057   3.557   4.776  11.702 -0.2251  0.4079  0.9168
 6881TIP3    H142058   3.607   4.800  11.624  0.9452 -0.0645  1.4994
 6881TIP3    H242059   3.530   4.685  11.686 -0.5721  0.5356  0.7706
 6882TIP3   OH242060   6.634   1.656   4.350 -0.0206 -0.5696  0.2256
 6882TIP3    H142061   6.598   1.656   4.438  0.6386  0.5102  0.5102
 6882TIP3    H242062   6.728   1.669   4.362  0.1347 -0.8483 -0.6193
 6883TIP3   OH242063   6.351   4.957   3.278 -0.3396 -0.2889  0.6022
 6883TIP3    H142064   6.405   4.879   3.294  0.3980  0.1318  0.2124
 6883TIP3    H242065   6.302   4.968   3.360  0.0276 -0.7848  0.8998
 6884TIP3   OH242066   4.771   2.902   0.787  0.1835  0.4171  0.4288
 6884TIP3    H142067   4.793   2.829   0.729 -0.8118 -0.4633  1.1459
 6884TIP3    H242068   4.843   2.964   0.774  0.3669 -0.0790 -1.1918
 6885TIP3   OH242069   0.484   1.423   2.884  0.4787 -0.5118  0.2278
 6885TIP3    H142070   0.498   1.350   2.945 -1.5984 -0.6719  0.5842
 6885TIP3    H242071   0.464   1.498   2.941  0.7899 -0.0944 -0.2010
 6886TIP3   OH242072   1.923   4.920   2.135  0.1892  0.6915 -0.2322
 6886TIP3    H142073   1.851   4.882   2.085  0.2112 -0.0860  0.3033
 6886TIP3    H242074   1.964   4.982   2.075 -0.4649  0.5943 -0.7941
 6887TIP3   OH242075   0.714   0.490   0.698  0.7955  0.8619 -0.6589
 6887TIP3    H142076   0.734   0.420   0.760  0.8476 -1.0441 -2.7015
 6887TIP3    H242077   0.627   0.520   0.724  0.0453 -1.1368 -0.7205
 6888TIP3   OH242078   3.861   6.655  15.750  0.0811  0.3343  0.0775
 6888TIP3    H142079   3.815   6.648  15.833 -0.2868 -1.4411 -0.2427
 6888TIP3    H242080   3.919   6.579  15.747  1.7107  1.5265 -0.3536
 6889TIP3   OH242081   1.345   5.129  12.694  0.1206 -0.3205  0.3661
 6889TIP3    H142082   1.257   5.132  12.731  0.3656 -1.8928  1.1873
 6889TIP3    H242083   1.395   5.073  12.755  1.0841 -1.2892 -1.2346
 6890TIP3   OH242084   5.003   1.947   5.732  0.1362  0.0294 -0.4651
 6890TIP3    H142085   4.982   1.960   5.825  3.5691 -1.3571  0.6492
 6890TIP3    H242086   5.023   2.034   5.699  1.1410  0.2929  0.7764
 6891TIP3   OH242087   2.563   5.255   1.583 -0.1502 -0.0862  0.3613
 6891TIP3    H142088   2.591   5.341   1.614  1.0480 -1.0785  2.1808
 6891TIP3    H242089   2.473   5.270   1.551  0.3451  1.9959 -0.2683
 6892TIP3   OH242090   3.623   1.330   0.750 -1.0481  0.2276 -0.5855
 6892TIP3    H142091   3.635   1.289   0.664 -0.5486  0.2355 -0.5171
 6892TIP3    H242092   3.693   1.394   0.756 -0.0257 -0.9635  0.5527
 6893TIP3   OH242093   5.911   3.701   2.376  0.1699  0.5434  0.2801
 6893TIP3    H142094   5.895   3.669   2.287 -1.6932  0.1765  0.7018
 6893TIP3    H242095   5.946   3.789   2.364  1.3296 -0.0311 -0.8162
 6894TIP3   OH242096   4.403   5.468   2.586 -0.0097 -0.6039  0.2132
 6894TIP3    H142097   4.467   5.400   2.566 -2.7700 -3.5737  0.7062
 6894TIP3    H242098   4.455   5.539   2.625  3.5020 -0.8200 -3.3806
 6895TIP3   OH242099   4.960   5.081  10.982  0.0861  0.0163 -0.1600
 6895TIP3    H142100   4.989   5.038  11.062  0.0605 -0.4917 -0.4178
 6895TIP3    H242101   4.877   5.038  10.961 -0.6849  1.1748  0.3541
 6896TIP3   OH242102   4.516   4.190  16.059  0.1046  0.0938 -0.4833
 6896TIP3    H142103   4.476   4.103  16.051 -2.7174  1.2406  0.0220
 6896TIP3    H242104   4.528   4.219  15.969 -1.8872  0.3696 -0.7021
 6897TIP3   OH242105   1.651   3.659  13.545 -0.0691  0.5664 -0.2245
 6897TIP3    H142106   1.561   3.691  13.540 -0.1821  0.0935 -1.6178
 6897TIP3    H242107   1.690   3.708  13.617 -1.1660  1.4653 -0.2174
 6898TIP3   OH242108   0.965   6.742  15.315  0.0415  0.0372  0.1549
 6898TIP3    H142109   0.872   6.752  15.295  0.4801  1.4310 -1.4389
 6898TIP3    H242110   0.999   6.832  15.316  1.5109 -0.4934 -0.0450
 6899TIP3   OH242111   0.322   0.276  16.854 -0.5593  0.2556  0.2967
 6899TIP3    H142112   0.412   0.248  16.875 -0.5546 -0.6541 -0.8360
 6899TIP3    H242113   0.298   0.334  16.927  1.1548  1.0064  0.3276
 6900TIP3   OH242114   6.369   1.093  14.989 -0.1211 -0.0047  0.0463
 6900TIP3    H142115   6.280   1.118  14.966  0.4712  1.7103 -0.5307
 6900TIP3    H242116   6.421   1.173  14.978  1.2002 -0.4842  2.0335
 6901TIP3   OH242117   5.117   6.445  13.121  0.6574  0.3625  0.3968
 6901TIP3    H142118   5.101   6.525  13.172  0.6198  0.2850  0.5046
 6901TIP3    H242119   5.212   6.437  13.119  0.6498  0.2336  0.6530
 6902TIP3   OH242120   2.562   2.141   3.596  0.1801 -0.3091  0.2221
 6902TIP3    H142121   2.527   2.055   3.621 -1.1457  0.0631 -0.2655
 6902TIP3    H242122   2.517   2.162   3.514  1.8398  0.0617 -0.6488
 6903TIP3   OH242123   0.482   5.742  15.126 -0.1479  0.1845  0.5656
 6903TIP3    H142124   0.532   5.746  15.207  1.4150 -0.6395 -0.3107
 6903TIP3    H242125   0.522   5.809  15.070 -0.0337 -0.4475 -0.1260
 6904TIP3   OH242126   5.273   0.635   2.439  0.7513  0.1001 -0.4895
 6904TIP3    H142127   5.349   0.578   2.452 -1.1430 -2.2351  1.4168
 6904TIP3    H242128   5.211   0.581   2.389  0.1124  1.7443 -1.5509
 6905TIP3   OH242129   2.652   2.047  14.245  0.3728 -0.1594 -0.3385
 6905TIP3    H142130   2.732   2.060  14.295  0.6643  1.2305 -1.1119
 6905TIP3    H242131   2.626   2.135  14.219 -1.7240 -0.5192  0.3610
 6906TIP3   OH242132   2.894   2.112  14.350  0.2416  0.0064  0.7886
 6906TIP3    H142133   2.968   2.051  14.354 -0.3448 -0.7783  0.2296
 6906TIP3    H242134   2.933   2.199  14.360  1.3098 -0.3517 -0.0657
 6907TIP3   OH242135   0.304   2.779  13.536  0.1236  0.1033 -0.2594
 6907TIP3    H142136   0.221   2.814  13.505 -0.7868 -1.0592  0.7688
 6907TIP3    H242137   0.359   2.856  13.548 -2.0686  1.3918  2.7662
 6908TIP3   OH242138   3.715   6.293  11.537 -0.6518  0.0839 -0.1183
 6908TIP3    H142139   3.792   6.243  11.511 -0.1300  1.3121 -1.0030
 6908TIP3    H242140   3.641   6.237  11.513 -0.0670 -0.5129 -0.5504
 6909TIP3   OH242141   5.883   0.833  15.207 -0.3984 -0.2462 -0.0442
 6909TIP3    H142142   5.879   0.891  15.131  0.4199 -0.6862 -0.4370
 6909TIP3    H242143   5.809   0.860  15.262  0.1628  1.4048 -0.0465
 6910TIP3   OH242144   0.144   0.859   1.958 -0.1489 -0.0109 -0.3928
 6910TIP3    H142145   0.161   0.847   1.864  0.5005 -0.7041 -0.1910
 6910TIP3    H242146   0.202   0.930   1.984  0.3634 -0.4595 -0.3118
 6911TIP3   OH242147   0.591   3.680  13.211  0.0392  0.3489  0.0151
 6911TIP3    H142148   0.503   3.685  13.249  0.1546 -1.9079  0.7249
 6911TIP3    H242149   0.577   3.659  13.119 -0.1998 -1.8157  0.5040
 6912TIP3   OH242150   4.615   3.847   2.407  0.4652 -0.2720  0.4718
 6912TIP3    H142151   4.708   3.826   2.400  0.2174 -1.0254 -0.9648
 6912TIP3    H242152   4.613   3.932   2.449  1.8665  0.2010 -0.3377
 6913TIP3   OH242153   0.657   6.236  16.194  0.2423  0.5322  0.1593
 6913TIP3    H142154   0.671   6.290  16.117  1.1016  1.2639  0.7985
 6913TIP3    H242155   0.732   6.256  16.251  1.6116 -2.6555 -0.2945
 6914TIP3   OH242156   5.605   4.122   2.134  0.0613 -0.0316 -0.6664
 6914TIP3    H142157   5.595   4.124   2.229  3.0526  1.4302 -0.2520
 6914TIP3    H242158   5.547   4.191   2.103  1.4020  1.6939  0.4816
 6915TIP3   OH242159   6.157   6.351  15.991 -0.2076 -0.4877  0.0925
 6915TIP3    H142160   6.234   6.314  15.948 -0.3964  1.3353 -1.9835
 6915TIP3    H242161   6.085   6.331  15.931 -0.9300 -0.0149  0.7874
 6916TIP3   OH242162   0.291   0.468   2.789 -0.0041 -0.1853 -0.4437
 6916TIP3    H142163   0.269   0.419   2.868 -0.9481 -0.1836 -0.6945
 6916TIP3    H242164   0.222   0.445   2.727  1.1046 -0.7461 -1.5193
 6917TIP3   OH242165   3.953   5.409  13.812 -0.0915 -0.0162 -0.7345
 6917TIP3    H142166   3.897   5.374  13.882 -0.6217 -0.1084 -1.1962
 6917TIP3    H242167   3.952   5.342  13.744  1.0234 -0.2505 -0.5254
 6918TIP3   OH242168   4.635   2.225   4.613 -0.2804  0.1237 -0.0468
 6918TIP3    H142169   4.559   2.192   4.662 -0.9515  0.8740 -0.5441
 6918TIP3    H242170   4.620   2.195   4.524 -0.3505  0.8297 -0.2837
 6919TIP3   OH242171   1.087   0.918  12.583  0.0851 -0.3165 -0.2787
 6919TIP3    H142172   1.118   0.871  12.660  0.0182 -0.6923 -0.4751
 6919TIP3    H242173   1.166   0.943  12.535  0.1054 -0.7977 -0.5023
 6920TIP3   OH242174   3.773   3.311  11.042 -0.5522  0.2460 -0.1676
 6920TIP3    H142175   3.855   3.269  11.017 -0.8855 -0.8686  0.5296
 6920TIP3    H242176   3.730   3.329  10.958  0.9726  2.1432 -0.6153
 6921TIP3   OH242177   5.661   6.057  11.207 -0.1730  0.3075 -0.1074
 6921TIP3    H142178   5.594   5.996  11.175  1.8951 -0.9565 -2.2946
 6921TIP3    H242179   5.737   6.002  11.225  1.1279  2.0133 -0.1831
 6922TIP3   OH242180   0.968   6.234   5.216 -0.8190 -0.0581 -0.1608
 6922TIP3    H142181   0.987   6.158   5.161  1.3740 -1.5713  2.4613
 6922TIP3    H242182   0.922   6.199   5.292 -0.6249  1.3834  0.6632
 6923TIP3   OH242183   0.360   5.133   4.765 -0.0460  0.2897  0.3652
 6923TIP3    H142184   0.331   5.085   4.687  0.3303  1.0042 -0.2268
 6923TIP3    H242185   0.448   5.098   4.782 -0.4986 -0.5598  1.0651
 6924TIP3   OH242186   2.645   3.832  12.749 -0.5559  0.3465 -0.1782
 6924TIP3    H142187   2.688   3.779  12.816 -1.0157  0.7020  0.4087
 6924TIP3    H242188   2.716   3.866  12.696 -0.1994 -0.1112 -0.0027
 6925TIP3   OH242189   4.669   0.897  15.854  0.0418  0.4081  0.4210
 6925TIP3    H142190   4.749   0.862  15.894 -1.0246 -0.0041  2.3523
 6925TIP3    H242191   4.665   0.987  15.886  1.1550  1.4042 -2.0036
 6926TIP3   OH242192   4.801   3.037   0.379 -0.0361 -0.0823  0.4188
 6926TIP3    H142193   4.867   2.993   0.325 -1.0882 -2.1998  0.7560
 6926TIP3    H242194   4.846   3.053   0.462 -0.1828 -2.6383  1.0905
 6927TIP3   OH242195   6.263   1.314  15.482  0.2374 -0.2648 -0.7368
 6927TIP3    H142196   6.265   1.243  15.418  2.1645 -0.6966 -0.2501
 6927TIP3    H242197   6.274   1.270  15.566  0.0511  0.5032 -0.3026
 6928TIP3   OH242198   3.004   1.573  15.336  0.0437 -0.0537  0.6058
 6928TIP3    H142199   2.924   1.625  15.331  1.3810  2.1712  0.9885
 6928TIP3    H242200   3.073   1.633  15.307  1.6033 -1.8278  0.5048
 6929TIP3   OH242201   2.436   0.552  14.171 -0.1634  0.1639 -0.0193
 6929TIP3    H142202   2.439   0.628  14.114 -0.4224 -0.4150 -0.8326
 6929TIP3    H242203   2.474   0.581  14.253  2.8693  0.3010 -1.3387
 6930TIP3   OH242204   2.275   4.664  13.024 -0.4174  0.2502  0.5432
 6930TIP3    H142205   2.270   4.755  12.997 -1.7393  0.6759  2.0203
 6930TIP3    H242206   2.183   4.637  13.032 -0.0524 -1.3557 -0.2758
 6931TIP3   OH242207   5.685   2.796  16.218  0.3539 -0.1258 -0.0122
 6931TIP3    H142208   5.595   2.766  16.204  0.1552  0.7729 -0.7261
 6931TIP3    H242209   5.698   2.864  16.153  1.2240  0.4541  0.7455
 6932TIP3   OH242210   2.803   5.662  14.898 -0.2593 -0.4825  0.0438
 6932TIP3    H142211   2.775   5.729  14.961  0.3657  0.1700 -0.3518
 6932TIP3    H242212   2.817   5.584  14.950  2.0245  0.5205  1.0455
 6933TIP3   OH242213   5.012   4.010  11.211  0.0712 -0.3901 -0.1387
 6933TIP3    H142214   5.074   3.939  11.230  1.1370 -0.2466 -2.6517
 6933TIP3    H242215   4.972   3.984  11.128 -0.2648  1.4661 -0.5871
 6934TIP3   OH242216   5.067   2.100  14.118 -0.3183 -0.3370  0.5720
 6934TIP3    H142217   5.130   2.170  14.134 -0.5883 -0.3297  1.6368
 6934TIP3    H242218   5.001   2.141  14.061  0.4363 -0.2497 -0.2707
 6935TIP3   OH242219   6.650   6.798   5.768 -0.0905 -0.0839  0.1003
 6935TIP3    H142220   6.667   6.704   5.764 -1.9629 -0.4055 -1.8183
 6935TIP3    H242221   6.557   6.805   5.791  0.0211  1.3103  0.2481
 6936TIP3   OH242222   3.460   2.922  15.257  0.0055 -0.1781  0.2625
 6936TIP3    H142223   3.544   2.927  15.212 -0.7218 -0.1658 -1.1253
 6936TIP3    H242224   3.432   2.831  15.247 -0.3575 -0.0802  0.3378
 6937TIP3   OH242225   2.008   4.019  14.533  0.2341  0.4393  0.5988
 6937TIP3    H142226   2.074   4.088  14.530  3.0926 -2.0805  1.4191
 6937TIP3    H242227   1.993   4.004  14.627  0.0990 -0.4593  0.4405
 6938TIP3   OH242228   6.078   0.336  13.551 -0.2375  0.2465  1.1923
 6938TIP3    H142229   6.134   0.321  13.626  0.7661 -0.7198  0.2856
 6938TIP3    H242230   6.121   0.290  13.479 -1.8088  0.0909  0.2985
 6939TIP3   OH242231   2.947   1.950  15.937  0.6491  0.2748 -0.1147
 6939TIP3    H142232   3.039   1.978  15.936  0.6106  0.4611  0.8491
 6939TIP3    H242233   2.898   2.030  15.918  0.7047  0.0075 -1.4958
 6940TIP3   OH242234   5.831   3.111  15.281  0.2310  0.8267  0.3608
 6940TIP3    H142235   5.838   3.192  15.331 -1.1731  1.9442 -1.1736
 6940TIP3    H242236   5.741   3.109  15.250  1.7336  2.0414 -4.9698
 6941TIP3   OH242237   6.595   5.270   1.658 -0.7530  0.2510  0.3809
 6941TIP3    H142238   6.656   5.326   1.610  0.8473  2.2121  4.2723
 6941TIP3    H242239   6.633   5.183   1.654 -0.3030  0.4873 -1.1926
 6942TIP3   OH242240   6.182   6.299   4.428  0.6866  0.2399  0.2972
 6942TIP3    H142241   6.141   6.385   4.432 -0.6782 -0.1227 -2.8750
 6942TIP3    H242242   6.125   6.243   4.481 -0.2439  0.6801 -0.2156
 6943TIP3   OH242243   1.358   5.381   2.695  0.2624 -0.0824 -0.4832
 6943TIP3    H142244   1.277   5.347   2.657  0.2563  0.0888 -0.6297
 6943TIP3    H242245   1.339   5.393   2.788  0.1349 -0.0888 -0.5090
 6944TIP3   OH242246   2.364   3.675  15.263 -0.2243  0.4205  0.1905
 6944TIP3    H142247   2.413   3.748  15.301 -0.1685  0.8481 -0.6947
 6944TIP3    H242248   2.430   3.625  15.214  0.0738 -1.1419  2.0537
 6945TIP3   OH242249   1.789   6.168   1.782 -0.6016 -0.2057  0.1201
 6945TIP3    H142250   1.776   6.135   1.871 -0.2428  0.8835  0.5969
 6945TIP3    H242251   1.862   6.116   1.747 -0.9336 -0.8303  0.3603
 6946TIP3   OH242252   0.173   1.786  11.787 -0.1452 -0.2999 -0.1195
 6946TIP3    H142253   0.124   1.776  11.704  1.2195  0.7331 -1.0943
 6946TIP3    H242254   0.215   1.701  11.800 -0.0232 -0.3356 -0.7152
 6947TIP3   OH242255   3.887   5.811  12.050  0.6057 -0.3010 -0.3140
 6947TIP3    H142256   3.865   5.728  12.009  1.9313 -0.8645  0.0509
 6947TIP3    H242257   3.957   5.789  12.111 -1.5654  0.4192  2.6367
 6948TIP3   OH242258   2.195   4.289   4.968  0.5867 -0.2670 -0.6405
 6948TIP3    H142259   2.126   4.304   5.032  2.5487 -0.0643  1.5576
 6948TIP3    H242260   2.203   4.372   4.921  1.3420  0.7590  1.2059
 6949TIP3   OH242261   0.754   5.030   3.140 -0.1018 -0.0330 -0.0895
 6949TIP3    H142262   0.708   4.947   3.125 -2.6359  1.3325 -0.5598
 6949TIP3    H242263   0.793   5.020   3.227 -1.0466 -1.4407  0.2173
 6950TIP3   OH242264   5.850   4.929   0.024  0.3727 -0.7051 -0.1574
 6950TIP3    H142265   5.775   4.978  -0.009  0.8149 -0.6900 -1.1689
 6950TIP3    H242266   5.814   4.874   0.094 -0.2537  0.5490  0.5528
 6951TIP3   OH242267   6.616   1.345   5.961 -0.1758  0.3455  0.0551
 6951TIP3    H142268   6.539   1.290   5.977  0.1161  0.1033  0.6782
 6951TIP3    H242269   6.596   1.427   6.007  0.1617  0.0849  0.6746
 6952TIP3   OH242270   3.464   5.608  12.892 -0.3419 -0.7413 -0.0250
 6952TIP3    H142271   3.447   5.600  12.986  0.9705 -1.1673  0.1984
 6952TIP3    H242272   3.479   5.701  12.878 -0.7947 -0.6419  0.1430
 6953TIP3   OH242273   1.292   5.429  12.819  0.4056  0.2177 -0.5008
 6953TIP3    H142274   1.362   5.478  12.776 -0.3215  0.9875 -0.8341
 6953TIP3    H242275   1.303   5.339  12.787  1.5102  0.2273 -0.1867
 6954TIP3   OH242276   1.637   2.733   4.338  0.6354  0.6596  0.1920
 6954TIP3    H142277   1.563   2.745   4.399  1.0801 -0.5240  1.0001
 6954TIP3    H242278   1.713   2.764   4.387  1.0843 -0.8437  0.4817
 6955TIP3   OH242279   0.572   3.277   2.036  0.5272  0.5243 -0.1947
 6955TIP3    H142280   0.566   3.182   2.048 -1.2802  0.4486 -1.3214
 6955TIP3    H242281   0.483   3.304   2.015  0.7322  2.6827  1.3344
 6956TIP3   OH242282   3.326   4.517   2.464  0.2480 -0.1951 -0.1372
 6956TIP3    H142283   3.241   4.560   2.478 -0.6313 -1.7634 -0.4077
 6956TIP3    H242284   3.330   4.449   2.531  0.1980 -1.6515 -1.5238
 6957TIP3   OH242285   5.465   2.481   5.047 -0.5448 -0.4442  0.2606
 6957TIP3    H142286   5.455   2.429   5.127  0.4461 -1.7011 -0.3959
 6957TIP3    H242287   5.376   2.487   5.011 -0.6557 -1.9198  0.2296
 6958TIP3   OH242288   1.556   6.234   6.112 -0.5844 -0.3281  0.2587
 6958TIP3    H142289   1.566   6.143   6.085 -0.9812 -0.0782 -0.7941
 6958TIP3    H242290   1.492   6.231   6.183  0.1486 -0.9597  0.9158
 6959TIP3   OH242291   1.445   1.828   2.125  0.4688 -0.1918  0.8310
 6959TIP3    H142292   1.412   1.884   2.055 -1.7889 -0.3637  1.6891
 6959TIP3    H242293   1.539   1.847   2.128  0.3764  0.9091 -1.2159
 6960TIP3   OH242294   6.174   3.855  10.279  0.1259 -0.0572 -0.1582
 6960TIP3    H142295   6.228   3.783  10.246 -0.3060  0.0285 -1.0929
 6960TIP3    H242296   6.092   3.813  10.306  0.0643  0.0205 -0.2251
 6961TIP3   OH242297   5.489   1.916   5.827 -0.3357  0.3620 -0.1252
 6961TIP3    H142298   5.550   1.989   5.834  1.3320 -1.0217  0.4694
 6961TIP3    H242299   5.433   1.924   5.904  1.3862 -0.2670  1.2735
 6962TIP3   OH242300   2.322   3.187  10.522  0.3098 -0.1211 -0.3216
 6962TIP3    H142301   2.234   3.217  10.542  0.6296  0.0916  0.8147
 6962TIP3    H242302   2.379   3.238  10.580  0.8743 -3.0450  1.8939
 6963TIP3   OH242303   5.564   1.446   3.792 -0.6021 -0.0521 -0.7041
 6963TIP3    H142304   5.562   1.519   3.853  1.2734 -0.5873  0.0694
 6963TIP3    H242305   5.481   1.452   3.744  0.0481  3.3987 -1.6636
 6964TIP3   OH242306   5.066   2.804   1.055 -0.0352  0.1261  0.0307
 6964TIP3    H142307   5.069   2.720   1.010  2.6928  0.5186 -0.7134
 6964TIP3    H242308   5.085   2.783   1.147 -3.4766 -0.4198  0.7838
 6965TIP3   OH242309   3.751   2.748   2.029 -0.2386  0.3087  0.3706
 6965TIP3    H142310   3.719   2.836   2.049 -1.1997  0.0151  0.1332
 6965TIP3    H242311   3.694   2.716   1.959 -0.5121 -0.8673  1.0926
 6966TIP3   OH242312   0.421   1.313  12.255 -0.1211 -0.2147 -0.2248
 6966TIP3    H142313   0.497   1.298  12.199  1.3688 -1.6830  2.0531
 6966TIP3    H242314   0.393   1.226  12.282 -0.1682  0.4367  2.0374
 6967TIP3   OH242315   1.190   1.354   0.005  1.0153  0.4673  0.4057
 6967TIP3    H142316   1.142   1.303   0.070 -0.8830  1.9554  0.2649
 6967TIP3    H242317   1.229   1.288  -0.053 -1.1434 -0.8914  0.3526
 6968TIP3   OH242318   2.718   0.448   1.782  0.3835  0.6041 -0.2143
 6968TIP3    H142319   2.753   0.477   1.697  1.0778  0.5672  0.0518
 6968TIP3    H242320   2.749   0.515   1.844 -0.0568  0.5898  0.0238
 6969TIP3   OH242321   1.395   1.765  12.797  0.0442 -0.2213 -0.5338
 6969TIP3    H142322   1.332   1.714  12.745 -0.5340  0.4071 -0.4600
 6969TIP3    H242323   1.355   1.851  12.806  1.1497  0.3513 -0.9070
 6970TIP3   OH242324   0.215   1.229   4.627 -0.0935 -0.7577  0.3528
 6970TIP3    H142325   0.173   1.144   4.616  0.5024 -1.2183  1.4060
 6970TIP3    H242326   0.169   1.270   4.700  0.0819 -0.4869  0.3147
 6971TIP3   OH242327   6.660   0.548  15.448  0.4352 -0.2661  0.0556
 6971TIP3    H142328   6.703   0.599  15.516  1.5991 -0.4968 -0.4914
 6971TIP3    H242329   6.597   0.608  15.408 -1.2680 -0.4873  2.1869
 6972TIP3   OH242330   6.019   5.641   0.788  0.4967 -0.0123 -0.4689
 6972TIP3    H142331   6.113   5.653   0.804  0.6172 -1.0824 -0.2954
 6972TIP3    H242332   5.978   5.719   0.826  1.2592  0.1808 -0.0219
 6973TIP3   OH242333   4.523   4.327  13.243  0.2007 -0.3506 -0.2472
 6973TIP3    H142334   4.456   4.383  13.204  1.0343  0.5052 -0.4907
 6973TIP3    H242335   4.521   4.349  13.336  1.1126  0.7600 -0.4620
 6974TIP3   OH242336   4.069   2.038  12.496  0.4501 -0.5194  0.1747
 6974TIP3    H142337   4.021   1.994  12.426  0.3051  1.4457 -1.0221
 6974TIP3    H242338   4.026   2.010  12.576 -2.1988  0.5226 -0.7939
 6975TIP3   OH242339   6.767   1.256  13.078  0.0125 -0.0058 -0.1599
 6975TIP3    H142340   6.795   1.333  13.128 -1.1114  0.1974  0.1934
 6975TIP3    H242341   6.818   1.260  12.997  3.1342 -1.2463  1.5504
 6976TIP3   OH242342   2.025   2.076  12.847  1.0858 -0.0824  0.2979
 6976TIP3    H142343   2.056   2.152  12.798  0.1865  1.1059  1.5048
 6976TIP3    H242344   1.938   2.059  12.811  1.1669 -0.3710  0.2336
 6977TIP3   OH242345   5.777   5.037   2.385  0.5467  0.3498 -0.1174
 6977TIP3    H142346   5.813   5.001   2.467  0.1450 -1.5551 -0.7371
 6977TIP3    H242347   5.854   5.046   2.328  0.6656  0.6168  0.0795
 6978TIP3   OH242348   0.473   2.307  12.558 -0.0371  0.6006 -0.1451
 6978TIP3    H142349   0.555   2.322  12.605  0.3309 -0.3966 -0.4496
 6978TIP3    H242350   0.419   2.256  12.619 -0.3279  1.0128 -0.0518
 6979TIP3   OH242351   5.543   0.085   4.283 -0.4155  0.3970  0.3021
 6979TIP3    H142352   5.506  -0.002   4.268  1.3303 -0.6865  1.7665
 6979TIP3    H242353   5.468   0.142   4.295 -1.7019 -1.5773  2.5867
 6980TIP3   OH242354   0.949   1.177   1.217  0.2517  0.4138  0.1319
 6980TIP3    H142355   0.878   1.133   1.170  0.0140 -0.3602  1.1907
 6980TIP3    H242356   0.994   1.107   1.264 -1.3073  1.3986  3.4021
 6981TIP3   OH242357   0.255   4.306  14.827  0.1068 -0.5512  0.4346
 6981TIP3    H142358   0.290   4.225  14.866  0.2705 -0.0270  1.4187
 6981TIP3    H242359   0.187   4.334  14.889  0.1097  0.1063  0.1395
 6982TIP3   OH242360   3.253   1.341   4.734  0.0296 -0.0744 -0.2705
 6982TIP3    H142361   3.236   1.306   4.646 -0.3357  0.1466 -0.2919
 6982TIP3    H242362   3.343   1.315   4.754  0.1011 -0.1545 -0.6964
 6983TIP3   OH242363   3.934   5.655   1.087  0.3161  0.1514 -0.3379
 6983TIP3    H142364   3.891   5.665   1.172 -0.2761  0.4964 -0.6716
 6983TIP3    H242365   3.864   5.671   1.023  1.1424  1.6034 -0.9039
 6984TIP3   OH242366   6.739   0.714   0.004 -0.1619  0.1594 -0.3169
 6984TIP3    H142367   6.664   0.673   0.048  0.5727 -0.3677  0.4868
 6984TIP3    H242368   6.816   0.672   0.044  0.6045  1.6899 -0.0913
 6985TIP3   OH242369   0.061   2.154  14.243  0.5944 -0.6014  0.0865
 6985TIP3    H142370   0.080   2.078  14.296  0.4038 -1.9219 -1.6492
 6985TIP3    H242371  -0.020   2.132  14.196  0.1262  0.9643  0.0649
 6986TIP3   OH242372   2.632   2.363  12.746 -0.2647  0.4627  0.2973
 6986TIP3    H142373   2.691   2.352  12.671  0.1002  1.9521  0.3449
 6986TIP3    H242374   2.574   2.434  12.720 -1.0909  0.0086  0.8652
 6987TIP3   OH242375   5.703   0.382   4.438  0.1696  0.1762  0.0219
 6987TIP3    H142376   5.692   0.396   4.532 -0.6821 -0.1351 -0.0264
 6987TIP3    H242377   5.690   0.288   4.426  2.4466 -0.1730 -0.1168
 6988TIP3   OH242378   3.862   0.133   3.200  0.4971 -0.2502 -0.0848
 6988TIP3    H142379   3.782   0.085   3.176  0.0105  1.4846 -2.2241
 6988TIP3    H242380   3.910   0.072   3.257 -1.3324 -2.1782 -0.4627
 6989TIP3   OH242381   2.574   5.983   2.784 -0.1662 -0.1942 -0.4822
 6989TIP3    H142382   2.576   5.892   2.812 -0.3195 -0.8181 -2.3553
 6989TIP3    H242383   2.482   6.009   2.796  0.1066  0.1320  1.1724
 6990TIP3   OH242384   2.329   2.729   0.045  0.0286 -0.4421 -0.6837
 6990TIP3    H142385   2.314   2.706  -0.046 -0.9893 -1.2030 -0.3442
 6990TIP3    H242386   2.335   2.825   0.045  3.2790 -0.5304 -1.9615
 6991TIP3   OH242387   4.622   6.699  11.480 -0.3016 -0.0635  0.2220
 6991TIP3    H142388   4.713   6.698  11.452 -0.2161  2.4244  0.1874
 6991TIP3    H242389   4.573   6.723  11.402 -0.9630 -1.0416  0.3243
 6992TIP3   OH242390   6.572   3.271   3.889  0.2033 -0.7063  0.0697
 6992TIP3    H142391   6.479   3.251   3.895 -0.8370  2.7720 -1.4337
 6992TIP3    H242392   6.591   3.322   3.968 -0.3022  1.8817 -1.3661
 6993TIP3   OH242393   3.586   4.521  15.828  0.1220 -0.2659 -0.5594
 6993TIP3    H142394   3.663   4.469  15.803  0.4738  0.1323 -0.3262
 6993TIP3    H242395   3.513   4.459  15.825  0.3128 -0.4664 -1.5927
 6994TIP3   OH242396   3.376   0.822   5.053  0.1504  0.3898 -1.0544
 6994TIP3    H142397   3.371   0.871   4.971 -1.3551 -0.5006 -1.5509
 6994TIP3    H242398   3.335   0.738   5.033  1.0010 -0.3773  0.2546
 6995TIP3   OH242399   3.290   2.243  13.660 -0.1401 -0.8278  0.0534
 6995TIP3    H142400   3.281   2.190  13.581 -0.3264  1.0766 -1.2444
 6995TIP3    H242401   3.357   2.198  13.712 -1.2077 -3.0264 -0.3674
 6996TIP3   OH242402   3.645   4.781  16.721  0.3669  0.1846 -0.1133
 6996TIP3    H142403   3.738   4.757  16.718  0.5728  0.8264  0.6343
 6996TIP3    H242404   3.601   4.702  16.754  0.6353 -0.1408 -0.5255
 6997TIP3   OH242405   6.401   4.724   2.752  0.1514 -0.2883  0.2956
 6997TIP3    H142406   6.310   4.748   2.768  0.5719  1.2546  0.6054
 6997TIP3    H242407   6.397   4.640   2.707 -1.4252 -0.1421  0.1126
 6998TIP3   OH242408   2.467   5.103   5.457 -0.3348 -0.3069 -0.0320
 6998TIP3    H142409   2.561   5.102   5.473  0.1742 -2.5440 -2.5167
 6998TIP3    H242410   2.450   5.188   5.417  0.5295  0.2575  0.7775
 6999TIP3   OH242411   2.853   5.234   2.447  0.0607 -0.0298  0.3195
 6999TIP3    H142412   2.781   5.276   2.400 -0.6416  0.8150  2.0645
 6999TIP3    H242413   2.848   5.270   2.536  2.5078 -0.1233  0.5591
 7000TIP3   OH242414   6.597   5.015  11.643 -0.0989 -0.3603  0.0236
 7000TIP3    H142415   6.589   5.110  11.630  2.6764 -0.1475 -0.7889
 7000TIP3    H242416   6.534   4.978  11.581 -1.3739  0.9106  0.4868
 7001TIP3   OH242417   6.363   1.779   4.903  0.4047  0.4905 -0.1866
 7001TIP3    H142418   6.400   1.695   4.876  0.7625  0.1568  1.2402
 7001TIP3    H242419   6.271   1.761   4.921  1.0912 -0.4763  3.2337
 7002TIP3   OH242420   1.842   2.323   0.622  0.1608  0.4119 -0.5196
 7002TIP3    H142421   1.869   2.262   0.690 -0.9865 -1.0288 -1.2891
 7002TIP3    H242422   1.886   2.291   0.543  0.2622  1.1280 -0.7541
 7003TIP3   OH242423   2.959   4.596  17.013 -0.1560 -0.2196  0.5967
 7003TIP3    H142424   3.007   4.541  16.952  0.3931 -0.8153  1.5580
 7003TIP3    H242425   2.892   4.539  17.050 -1.4278  0.5057 -0.4653
 7004TIP3   OH242426   5.590   3.784  14.518 -0.1189 -0.7738  0.4031
 7004TIP3    H142427   5.683   3.805  14.505 -0.2331 -0.8789 -0.7494
 7004TIP3    H242428   5.587   3.688  14.519 -0.2132 -0.7702  0.4562
 7005TIP3   OH242429   6.424   4.737  13.036 -0.5158 -0.4091  0.2137
 7005TIP3    H142430   6.470   4.751  12.953 -0.1890  0.4897  0.5303
 7005TIP3    H242431   6.428   4.822  13.080  0.5136 -1.2196  1.7660
 7006TIP3   OH242432   1.450   4.334   2.910 -0.2265 -0.3720  0.8409
 7006TIP3    H142433   1.369   4.325   2.859 -0.7375  0.4433  1.4825
 7006TIP3    H242434   1.449   4.259   2.969  1.1214 -2.1970 -1.2868
 7007TIP3   OH242435   1.364   3.628   2.131 -0.1259 -0.0687  0.5417
 7007TIP3    H142436   1.377   3.591   2.218 -0.1732  0.6651  0.8684
 7007TIP3    H242437   1.367   3.552   2.072 -0.6910 -0.6449  1.2328
 7008TIP3   OH242438   2.866   4.522   4.426 -0.4436  0.6611 -0.0997
 7008TIP3    H142439   2.821   4.452   4.473  1.3098 -0.9218 -0.6746
 7008TIP3    H242440   2.799   4.558   4.368 -1.2301 -0.9823 -0.2769
 7009TIP3   OH242441   6.425   4.999  13.175 -0.1469 -0.2045 -0.2137
 7009TIP3    H142442   6.332   5.022  13.172  0.2697  2.0807  1.5097
 7009TIP3    H242443   6.461   5.032  13.093 -0.8981 -1.4438 -1.0623
 7010TIP3   OH242444   6.799   0.965  11.125 -0.5678 -0.0526  0.3805
 7010TIP3    H142445   6.805   1.018  11.046 -0.9583 -0.6706 -0.0716
 7010TIP3    H242446   6.816   0.876  11.096  2.9877  0.0688  1.5646
 7011TIP3   OH242447   6.485   4.842   4.236  0.2283  0.2686 -0.3302
 7011TIP3    H142448   6.580   4.827   4.237 -0.0615 -1.9582  1.5143
 7011TIP3    H242449   6.476   4.937   4.231  2.5407  0.5412 -0.5044
 7012TIP3   OH242450   0.735   1.204  14.992  0.6009  0.0061 -0.1294
 7012TIP3    H142451   0.744   1.281  14.935  1.7184 -0.2269 -0.2834
 7012TIP3    H242452   0.641   1.184  14.989  0.3803  0.9992 -0.5574
 7013TIP3   OH242453   5.832   1.386   6.541  0.2252 -0.1404  0.7068
 7013TIP3    H142454   5.781   1.389   6.460  0.8082  1.6526  0.3686
 7013TIP3    H242455   5.769   1.357   6.608 -0.2927 -1.5252 -0.3273
 7014TIP3   OH242456   2.919   2.736   2.138 -0.5316  0.0541 -0.0147
 7014TIP3    H142457   3.013   2.727   2.148 -0.5322  0.5690  0.5825
 7014TIP3    H242458   2.891   2.782   2.217 -1.1147  0.9624 -0.7233
 7015TIP3   OH242459   0.956   6.553  12.929 -0.2052 -0.0828  0.4279
 7015TIP3    H142460   0.901   6.519  12.858  1.1447 -1.0359 -0.2096
 7015TIP3    H242461   1.022   6.606  12.884  0.5802 -0.5808  0.9722
 7016TIP3   OH242462   2.293   0.531   3.942 -0.3691  0.4272  0.3019
 7016TIP3    H142463   2.245   0.461   3.987  1.3860 -0.7184  0.5316
 7016TIP3    H242464   2.384   0.517   3.969  0.2043  2.0267 -0.6953
 7017TIP3   OH242465   2.914   1.062  14.702 -0.3105  0.2426 -0.1344
 7017TIP3    H142466   2.983   0.999  14.725 -1.2340 -1.2334 -1.2353
 7017TIP3    H242467   2.900   1.113  14.782 -0.0138 -1.4280  1.0322
 7018TIP3   OH242468   6.218   1.945   1.291 -0.3414  0.0506  0.3169
 7018TIP3    H142469   6.186   1.962   1.379 -0.6831  2.4497 -0.1994
 7018TIP3    H242470   6.256   2.028   1.263  0.2947 -0.8229 -1.5922
 7019TIP3   OH242471   0.777   3.601  16.457  0.0044  0.6931  0.3278
 7019TIP3    H142472   0.804   3.642  16.539 -0.9448  1.0953  0.4459
 7019TIP3    H242473   0.726   3.525  16.484  0.9623 -0.0579  0.1010
 7020TIP3   OH242474   6.244   1.315  16.635 -0.2627 -0.1941 -0.1433
 7020TIP3    H142475   6.271   1.380  16.699  1.0443 -1.5249  0.7238
 7020TIP3    H242476   6.262   1.231  16.677 -0.5459 -1.1183 -1.7728
 7021TIP3   OH242477   4.613   6.447   2.393 -0.2741  0.7118  0.3257
 7021TIP3    H142478   4.545   6.514   2.390  0.0715  1.1543  1.4803
 7021TIP3    H242479   4.582   6.384   2.458  0.6530  1.2415  1.3409
 7022TIP3   OH242480   4.000   4.315  14.203 -0.3891 -0.1112 -0.0861
 7022TIP3    H142481   4.073   4.375  14.217  0.3101 -1.1653  0.9722
 7022TIP3    H242482   3.923   4.366  14.227  0.2413  0.2087  1.4463
 7023TIP3   OH242483   3.099   3.166  15.191  0.7501  0.3486 -0.0711
 7023TIP3    H142484   3.134   3.138  15.276  1.3001 -2.7441 -1.1874
 7023TIP3    H242485   3.176   3.174  15.135  0.3751  2.1493 -0.3721
 7024TIP3   OH242486   6.043   3.640   2.666  0.4228 -0.6470 -0.3409
 7024TIP3    H142487   5.991   3.646   2.586  0.4690  3.5054 -0.2701
 7024TIP3    H242488   6.134   3.632   2.635  0.1908 -3.4472 -0.5204
 7025TIP3   OH242489   2.392   0.180  15.455 -0.8055 -0.7206  0.0953
 7025TIP3    H142490   2.302   0.147  15.462 -0.7648 -0.9678 -0.4797
 7025TIP3    H242491   2.419   0.196  15.545 -1.2028 -1.2622  0.3138
 7026TIP3   OH242492   3.462   5.988  14.277 -0.0417  0.0114 -0.2657
 7026TIP3    H142493   3.464   6.031  14.191 -0.7648 -0.3088 -0.4562
 7026TIP3    H242494   3.418   5.904  14.260  2.8362 -1.6180 -0.2511
 7027TIP3   OH242495   5.552   6.043  15.804 -0.1874 -0.2229 -0.3695
 7027TIP3    H142496   5.619   5.998  15.752  0.2539 -0.8877  0.7316
 7027TIP3    H242497   5.474   6.043  15.749  1.0567  1.8785 -2.3247
 7028TIP3   OH242498   1.238   1.149  16.144  0.6481 -0.1364  0.4929
 7028TIP3    H142499   1.327   1.131  16.175  0.6442  0.4003  0.8390
 7028TIP3    H242500   1.207   1.065  16.110  1.4797 -0.2083 -0.1267
 7029TIP3   OH242501   4.788   2.311  12.603 -0.0568 -0.4303 -0.0203
 7029TIP3    H142502   4.874   2.353  12.609  0.4503 -1.1836 -1.4876
 7029TIP3    H242503   4.753   2.341  12.519 -0.8585 -0.8244  0.1637
 7030TIP3   OH242504   2.838   6.117  11.274  0.6984  0.4582  0.1550
 7030TIP3    H142505   2.813   6.125  11.182 -0.2648 -0.4341  0.3227
 7030TIP3    H242506   2.897   6.191  11.289  2.2046 -0.3169 -1.5868
 7031TIP3   OH242507   3.017   3.361  12.844  0.5287  0.3045  0.0898
 7031TIP3    H142508   2.983   3.275  12.868  0.1165  0.7105  1.0290
 7031TIP3    H242509   2.959   3.391  12.774  1.0397 -0.4161 -0.6699
 7032TIP3   OH242510   3.755   1.995  14.312  0.1757 -0.2325 -0.1338
 7032TIP3    H142511   3.701   2.017  14.236 -0.3475  2.1135  0.8532
 7032TIP3    H242512   3.815   2.069  14.322  0.3484 -0.5658  1.6406
 7033TIP3   OH242513   0.794   1.218   2.109 -0.0913 -0.1705  0.2317
 7033TIP3    H142514   0.828   1.300   2.144 -1.3879  1.5889 -2.2926
 7033TIP3    H242515   0.870   1.159   2.109  1.3877  1.6237  0.3618
 7034TIP3   OH242516   5.458   5.100   1.828  0.2571 -0.5473  0.2683
 7034TIP3    H142517   5.404   5.179   1.829  1.3371  0.2106  0.9408
 7034TIP3    H242518   5.466   5.077   1.735  0.5270  0.5618  0.0093
 7035TIP3   OH242519   5.884   0.988  12.938  0.1132  0.2846 -0.6851
 7035TIP3    H142520   5.906   0.900  12.909  1.6173  0.5932 -0.5548
 7035TIP3    H242521   5.903   0.987  13.032 -0.4178  0.5881 -0.5722
 7036TIP3   OH242522   1.669   1.446  13.520  0.0770  0.7937 -0.1525
 7036TIP3    H142523   1.754   1.489  13.532  0.2380  1.3068 -2.5567
 7036TIP3    H242524   1.657   1.443  13.425 -2.0153 -0.4568  0.0866
 7037TIP3   OH242525   6.422   1.644  14.369 -0.5197 -0.3042  0.2201
 7037TIP3    H142526   6.435   1.678  14.458 -0.2827 -1.6874  0.7490
 7037TIP3    H242527   6.328   1.635  14.360 -0.4937 -2.2621  1.2252
 7038TIP3   OH242528   0.050   1.797  11.338 -0.1143  0.3054  0.6692
 7038TIP3    H142529   0.045   1.756  11.424 -1.9289 -0.6862  0.1528
 7038TIP3    H242530   0.020   1.886  11.352  0.6702  0.4947  1.2299
 7039TIP3   OH242531   0.411   0.739   4.484  0.1207  0.3789  0.6749
 7039TIP3    H142532   0.359   0.794   4.543  2.8937  1.4114  2.3690
 7039TIP3    H242533   0.433   0.662   4.537  0.1983 -0.1001 -0.0444
 7040TIP3   OH242534   0.611   4.320  16.217 -0.1300 -0.4393  0.5510
 7040TIP3    H142535   0.524   4.360  16.212  0.4988  1.0372  0.8679
 7040TIP3    H242536   0.637   4.309  16.126  0.4155  1.6508  0.3859
 7041TIP3   OH242537   5.660   3.334   0.274  0.0056 -0.6620 -0.4677
 7041TIP3    H142538   5.734   3.388   0.302 -1.1205 -0.0173  1.4443
 7041TIP3    H242539   5.666   3.333   0.179  2.5119 -0.7163 -0.3855
 7042TIP3   OH242540   2.328   1.561   4.900 -0.1930  0.4627 -0.5728
 7042TIP3    H142541   2.405   1.548   4.956 -0.4255  0.3633 -0.2700
 7042TIP3    H242542   2.300   1.651   4.920 -0.5195  0.2878 -0.2135
 7043TIP3   OH242543   2.896   1.413   5.486 -0.0133 -0.4184  0.1216
 7043TIP3    H142544   2.981   1.391   5.524  0.2494  0.4382  0.0432
 7043TIP3    H242545   2.917   1.442   5.397 -0.2589  0.8646  0.4655
 7044TIP3   OH242546   1.136   6.475   4.034 -0.0808  0.9019  0.1528
 7044TIP3    H142547   1.205   6.420   3.997 -0.9661  0.6421 -1.1967
 7044TIP3    H242548   1.164   6.565   4.017  1.2740  0.9187  2.1821
 7045TIP3   OH242549   4.476   4.454  13.488 -0.5750 -0.4437  0.8102
 7045TIP3    H142550   4.540   4.494  13.548  0.0939 -0.9239  0.4316
 7045TIP3    H242551   4.408   4.419  13.545  2.2597 -5.0922  1.8090
 7046TIP3   OH242552   5.667   1.422   0.986 -0.0036 -0.4599  0.3119
 7046TIP3    H142553   5.758   1.444   1.005 -0.1593 -0.0643  0.5977
 7046TIP3    H242554   5.648   1.348   1.044  1.0551 -2.6095 -1.8592
 7047TIP3   OH242555   4.857   2.241  12.246  0.1125  0.0007  0.0300
 7047TIP3    H142556   4.913   2.207  12.176 -0.1470  1.6113 -1.0240
 7047TIP3    H242557   4.789   2.290  12.200 -1.4009 -0.7953  1.3427
 7048TIP3   OH242558   5.808   5.924   6.276  0.4659  0.7025  0.1726
 7048TIP3    H142559   5.730   5.977   6.266  1.0524  1.9006  1.6610
 7048TIP3    H242560   5.861   5.945   6.198  0.3316  1.6855  0.3389
 7049TIP3   OH242561   5.529   3.174  15.258 -0.1955 -0.3166  0.3441
 7049TIP3    H142562   5.451   3.127  15.286 -0.7853  0.1324 -0.4879
 7049TIP3    H242563   5.502   3.266  15.255 -0.5825 -0.4345 -2.8078
 7050TIP3   OH242564   2.925   1.796  10.908  0.3450  0.1112  0.2269
 7050TIP3    H142565   3.017   1.777  10.927  1.1942 -0.1743 -3.5528
 7050TIP3    H242566   2.891   1.715  10.870 -1.4792  0.2707  1.3984
 7051TIP3   OH242567   4.341   4.408   2.615  0.0954 -0.2915  0.7129
 7051TIP3    H142568   4.361   4.473   2.682  1.1700 -1.3516  1.4706
 7051TIP3    H242569   4.419   4.406   2.559 -0.2645 -0.3385  0.2111
 7052TIP3   OH242570   2.573   0.751   6.084  0.1162  0.8737  0.5448
 7052TIP3    H142571   2.478   0.744   6.076  0.4145 -1.9969 -2.5277
 7052TIP3    H242572   2.602   0.781   5.998  2.0924 -1.5204  0.2640
 7053TIP3   OH242573   2.339   6.420  16.959 -0.4298 -0.0710 -0.0799
 7053TIP3    H142574   2.391   6.392  17.034  1.2389  0.7708 -0.8582
 7053TIP3    H242575   2.363   6.512  16.946 -2.2932  0.4077 -0.3618
 7054TIP3   OH242576   3.093   4.013  16.357 -0.0689 -0.0812  0.0365
 7054TIP3    H142577   3.171   4.031  16.304  0.6943 -0.4608  1.0151
 7054TIP3    H242578   3.060   4.100  16.380  0.7872  0.0984  0.6445
 7055TIP3   OH242579   3.237   4.199  11.921  0.1482 -0.0409  0.6106
 7055TIP3    H142580   3.226   4.157  12.007  1.5593 -0.1304  0.7701
 7055TIP3    H242581   3.252   4.292  11.942  1.8261 -0.2699  0.5842
 7056TIP3   OH242582   3.778   5.260  16.981 -0.5944  0.8423  0.0757
 7056TIP3    H142583   3.768   5.187  16.920 -1.1849 -1.1181  2.3973
 7056TIP3    H242584   3.689   5.287  17.003 -0.3868  1.7579 -0.1262
 7057TIP3   OH242585   1.254   4.638   4.541 -0.2164 -0.3194 -0.4324
 7057TIP3    H142586   1.199   4.637   4.619  1.8734  2.4302  1.2551
 7057TIP3    H242587   1.262   4.731   4.518  2.4509 -0.7295 -1.5012
 7058TIP3   OH242588   0.944   1.770  14.153 -0.0078 -0.1231 -0.0953
 7058TIP3    H142589   0.976   1.701  14.211  1.0247 -0.5047 -1.0847
 7058TIP3    H242590   0.911   1.724  14.076 -1.5627  0.3628  0.2302
 7059TIP3   OH242591   5.529   6.300   1.798  0.0814 -0.2654  0.3754
 7059TIP3    H142592   5.536   6.395   1.797 -0.0741 -0.2519  0.4734
 7059TIP3    H242593   5.442   6.282   1.763  0.1662 -0.3776  0.2227
 7060TIP3   OH242594   5.308   5.704   2.861  0.9051 -0.1184 -0.0913
 7060TIP3    H142595   5.312   5.614   2.893 -1.5532 -0.9916 -1.9365
 7060TIP3    H242596   5.378   5.708   2.795  0.0037 -1.2753 -1.1831
 7061TIP3   OH242597   4.497   3.569   0.382  0.5217 -0.3724  0.1948
 7061TIP3    H142598   4.476   3.476   0.378  2.1765 -0.8658  1.7061
 7061TIP3    H242599   4.593   3.572   0.378  0.4903  1.2885 -0.0377
 7062TIP3   OH242600   1.824   6.122  11.563  0.0643  0.2383 -0.2125
 7062TIP3    H142601   1.794   6.052  11.505  0.5429 -0.7228  0.6619
 7062TIP3    H242602   1.903   6.156  11.522 -0.5359  0.7348 -0.9842
 7063TIP3   OH242603   3.731   0.083   2.427 -0.1206  0.0566 -0.2315
 7063TIP3    H142604   3.792   0.093   2.500 -0.7587 -1.5020  0.5525
 7063TIP3    H242605   3.671   0.157   2.436  0.5013  0.5258  0.1268
 7064TIP3   OH242606   0.807   1.598  11.822  0.8239 -0.2886  0.4564
 7064TIP3    H142607   0.730   1.609  11.878  1.2120 -0.1505  0.9738
 7064TIP3    H242608   0.878   1.638  11.872  1.5338 -1.7651  0.6866
 7065TIP3   OH242609   3.676   3.609  14.857  0.6923  0.8471  0.1650
 7065TIP3    H142610   3.606   3.558  14.897  1.4718 -1.0034 -0.7010
 7065TIP3    H242611   3.635   3.655  14.784 -0.0207  1.4833  0.9526
 7066TIP3   OH242612   3.791   2.222  16.799 -0.0494  0.1604  0.6010
 7066TIP3    H142613   3.788   2.289  16.731 -0.0223 -0.0343  0.4083
 7066TIP3    H242614   3.871   2.172  16.781 -0.1643 -0.0376  0.6323
 7067TIP3   OH242615   4.421   1.334   0.628 -0.1135  0.0337 -0.1062
 7067TIP3    H142616   4.416   1.246   0.588 -0.0248  0.3998 -0.9473
 7067TIP3    H242617   4.513   1.344   0.652 -0.4315 -0.7974  1.6588
 7068TIP3   OH242618   4.578   5.970  11.478  0.3835  0.0138 -0.9322
 7068TIP3    H142619   4.552   6.020  11.555 -0.5544 -0.0604 -1.1852
 7068TIP3    H242620   4.496   5.953  11.431  0.9871  0.4824 -2.2031
 7069TIP3   OH242621   1.485   5.239  13.719  0.4169  0.0207  0.2471
 7069TIP3    H142622   1.405   5.189  13.704  1.8774 -2.7771  1.0270
 7069TIP3    H242623   1.500   5.286  13.637 -1.2819 -0.4764 -0.3870
 7070TIP3   OH242624   1.609   1.243  12.267  0.1561  0.0786 -0.4224
 7070TIP3    H142625   1.696   1.260  12.229  0.4071  0.6478  0.3691
 7070TIP3    H242626   1.610   1.290  12.351 -1.0066  0.2890 -0.5122
 7071TIP3   OH242627   5.483   1.685  16.146 -0.2404  0.2565  0.2694
 7071TIP3    H142628   5.529   1.761  16.181  0.7956  0.8580 -2.2110
 7071TIP3    H242629   5.405   1.721  16.104  0.5547  0.0789 -1.4324
 7072TIP3   OH242630   3.640   3.953  16.814  0.5095  0.3610 -0.2925
 7072TIP3    H142631   3.690   3.958  16.895  0.8089 -1.0098 -0.3722
 7072TIP3    H242632   3.578   4.026  16.819  0.3595  0.1498  1.2782
 7073TIP3   OH242633   4.487   6.645  13.113  0.1866 -0.3001 -0.1866
 7073TIP3    H142634   4.456   6.643  13.023 -0.1660  0.7733 -0.1051
 7073TIP3    H242635   4.513   6.555  13.132 -0.9583 -0.8029 -0.9302
 7074TIP3   OH242636   6.249   2.175  11.697 -0.2869  0.5252 -0.2253
 7074TIP3    H142637   6.282   2.144  11.613  0.6709 -0.3780  0.4617
 7074TIP3    H242638   6.158   2.199  11.679 -0.6466 -1.3221 -1.1464
 7075TIP3   OH242639   1.717   3.145  13.612  0.7428  0.0943 -0.2936
 7075TIP3    H142640   1.672   3.116  13.691  0.9288 -1.2192 -0.6410
 7075TIP3    H242641   1.787   3.080  13.599  2.0563  1.4713 -0.3816
 7076TIP3   OH242642   1.250   0.425   5.617 -0.1621 -0.0359  0.0733
 7076TIP3    H142643   1.269   0.458   5.529  0.1238  3.3514  1.2524
 7076TIP3    H242644   1.158   0.396   5.612 -0.1362  0.0580 -1.3223
 7077TIP3   OH242645   3.750   6.417   2.719 -0.4986  0.5645 -0.6014
 7077TIP3    H142646   3.834   6.420   2.764 -1.2759  0.6673  0.8977
 7077TIP3    H242647   3.761   6.473   2.642  0.9235  0.2200 -0.6641
 7078TIP3   OH242648   0.762   4.373  11.491  0.8564 -0.1496 -0.2223
 7078TIP3    H142649   0.803   4.319  11.423  0.4620 -1.9652  0.9352
 7078TIP3    H242650   0.836   4.421  11.530  1.1568  0.5073 -1.5186
 7079TIP3   OH242651   1.295   2.818   5.296 -0.1055  0.4500 -0.0777
 7079TIP3    H142652   1.256   2.863   5.371  1.5689 -0.6193  1.5281
 7079TIP3    H242653   1.307   2.886   5.230 -0.0873  1.7987  1.2702
 7080TIP3   OH242654   4.644   0.212  12.826 -0.0972 -0.0327 -0.1830
 7080TIP3    H142655   4.706   0.160  12.877 -0.7705  1.0634  1.8933
 7080TIP3    H242656   4.566   0.156  12.819 -1.0559  0.7919  2.6011
 7081TIP3   OH242657   4.694   3.099  13.418 -0.1143  0.2438 -0.1277
 7081TIP3    H142658   4.661   3.186  13.396 -0.7482 -0.0624 -0.4108
 7081TIP3    H242659   4.774   3.089  13.366  0.8576  1.2661  1.0823
 7082TIP3   OH242660   5.357   2.236  13.963 -0.2602 -0.5921 -0.1601
 7082TIP3    H142661   5.434   2.286  13.935  0.1980 -2.2209 -2.1309
 7082TIP3    H242662   5.316   2.290  14.030 -0.4107  2.9485 -2.7707
 7083TIP3   OH242663   0.754   2.311   3.929 -0.1871  0.3803 -0.2612
 7083TIP3    H142664   0.744   2.371   4.003  0.2241  1.8361 -1.3304
 7083TIP3    H242665   0.677   2.255   3.933 -0.6589  1.0573  0.7133
 7084TIP3   OH242666   4.897   4.260  12.427  0.2118  0.1113  0.0709
 7084TIP3    H142667   4.942   4.280  12.509 -0.6419  0.4175  0.4760
 7084TIP3    H242668   4.966   4.228  12.369  0.7323 -0.7330  1.1132
 7085TIP3   OH242669   3.011   0.668   6.081 -0.8123 -0.0555  0.0193
 7085TIP3    H142670   3.016   0.731   6.009 -0.3904  1.9064  1.6673
 7085TIP3    H242671   3.102   0.652   6.105 -0.8641 -2.1417 -1.0121
 7086TIP3   OH242672   5.974   4.652  15.407  0.1110 -0.7963  0.1874
 7086TIP3    H142673   5.902   4.706  15.373  1.3027  0.3330 -0.6396
 7086TIP3    H242674   5.930   4.579  15.452 -1.5415  0.1204  0.1438
 7087TIP3   OH242675   3.805   2.683   3.948 -0.2821 -0.0568 -0.1320
 7087TIP3    H142676   3.769   2.768   3.972  0.1969  0.4187 -1.0168
 7087TIP3    H242677   3.759   2.620   4.003 -0.0553  0.8484  1.1216
 7088TIP3   OH242678   4.815   4.493   1.857  0.5525 -0.2404 -0.1553
 7088TIP3    H142679   4.813   4.397   1.851 -0.4357 -0.2393 -0.1251
 7088TIP3    H242680   4.900   4.517   1.822  0.0413 -1.0316 -2.1501
 7089TIP3   OH242681   0.946   3.419   4.411 -0.0430  0.6101 -0.0674
 7089TIP3    H142682   0.881   3.483   4.382  0.3116 -0.2313 -3.0870
 7089TIP3    H242683   0.902   3.334   4.401  1.1844  0.0878 -1.3639
 7090TIP3   OH242684   1.385   3.418  10.959 -0.0297 -0.5013  0.0030
 7090TIP3    H142685   1.454   3.434  10.895 -1.0430 -0.5485 -1.1321
 7090TIP3    H242686   1.366   3.505  10.995 -0.0665 -0.3384 -0.4043
 7091TIP3   OH242687   4.753   3.523  16.136  0.0561 -0.3250  0.3526
 7091TIP3    H142688   4.751   3.542  16.042  1.6721 -2.8009 -0.2554
 7091TIP3    H242689   4.696   3.447  16.147  0.0910 -0.2282  1.3411
 7092TIP3   OH242690   3.272   4.866   4.737 -0.0638  0.4361  0.0813
 7092TIP3    H142691   3.347   4.922   4.721 -0.8082  0.8786 -2.3273
 7092TIP3    H242692   3.304   4.777   4.722  0.0399  0.6058 -0.7126
 7093TIP3   OH242693   3.719   0.561   5.070  0.3018 -0.5879  0.5258
 7093TIP3    H142694   3.710   0.553   5.165  1.9518  0.4654  0.8111
 7093TIP3    H242695   3.745   0.652   5.056  1.4374 -1.0820 -0.8038
 7094TIP3   OH242696   5.099   4.666   5.105  0.5108 -0.0449 -0.0586
 7094TIP3    H142697   5.041   4.640   5.034 -0.5115  1.5929  0.1317
 7094TIP3    H242698   5.044   4.665   5.183  1.4368 -1.1048  0.6080
 7095TIP3   OH242699   5.755   5.949  10.807  0.3391  0.5159  0.2574
 7095TIP3    H142700   5.837   5.961  10.854 -0.8087  0.4455  2.4012
 7095TIP3    H242701   5.725   5.861  10.830  0.0607  0.1905 -1.2047
 7096TIP3   OH242702   5.803   6.447  14.635  0.1009 -0.1053  0.2842
 7096TIP3    H142703   5.795   6.497  14.554  1.4240  0.1969  0.3121
 7096TIP3    H242704   5.891   6.466  14.666 -0.3382 -0.3221  1.7385
 7097TIP3   OH242705   0.800   5.358  13.968  0.7362  0.6231  0.1759
 7097TIP3    H142706   0.869   5.410  13.926 -0.0414 -0.7095 -3.1352
 7097TIP3    H242707   0.828   5.267  13.955 -1.8626  0.0088 -1.9822
 7098TIP3   OH242708   1.849   5.147   2.975 -0.0176  0.0157 -0.3923
 7098TIP3    H142709   1.888   5.091   3.042 -1.4892 -2.6305 -1.5658
 7098TIP3    H242710   1.914   5.216   2.960  2.3188 -1.8085  0.6326
 7099TIP3   OH242711   2.732   3.363  14.563  0.6034  0.1878 -0.8402
 7099TIP3    H142712   2.818   3.326  14.545  0.6776 -0.2745  0.3413
 7099TIP3    H242713   2.728   3.370  14.659 -0.2985  1.1120 -0.9223
 7100TIP3   OH242714   1.668   2.088  15.112  0.6458  0.2916  0.3876
 7100TIP3    H142715   1.635   1.998  15.121  1.7644 -0.3360 -1.3115
 7100TIP3    H242716   1.590   2.143  15.122 -0.7650 -1.0724 -2.1610
 7101TIP3   OH242717   6.139   3.609  14.244  0.2091  0.2707 -0.0221
 7101TIP3    H142718   6.128   3.532  14.299  0.5324  1.1622  1.3287
 7101TIP3    H242719   6.055   3.618  14.198  0.5117 -1.4481 -0.9995
 7102TIP3   OH242720   4.200   4.166  12.980 -0.1745 -0.5694 -0.3368
 7102TIP3    H142721   4.262   4.221  12.932 -0.6431  1.0153  0.7745
 7102TIP3    H242722   4.146   4.228  13.030 -1.7680 -1.9618 -0.2073
 7103TIP3   OH242723   0.894   3.240   0.295 -0.3042  0.1753 -0.7486
 7103TIP3    H142724   0.854   3.312   0.247 -0.4515  1.2339  0.8727
 7103TIP3    H242725   0.987   3.245   0.273 -0.3390  0.7802 -0.7669
 7104TIP3   OH242726   2.555   2.517   1.095 -0.6775 -0.7878  0.4667
 7104TIP3    H142727   2.535   2.528   1.002 -1.3443 -1.0407  0.5719
 7104TIP3    H242728   2.526   2.600   1.135 -0.5677 -0.7530  0.4735
 7105TIP3   OH242729   5.542   2.630  13.146 -0.4344  0.9430  0.2721
 7105TIP3    H142730   5.568   2.629  13.054 -2.5158 -3.1023 -0.5456
 7105TIP3    H242731   5.475   2.562  13.151  1.3729 -0.8963  5.2580
 7106TIP3   OH242732   0.573   4.581   3.685  0.0602 -0.6544 -0.0367
 7106TIP3    H142733   0.614   4.507   3.731  1.5247  0.7524  1.0048
 7106TIP3    H242734   0.637   4.652   3.692 -1.9356  1.1813  0.2941
 7107TIP3   OH242735   1.749   2.035  13.943 -0.2449  0.2632  0.8179
 7107TIP3    H142736   1.655   2.046  13.957 -0.2194 -0.3270  1.5081
 7107TIP3    H242737   1.773   2.108  13.886 -0.7305  1.6078  2.2684
 7108TIP3   OH242738   4.365   2.965   3.232  0.3142 -0.1030 -0.1836
 7108TIP3    H142739   4.389   2.925   3.149  1.9953  0.4366  0.0070
 7108TIP3    H242740   4.447   3.001   3.266 -0.7797  1.8554  0.5415
 7109TIP3   OH242741   1.867   3.888  12.740  0.4476  0.0384  0.2323
 7109TIP3    H142742   1.868   3.970  12.790  0.9380 -0.9848  1.9808
 7109TIP3    H242743   1.937   3.836  12.779 -1.1416 -1.9870  0.5509
 7110TIP3   OH242744   6.319   6.184  16.376 -0.1644  0.0041  0.5117
 7110TIP3    H142745   6.277   6.155  16.295 -1.0529 -0.3496  1.0886
 7110TIP3    H242746   6.335   6.277  16.363  2.0810 -0.5159 -1.0948
 7111TIP3   OH242747   6.344   2.300  13.873 -0.0419 -0.0988  0.4220
 7111TIP3    H142748   6.312   2.359  13.941  0.2276  1.9668 -1.1323
 7111TIP3    H242749   6.425   2.264  13.909 -0.0983  0.6633  1.3445
 7112TIP3   OH242750   6.202   3.668   6.294 -0.1402  0.4495  0.1673
 7112TIP3    H142751   6.278   3.615   6.270  0.6369  1.1865  0.9536
 7112TIP3    H242752   6.150   3.673   6.214  0.4684 -0.3405 -0.2877
 7113TIP3   OH242753   0.119   1.461  11.534  0.0132 -0.2483 -0.4222
 7113TIP3    H142754   0.173   1.384  11.554 -0.8887 -0.5634  1.0232
 7113TIP3    H242755   0.081   1.442  11.448 -0.0276 -1.3394 -0.1800
 7114TIP3   OH242756   1.119   3.578   4.250 -0.7240 -0.2018  0.4338
 7114TIP3    H142757   1.058   3.512   4.282  2.0693 -3.9396 -1.1696
 7114TIP3    H242758   1.090   3.597   4.161  0.8476 -2.9494 -0.8137
 7115TIP3   OH242759   1.683   2.777   3.920  0.1764 -0.0487 -0.1234
 7115TIP3    H142760   1.765   2.743   3.883  0.7672  1.6013 -0.4157
 7115TIP3    H242761   1.648   2.835   3.853 -0.8289 -0.1146  0.3244
 7116TIP3   OH242762   0.948   2.472  14.021 -0.2960 -0.0677  0.1171
 7116TIP3    H142763   0.991   2.426  14.093  0.7432  0.4337 -0.1769
 7116TIP3    H242764   0.973   2.423  13.943  0.5777  0.8154 -0.1648
 7117TIP3   OH242765   3.982   0.481  16.115 -0.2229 -0.1572 -0.1203
 7117TIP3    H142766   3.896   0.508  16.146 -0.4929  0.2483 -1.1656
 7117TIP3    H242767   3.973   0.387  16.098 -0.5417 -0.0676 -0.4635
 7118TIP3   OH242768   1.847   5.398  16.416 -0.3905  0.1022 -0.1031
 7118TIP3    H142769   1.796   5.337  16.470 -0.5263 -0.2195 -0.5828
 7118TIP3    H242770   1.781   5.449  16.369 -0.2770 -0.0798 -0.4678
 7119TIP3   OH242771   0.255   3.755   3.853  0.1021  0.0642  0.1933
 7119TIP3    H142772   0.259   3.785   3.944 -0.0066  1.9535 -0.3950
 7119TIP3    H242773   0.343   3.769   3.819 -0.1904  0.6233 -0.3571
 7120TIP3   OH242774   2.832   1.608   1.635 -0.1606  0.1447  0.1005
 7120TIP3    H142775   2.836   1.547   1.561  0.9735  1.5592 -1.0586
 7120TIP3    H242776   2.864   1.691   1.600 -0.4992  1.1124  1.9498
 7121TIP3   OH242777   5.327   5.675   1.141  0.0318  0.4899 -0.0227
 7121TIP3    H142778   5.292   5.604   1.195  1.1969 -0.9129 -1.0412
 7121TIP3    H242779   5.320   5.753   1.197  0.2203 -0.7049  1.7541
 7122TIP3   OH242780   3.691   0.167   1.895 -0.5973  0.5096 -0.2788
 7122TIP3    H142781   3.783   0.190   1.881 -1.0656  1.6529 -1.7446
 7122TIP3    H242782   3.671   0.105   1.824 -0.9402  0.2008  0.0818
 7123TIP3   OH242783   6.010   0.939  16.056 -0.1203  0.1694 -0.6490
 7123TIP3    H142784   5.995   0.875  16.126  0.2408  1.0300  0.2432
 7123TIP3    H242785   5.998   0.889  15.975 -0.4937 -0.8672  0.0184
 7124TIP3   OH242786   1.358   4.986   0.871 -0.2226  0.5549 -0.0264
 7124TIP3    H142787   1.307   5.045   0.815  0.5396 -1.0935 -2.6248
 7124TIP3    H242788   1.308   4.905   0.873 -0.4616  0.6843  2.1921
 7125TIP3   OH242789   2.542   0.146   4.775 -0.6833  0.5831 -0.2479
 7125TIP3    H142790   2.477   0.105   4.717 -1.5781  1.1636  0.3171
 7125TIP3    H242791   2.491   0.172   4.852  0.3743  0.3502  0.5514
 7126TIP3   OH242792   5.491   1.115   5.527 -0.3005 -0.1307  0.1797
 7126TIP3    H142793   5.538   1.033   5.513 -2.1595 -1.1444 -0.3778
 7126TIP3    H242794   5.531   1.176   5.465  1.6572 -0.3217  1.1765
 7127TIP3   OH242795   2.797   6.589  10.826 -0.1669 -0.3255 -0.1594
 7127TIP3    H142796   2.788   6.505  10.781 -0.3349  0.1545 -1.0492
 7127TIP3    H242797   2.760   6.574  10.913  1.1876 -1.5928  0.2456
 7128TIP3   OH242798   2.285   0.896   2.268  0.1111 -0.1059 -0.3589
 7128TIP3    H142799   2.333   0.813   2.275  0.1589 -0.1065 -0.6892
 7128TIP3    H242800   2.350   0.963   2.290  0.2432 -0.1145 -0.7052
 7129TIP3   OH242801   5.738   2.400  11.600 -0.2387 -0.1899 -0.5636
 7129TIP3    H142802   5.686   2.339  11.547 -0.3491  1.2655 -2.2219
 7129TIP3    H242803   5.717   2.486  11.564  0.4494  0.7853  1.2498
 7130TIP3   OH242804   1.161   6.213  15.367  0.6258 -0.1527 -0.0089
 7130TIP3    H142805   1.201   6.238  15.451 -0.1699  1.2424 -0.0086
 7130TIP3    H242806   1.147   6.297  15.322 -2.8556 -0.4544  0.2592
 7131TIP3   OH242807   0.696   0.463  10.534 -0.1426 -0.4999 -0.1127
 7131TIP3    H142808   0.638   0.529  10.571 -0.2229 -0.3639 -0.4717
 7131TIP3    H242809   0.732   0.417  10.609 -1.1570 -0.9640  0.1006
 7132TIP3   OH242810   0.383   1.561   5.651 -0.1031 -0.4237  0.0622
 7132TIP3    H142811   0.359   1.481   5.699  1.0042 -0.4192  0.6720
 7132TIP3    H242812   0.377   1.536   5.559  0.1354 -1.1872  0.2402
 7133TIP3   OH242813   5.224   1.322   1.779 -0.2163 -0.4692 -0.2052
 7133TIP3    H142814   5.244   1.311   1.872 -0.1489  0.4674 -0.1008
 7133TIP3    H242815   5.235   1.234   1.741 -0.8467 -0.9963  0.7805
 7134TIP3   OH242816   6.130   3.190  15.296 -0.5071  0.0703  0.5343
 7134TIP3    H142817   6.078   3.132  15.352 -1.0765 -0.3871 -0.4327
 7134TIP3    H242818   6.149   3.137  15.219  1.9750 -0.0003  1.1081
 7135TIP3   OH242819   5.641   3.629   4.707  0.5143 -0.5789  0.2176
 7135TIP3    H142820   5.583   3.705   4.702  0.7823 -0.4041 -0.2796
 7135TIP3    H242821   5.587   3.560   4.745  0.1969 -0.2115  0.4391
 7136TIP3   OH242822   6.027   1.217  14.335  0.0574  0.2187 -0.9949
 7136TIP3    H142823   5.964   1.289  14.331 -0.6809 -0.2319  1.1345
 7136TIP3    H242824   6.020   1.174  14.249 -0.1045  2.1173 -1.9832
 7137TIP3   OH242825   4.835   3.802   0.421 -0.2580 -0.1354  0.4161
 7137TIP3    H142826   4.786   3.776   0.498  0.0100 -1.4711  0.1508
 7137TIP3    H242827   4.857   3.894   0.437 -0.6377 -0.2497  1.6882
 7138TIP3   OH242828   5.678   5.854   5.924 -0.6140  0.0571  0.3877
 7138TIP3    H142829   5.657   5.786   5.860 -1.5643  0.2813  0.4423
 7138TIP3    H242830   5.755   5.898   5.889  0.3856 -1.4313  0.6530
 7139TIP3   OH242831   2.655   5.427  11.124  0.0558  0.8247  0.1800
 7139TIP3    H142832   2.707   5.450  11.201  1.5579  1.5919 -1.0046
 7139TIP3    H242833   2.703   5.354  11.084 -1.4954 -0.5558  0.7081
 7140TIP3   OH242834   3.864   5.322   1.268  0.0860  0.0967  0.3847
 7140TIP3    H142835   3.945   5.368   1.288  0.9813 -0.1790 -2.2493
 7140TIP3    H242836   3.811   5.332   1.347  2.6546  0.2702  2.2129
 7141TIP3   OH242837   2.616   6.319  16.741  0.4925 -0.5120  0.3268
 7141TIP3    H142838   2.527   6.324  16.707  1.0503  0.2754 -1.1163
 7141TIP3    H242839   2.648   6.409  16.739  0.8045 -0.5078  2.3996
 7142TIP3   OH242840   5.911   3.798  10.892  0.0270 -0.3866  0.2382
 7142TIP3    H142841   5.835   3.831  10.844  0.2956  0.6398  0.4977
 7142TIP3    H242842   5.909   3.845  10.975  1.3297  0.1813 -0.0234
 7143TIP3   OH242843   5.645   0.613  10.305  0.7274 -0.2002  0.1441
 7143TIP3    H142844   5.576   0.679  10.307  0.6778 -0.2247 -0.5592
 7143TIP3    H242845   5.647   0.582  10.214  1.2785 -0.6059  0.2849
 7144TIP3   OH242846   3.041   5.175   0.704  0.3622 -0.7406 -0.0625
 7144TIP3    H142847   3.083   5.228   0.636  0.2622 -0.0851  0.3791
 7144TIP3    H242848   3.082   5.203   0.786 -0.0077 -1.0342  0.2285
 7145TIP3   OH242849   2.178   6.616  15.206 -1.5400  0.5985 -0.2880
 7145TIP3    H142850   2.122   6.589  15.134 -0.7282 -1.3553 -0.2557
 7145TIP3    H242851   2.149   6.564  15.281 -0.7275  0.7332  0.1402
 7146TIP3   OH242852   6.637   1.735  12.322 -0.3459 -0.2733 -0.5968
 7146TIP3    H142853   6.714   1.699  12.366 -0.5948  0.6771  0.6766
 7146TIP3    H242854   6.569   1.669  12.333  0.1658 -0.9406 -1.3785
 7147TIP3   OH242855   2.486   5.370  13.969  0.0300  0.1387  0.4537
 7147TIP3    H142856   2.436   5.432  14.022  0.4875  0.9781 -0.0656
 7147TIP3    H242857   2.467   5.394  13.879  0.1101 -0.5746  0.2378
 7148TIP3   OH242858   2.361   5.250  16.784  0.6389 -0.0095  0.2530
 7148TIP3    H142859   2.409   5.312  16.728 -0.9799  0.3913 -0.7461
 7148TIP3    H242860   2.297   5.304  16.830  0.0853 -0.7611  0.3770
 7149TIP3   OH242861   4.402   4.811   1.620  0.1286  0.2065 -0.4690
 7149TIP3    H142862   4.396   4.792   1.713 -0.2630  0.2114 -0.4929
 7149TIP3    H242863   4.471   4.876   1.613 -0.0477  0.4280 -0.1479
 7150TIP3   OH242864   0.900   0.637   3.694  0.0508 -0.3047 -0.0245
 7150TIP3    H142865   0.990   0.631   3.724  0.2855 -0.6316 -0.7544
 7150TIP3    H242866   0.872   0.726   3.717  0.9745  0.2302 -0.8923
 7151TIP3   OH242867   6.094   4.803  14.449 -0.0821 -0.1995  0.0538
 7151TIP3    H142868   6.133   4.765  14.370 -0.7216  1.1232 -0.9464
 7151TIP3    H242869   6.161   4.863  14.483 -1.1896  2.2727 -1.8124
 7152TIP3   OH242870   3.478   0.143  10.282 -0.5509 -0.0506  0.6594
 7152TIP3    H142871   3.569   0.163  10.301 -0.7912  0.6880  1.0922
 7152TIP3    H242872   3.429   0.219  10.315 -1.1050  0.8291 -1.9901
 7153TIP3   OH242873   6.125   6.056   5.167 -0.2580 -0.3502 -0.1102
 7153TIP3    H142874   6.091   6.049   5.078 -0.4723 -1.2584  0.0368
 7153TIP3    H242875   6.190   5.987   5.174 -0.6475 -0.6542  0.6139
 7154TIP3   OH242876   2.113   3.419   6.359  0.1661 -0.5306  0.0456
 7154TIP3    H142877   2.072   3.429   6.445 -0.2612  0.7659 -0.3001
 7154TIP3    H242878   2.185   3.482   6.359 -1.2995  1.2317 -1.4082
 7155TIP3   OH242879   5.004   6.343  15.681 -0.0129 -0.4365 -0.4634
 7155TIP3    H142880   4.940   6.278  15.654 -0.5309 -0.2973  0.4163
 7155TIP3    H242881   4.961   6.393  15.750  0.5914  0.4627 -0.7226
 7156TIP3   OH242882   2.891   6.786   1.968 -0.1573  0.3087 -0.4361
 7156TIP3    H142883   2.972   6.738   1.986 -0.1681  0.2456 -0.5556
 7156TIP3    H242884   2.830   6.757   2.036 -0.1516  0.1828 -0.4853
 7157TIP3   OH242885   5.790   4.483  16.576 -0.3551 -0.1654  0.2282
 7157TIP3    H142886   5.813   4.427  16.502  0.5818  0.8722 -0.2748
 7157TIP3    H242887   5.873   4.523  16.603 -1.2026  2.2215 -0.4475
 7158TIP3   OH242888   3.614   5.283   4.239  0.3859 -0.1656 -0.1375
 7158TIP3    H142889   3.536   5.241   4.273  1.2994 -0.1920  2.1170
 7158TIP3    H242890   3.602   5.285   4.144 -1.8131 -1.1527  0.0773
 7159TIP3   OH242891   5.151   5.399   3.717  0.0781  0.0204  0.2190
 7159TIP3    H142892   5.177   5.452   3.793  2.9033 -1.0878  0.1551
 7159TIP3    H242893   5.102   5.326   3.755  1.7977 -0.7338  1.1069
 7160TIP3   OH242894   5.913   5.019  10.536  0.3923  0.2241 -0.3884
 7160TIP3    H142895   5.915   5.051  10.446 -0.1324 -1.3464 -0.9992
 7160TIP3    H242896   5.821   4.999  10.552  0.2478  1.8089  1.0218
 7161TIP3   OH242897   2.493   2.679  12.353  0.2925 -0.1762  0.3760
 7161TIP3    H142898   2.546   2.730  12.292 -0.7810  1.0986  0.4661
 7161TIP3    H242899   2.530   2.590  12.349  1.1395  0.2134 -1.0381
 7162TIP3   OH242900   0.420   6.079   2.353  0.2953  0.1412 -0.1730
 7162TIP3    H142901   0.417   6.150   2.289 -0.6076 -0.6464 -1.0437
 7162TIP3    H242902   0.446   6.002   2.302 -0.1647 -0.4516  0.4684
 7163TIP3   OH242903   2.427   3.336  13.780  0.1241  0.8469  0.7696
 7163TIP3    H142904   2.445   3.247  13.750 -0.9170  0.3924  1.4402
 7163TIP3    H242905   2.501   3.357  13.837 -0.5558 -0.3639  2.1827
 7164TIP3   OH242906   3.368   5.011   6.046  0.8673  0.9071  0.0193
 7164TIP3    H142907   3.378   4.933   6.102  0.1515  1.5303  1.0620
 7164TIP3    H242908   3.430   4.997   5.975 -1.5163 -2.2390 -1.7172
 7165TIP3   OH242909   4.352   3.571   5.071 -0.4243  0.6817 -0.5203
 7165TIP3    H142910   4.447   3.568   5.083 -0.4740  1.7511  0.2518
 7165TIP3    H242911   4.321   3.636   5.134 -1.5046  1.5116 -1.8507
 7166TIP3   OH242912   6.291   1.560  10.660 -0.7652 -0.2346  0.7793
 7166TIP3    H142913   6.282   1.466  10.645 -1.1011 -0.2159  0.8571
 7166TIP3    H242914   6.222   1.600  10.607 -1.2463 -0.1006  1.4826
 7167TIP3   OH242915   3.531   5.679   5.441 -0.3178  0.2905  0.0106
 7167TIP3    H142916   3.627   5.673   5.446 -0.3126  0.4318  0.0857
 7167TIP3    H242917   3.514   5.719   5.356 -0.2152  2.4322  0.9374
 7168TIP3   OH242918   2.927   5.495   5.162 -0.3102  0.3951  0.3223
 7168TIP3    H142919   2.912   5.513   5.070  0.8042 -1.1401 -0.1885
 7168TIP3    H242920   2.971   5.574   5.195  0.8584  0.2709 -0.8785
 7169TIP3   OH242921   6.412   6.493   2.327  0.3435 -0.3937 -0.4802
 7169TIP3    H142922   6.350   6.470   2.257  0.5788 -2.7071  0.0051
 7169TIP3    H242923   6.440   6.409   2.363  1.5163  0.6998  1.2987
 7170TIP3   OH242924   3.960   5.514  14.997  0.0051  0.1231 -0.2045
 7170TIP3    H142925   3.947   5.501  15.091 -1.5558 -1.9614 -0.6552
 7170TIP3    H242926   4.024   5.447  14.972 -0.2598  0.0830 -0.7921
 7171TIP3   OH242927   4.598   0.425  13.344  0.4539  0.1379  0.6682
 7171TIP3    H142928   4.661   0.364  13.305  0.2497  0.9178 -0.9575
 7171TIP3    H242929   4.521   0.371  13.362 -0.4475  0.1583 -2.5171
 7172TIP3   OH242930   2.417   6.289   1.111  1.1054  0.0299  0.1069
 7172TIP3    H142931   2.343   6.348   1.121  2.5650  1.8791  0.7362
 7172TIP3    H242932   2.379   6.201   1.113 -0.8972  0.8391  2.1379
 7173TIP3   OH242933   0.868   2.118  12.673 -0.8007 -0.0694 -0.2096
 7173TIP3    H142934   0.923   2.134  12.751 -1.1814 -0.7230  0.2022
 7173TIP3    H242935   0.837   2.204  12.648  1.3913  0.5140 -1.1987
 7174TIP3   OH242936   2.380   0.500  15.752 -0.1355  0.1441  0.0180
 7174TIP3    H142937   2.414   0.575  15.800 -0.0050 -0.1670  0.4163
 7174TIP3    H242938   2.453   0.470  15.697  0.2486 -0.5279  0.8776
 7175TIP3   OH242939   6.530   3.143  13.917  0.4031  0.1280 -0.3017
 7175TIP3    H142940   6.470   3.102  13.854 -0.8993 -0.2150  1.1058
 7175TIP3    H242941   6.582   3.203  13.864 -1.0166  0.2595 -1.6299
 7176TIP3   OH242942   4.354   6.507  15.017  0.0790  0.1988  0.3037
 7176TIP3    H142943   4.432   6.563  15.017  0.7857 -0.7475 -0.5842
 7176TIP3    H242944   4.360   6.457  15.098 -0.1599  0.8600  0.7371
 7177TIP3   OH242945   1.465   1.253  13.162 -0.3549  0.1808 -0.8787
 7177TIP3    H142946   1.453   1.159  13.176 -1.1089  0.5755  1.6608
 7177TIP3    H242947   1.395   1.277  13.102 -0.5294 -0.7701 -1.0805
 7178TIP3   OH242948   5.460   5.608   2.400  0.6670  0.1487 -0.2665
 7178TIP3    H142949   5.453   5.662   2.480  0.0549  0.7134 -0.6885
 7178TIP3    H242950   5.375   5.566   2.392  0.5186  0.5604 -0.9403
 7179TIP3   OH242951   5.417   5.614   0.431  0.0713 -0.3495 -0.1292
 7179TIP3    H142952   5.475   5.539   0.413  0.6646 -0.3934  1.7806
 7179TIP3    H242953   5.329   5.580   0.416  0.3403 -1.4409  0.6411
 7180TIP3   OH242954   6.780   3.747   1.725  0.2995  0.2236 -0.1503
 7180TIP3    H142955   6.872   3.728   1.704  0.3042  0.7168 -0.6123
 7180TIP3    H242956   6.740   3.661   1.736  0.7728 -0.0021 -0.1382
 7181TIP3   OH242957   4.030   2.917  14.019 -0.2643  0.0408 -0.0632
 7181TIP3    H142958   3.992   2.863  13.949 -1.1505  1.4068 -0.6651
 7181TIP3    H242959   3.999   3.006  14.001  0.5989  0.6526  1.3053
 7182TIP3   OH242960   2.668   4.882   0.493  0.1291 -0.6119  0.2062
 7182TIP3    H142961   2.686   4.858   0.584  1.7246 -0.7062 -0.1054
 7182TIP3    H242962   2.726   4.825   0.442 -1.0385 -0.8438 -0.8957
 7183TIP3   OH242963   1.458   2.116   0.209 -0.6348  0.1444 -0.1155
 7183TIP3    H142964   1.417   2.038   0.170  0.3433 -0.5522  0.1907
 7183TIP3    H242965   1.551   2.093   0.213 -0.1552  1.7914 -1.0688
 7184TIP3   OH242966   4.976   4.207  10.380  0.1092  0.3278 -0.4147
 7184TIP3    H142967   5.069   4.223  10.366 -0.2682  1.5776 -1.7354
 7184TIP3    H242968   4.948   4.157  10.303 -0.2498 -0.3534  0.1432
 7185TIP3   OH242969   4.532   5.602   4.773 -0.3397 -0.2073  0.0389
 7185TIP3    H142970   4.621   5.571   4.756 -0.1633 -0.6354  1.6210
 7185TIP3    H242971   4.538   5.697   4.766 -0.2499 -0.3083 -1.9482
 7186TIP3   OH242972   5.966   1.002  13.202  0.0285  0.2988  0.0003
 7186TIP3    H142973   5.927   0.961  13.279 -0.6478  1.0152  0.0436
 7186TIP3    H242974   6.050   0.956  13.190 -0.2717 -0.4238  0.6210
 7187TIP3   OH242975   2.234   2.595   3.270 -0.6505  0.5665  0.0294
 7187TIP3    H142976   2.192   2.532   3.210  2.8515 -1.3091 -0.7126
 7187TIP3    H242977   2.225   2.555   3.356 -0.0204 -0.0743 -0.1910
 7188TIP3   OH242978   1.460   6.259  12.591 -0.5715  0.1317  0.2965
 7188TIP3    H142979   1.376   6.303  12.579  0.1243  1.2642 -0.6732
 7188TIP3    H242980   1.510   6.281  12.512 -0.3128 -2.7738 -0.4985
 7189TIP3   OH242981   2.242   0.125  11.756  0.3735  0.0503 -0.8077
 7189TIP3    H142982   2.189   0.055  11.795  0.5175  0.8175  0.8369
 7189TIP3    H242983   2.306   0.079  11.702 -2.8650 -0.8865 -4.2295
 7190TIP3   OH242984   3.952   5.088  13.198 -0.1660  0.0897 -0.0345
 7190TIP3    H142985   3.955   5.129  13.285 -0.9147  0.3367 -0.1241
 7190TIP3    H242986   3.859   5.088  13.174  0.0907  0.4644 -1.0579
 7191TIP3   OH242987   4.832   4.081  15.760  0.3606  0.0349  0.7221
 7191TIP3    H142988   4.803   4.172  15.750 -1.1993 -0.6100 -1.2822
 7191TIP3    H242989   4.760   4.029  15.725  1.8572 -1.9264  0.4030
 7192TIP3   OH242990   3.565   5.125   1.130  0.1519  0.1470 -0.1022
 7192TIP3    H142991   3.582   5.165   1.045  1.0361 -0.2446 -0.1166
 7192TIP3    H242992   3.469   5.118   1.134  0.0757  0.6938 -0.8151
 7193TIP3   OH242993   3.521   4.678   1.722 -0.4721  0.0412 -0.4020
 7193TIP3    H142994   3.509   4.667   1.816  0.9882  1.7238  0.0309
 7193TIP3    H242995   3.519   4.588   1.687 -2.0206 -0.5475  1.0590
 7194TIP3   OH242996   1.933   0.468   5.660 -0.0137  0.4470  0.0303
 7194TIP3    H142997   1.955   0.393   5.604  0.8295 -0.0949  1.0586
 7194TIP3    H242998   1.961   0.442   5.748 -0.9557  1.4370  0.6499
 7195TIP3   OH242999   2.736   5.951  12.199 -0.0691  0.0907  0.5467
 7195TIP3    H143000   2.785   5.978  12.122 -0.7893  1.0821  0.4105
 7195TIP3    H243001   2.762   5.860  12.214  1.2686  0.3771  0.0847
 7196TIP3   OH243002   3.301   2.144  10.593 -0.5584 -0.0752 -0.1825
 7196TIP3    H143003   3.321   2.218  10.537  0.0725 -0.5147 -0.5540
 7196TIP3    H243004   3.332   2.068  10.544 -0.7754 -0.5404  0.3910
 7197TIP3   OH243005   3.012   2.114  15.216 -0.0840 -0.6214  0.3955
 7197TIP3    H143006   3.043   2.044  15.158  0.2909 -1.2567  1.3215
 7197TIP3    H243007   2.999   2.189  15.159  2.1285 -0.6472 -0.2526
 7198TIP3   OH243008   1.542   5.488   1.108  0.6402 -0.1567  0.3654
 7198TIP3    H143009   1.512   5.536   1.030 -1.8603  0.9442  1.8579
 7198TIP3    H243010   1.477   5.418   1.119  1.4015 -0.7703  1.0471
 7199TIP3   OH243011   3.080   6.593   5.222 -0.0154 -0.0286  0.2736
 7199TIP3    H143012   3.171   6.615   5.242 -0.2585  0.6949  0.6328
 7199TIP3    H243013   3.081   6.499   5.205  0.9096  0.0902 -0.3823
 7200TIP3   OH243014   3.910   3.935  13.601 -0.2162 -0.6745  0.3455
 7200TIP3    H143015   3.977   3.873  13.629 -0.1907 -1.1395 -0.6859
 7200TIP3    H243016   3.931   3.953  13.509  0.6172  1.9531  0.9792
 7201TIP3   OH243017   0.232   0.526   4.431  0.5457  0.0343 -0.2896
 7201TIP3    H143018   0.265   0.615   4.444  2.8754 -0.8396  0.3063
 7201TIP3    H243019   0.286   0.472   4.489 -0.1359 -1.9118 -1.3748
 7202TIP3   OH243020   2.994   5.207  15.241 -0.8652  0.2068 -0.6072
 7202TIP3    H143021   3.016   5.118  15.268  1.8070  0.4520 -1.7007
 7202TIP3    H243022   2.898   5.207  15.233 -0.9733 -2.3886 -0.1051
 7203TIP3   OH243023   2.845   4.933   5.710 -0.0083 -0.3108 -0.0643
 7203TIP3    H143024   2.934   4.948   5.677  0.6410 -2.7707  0.4125
 7203TIP3    H243025   2.841   4.981   5.793  0.4838  0.6703 -0.5883
 7204TIP3   OH243026   1.310   2.254  13.908  0.1306 -0.0742 -0.3560
 7204TIP3    H143027   1.294   2.191  13.838 -0.5903  1.0924 -1.2733
 7204TIP3    H243028   1.226   2.261  13.953 -0.0190  0.8315 -0.7713
 7205TIP3   OH243029   3.209   0.529  14.947 -0.7328 -0.2536 -0.0474
 7205TIP3    H143030   3.278   0.559  14.889  1.6654 -0.9423  2.2629
 7205TIP3    H243031   3.188   0.441  14.915 -1.7208  0.5276 -1.6797
 7206TIP3   OH243032   3.231   5.113  15.841 -0.1377 -0.1543  0.2231
 7206TIP3    H143033   3.235   5.194  15.892 -2.2107 -0.3279  0.7581
 7206TIP3    H243034   3.319   5.103  15.804  0.5519  1.5850  1.2839
 7207TIP3   OH243035   6.142   1.539   3.466  0.6663 -1.0624 -0.0053
 7207TIP3    H143036   6.106   1.454   3.442 -0.8929 -0.4600  0.0886
 7207TIP3    H243037   6.155   1.535   3.561 -1.3187 -0.5664  0.3415
 7208TIP3   OH243038   6.702   1.901  15.480 -0.4184  1.0801 -0.3074
 7208TIP3    H143039   6.687   1.985  15.523  1.2421  0.8242  0.9005
 7208TIP3    H243040   6.650   1.838  15.531 -2.0590  1.3917 -1.5139
 7209TIP3   OH243041   1.059   2.898   0.256  0.6514  0.0138  0.0451
 7209TIP3    H143042   0.984   2.899   0.316 -0.1794  0.2485 -0.9801
 7209TIP3    H243043   1.132   2.930   0.309 -0.1230  0.4721  0.8606
 7210TIP3   OH243044   3.252   3.144  14.954 -0.0168 -0.2407  0.0105
 7210TIP3    H143045   3.347   3.143  14.949  0.0993  1.0422  1.2702
 7210TIP3    H243046   3.223   3.152  14.863  1.1341  0.8534 -0.2933
 7211TIP3   OH243047   6.139   2.476   4.376 -0.2408  0.6164 -0.0341
 7211TIP3    H143048   6.129   2.488   4.470 -1.7962  1.7565 -0.2914
 7211TIP3    H243049   6.112   2.560   4.339 -0.6642 -0.1522 -1.5424
 7212TIP3   OH243050   4.684   2.689  16.668  0.1990 -0.3074 -0.5036
 7212TIP3    H143051   4.640   2.694  16.753  0.1422 -0.6066 -0.5124
 7212TIP3    H243052   4.612   2.690  16.604  0.2935  1.0990 -0.6026
 7213TIP3   OH243053   2.815   0.235   3.403 -0.4882 -0.5748 -0.1578
 7213TIP3    H143054   2.844   0.190   3.482  1.4640  1.7242  0.5263
 7213TIP3    H243055   2.727   0.266   3.424 -0.2541 -0.5688  0.8317
 7214TIP3   OH243056   1.551   2.228  14.042 -0.0464 -0.1319 -0.6803
 7214TIP3    H143057   1.483   2.231  13.975 -0.5968  0.2371 -0.1125
 7214TIP3    H243058   1.541   2.310  14.091  0.5158 -0.2784 -0.3070
 7215TIP3   OH243059   1.324   5.571  13.709  0.2385  0.0429 -0.3525
 7215TIP3    H143060   1.333   5.645  13.769  1.0193  1.5417 -2.2104
 7215TIP3    H243061   1.411   5.533  13.705  0.0231 -0.5030 -0.0339
 7216TIP3   OH243062   0.939   0.501  12.242 -0.1598 -0.0676  0.1460
 7216TIP3    H143063   1.033   0.488  12.230 -0.4848 -1.4520 -1.2475
 7216TIP3    H243064   0.928   0.596  12.239  1.2430  0.1492  0.9035
 7217TIP3   OH243065   2.814   1.852   3.854  0.0357  0.0854  0.2336
 7217TIP3    H143066   2.848   1.815   3.773  1.7495  1.0326  0.4623
 7217TIP3    H243067   2.784   1.940   3.829 -1.1737 -0.3062  0.2744
 7218TIP3   OH243068   3.894   2.667  12.935 -0.3517  0.3425 -0.2660
 7218TIP3    H143069   3.820   2.663  12.997 -1.0641 -1.5075 -1.1463
 7218TIP3    H243070   3.867   2.610  12.863  1.2161  1.0441 -1.4519
 7219TIP3   OH243071   0.990   5.790   5.267  0.5138  0.0946 -0.0439
 7219TIP3    H143072   1.039   5.869   5.245 -1.2758  0.5229 -3.0869
 7219TIP3    H243073   1.055   5.720   5.266  1.5198  0.9968 -1.2517
 7220TIP3   OH243074   4.192   4.535   4.686  0.2305  0.1642  0.3310
 7220TIP3    H143075   4.148   4.450   4.688  0.4183  0.0549  0.0679
 7220TIP3    H243076   4.240   4.540   4.768  3.1438 -1.6008 -1.0827
 7221TIP3   OH243077   5.266   3.675  15.304  0.3678 -0.8434 -0.4472
 7221TIP3    H143078   5.261   3.706  15.213 -0.3457  0.1369 -0.0893
 7221TIP3    H243079   5.188   3.620  15.314 -0.6625  0.6364  0.1159
 7222TIP3   OH243080   5.330   4.547  13.994  0.3999 -0.4141  0.0522
 7222TIP3    H143081   5.236   4.554  14.010  0.3475  0.9218 -0.6922
 7222TIP3    H243082   5.338   4.498  13.913  0.1887  1.6876 -1.3085
 7223TIP3   OH243083   5.474   2.520  16.362  0.0078 -0.0026 -0.5057
 7223TIP3    H143084   5.391   2.478  16.384 -0.1929  0.4496 -0.3707
 7223TIP3    H243085   5.520   2.457  16.308 -0.3582 -0.3227 -0.4486
 7224TIP3   OH243086   2.451   2.918  14.257 -0.1707 -0.5423  0.0512
 7224TIP3    H143087   2.495   2.924  14.173 -2.2422 -2.1671 -1.2483
 7224TIP3    H243088   2.504   2.856  14.308  0.9029  0.1852 -0.1485
 7225TIP3   OH243089   0.512   6.490  11.892 -0.2388 -0.7712 -0.2209
 7225TIP3    H143090   0.581   6.424  11.901  0.4276  0.0383  1.0481
 7225TIP3    H243091   0.453   6.473  11.965  0.1908  0.2824  0.4015
 7226TIP3   OH243092   3.187   3.011  10.807  0.3747  0.6066  0.1214
 7226TIP3    H143093   3.170   2.918  10.793  1.5899  0.5528 -1.2619
 7226TIP3    H243094   3.137   3.055  10.738  0.4990  0.9111  0.2233
 7227TIP3   OH243095   4.943   5.819   5.342 -0.5176  0.3422 -0.3726
 7227TIP3    H143096   4.938   5.817   5.246 -0.5259 -2.7960 -0.4256
 7227TIP3    H243097   4.860   5.859   5.369 -1.4326 -0.5496 -1.6961
 7228TIP3   OH243098   6.504   6.351   3.763  1.0984  0.0693 -0.2175
 7228TIP3    H143099   6.468   6.438   3.743 -0.5786 -0.6265 -0.3981
 7228TIP3    H243100   6.541   6.321   3.680 -0.8436 -0.5096 -0.9327
 7229TIP3   OH243101   1.130   3.561   3.656 -0.0329  0.2709  0.5278
 7229TIP3    H143102   1.123   3.636   3.596  2.4408 -0.0403 -0.2924
 7229TIP3    H243103   1.080   3.491   3.614  1.0673  0.2753 -0.8855
 7230TIP3   OH243104   3.832   5.460   0.550 -0.5597 -0.1454 -0.6188
 7230TIP3    H143105   3.848   5.552   0.570  1.2793 -0.6664  0.5756
 7230TIP3    H243106   3.808   5.421   0.634 -0.2196 -0.9566 -0.8913
 7231TIP3   OH243107   4.729   5.341   6.746  0.6303 -0.1215 -0.5880
 7231TIP3    H143108   4.724   5.246   6.749 -0.3286 -0.0563  1.2134
 7231TIP3    H243109   4.812   5.359   6.702  2.4351 -1.8613  1.7720
 7232TIP3   OH243110   1.694   0.447  13.908  0.1183 -0.7901  0.3867
 7232TIP3    H143111   1.682   0.399  13.990 -1.9305 -0.9812  0.0368
 7232TIP3    H243112   1.744   0.525  13.932  0.0455 -1.1356  1.7043
 7233TIP3   OH243113   3.533   6.467  15.243 -0.3244  0.1075  0.0789
 7233TIP3    H143114   3.453   6.520  15.247 -1.8033 -2.0478  1.0386
 7233TIP3    H243115   3.553   6.461  15.150 -0.2061  2.1278 -0.0749
 7234TIP3   OH243116   2.391   2.567  11.589 -0.0237  0.2177  0.0574
 7234TIP3    H143117   2.345   2.503  11.535  1.8294 -1.6522  0.5739
 7234TIP3    H243118   2.449   2.613  11.528  1.5602 -1.4229  0.2156
 7235TIP3   OH243119   2.473   6.651  16.846  0.9059  0.2006  0.1239
 7235TIP3    H143120   2.479   6.745  16.831  2.7744  0.0539 -0.2673
 7235TIP3    H243121   2.544   6.613  16.795 -0.6772 -1.5936 -0.8848
 7236TIP3   OH243122   2.107   0.142   2.112 -0.0027 -0.1683  0.1713
 7236TIP3    H143123   2.195   0.163   2.143  0.2805 -0.2630 -0.5451
 7236TIP3    H243124   2.117   0.056   2.071 -0.2191  0.2469 -0.7698
 7237TIP3   OH243125   5.838   6.524  15.524  0.4468 -0.1817  0.4448
 7237TIP3    H143126   5.809   6.498  15.612  0.3417 -0.8070  0.2254
 7237TIP3    H243127   5.798   6.460  15.466 -0.0233  0.6173 -0.1307
 7238TIP3   OH243128   1.021   3.415   2.554  0.1343  0.4301 -0.8400
 7238TIP3    H143129   1.024   3.467   2.633  0.5673  2.6809 -2.2571
 7238TIP3    H243130   0.948   3.354   2.568  0.1339  0.8399  1.1962
 7239TIP3   OH243131   5.815   0.620   4.420 -0.3164  0.5594 -0.1250
 7239TIP3    H143132   5.785   0.529   4.422  0.1553  0.3491 -1.4095
 7239TIP3    H243133   5.739   0.672   4.445 -0.0143 -0.2729  2.8430
 7240TIP3   OH243134   4.464   4.415   0.080  0.3026 -0.0203 -0.2499
 7240TIP3    H143135   4.443   4.323   0.097  1.2467 -0.7796 -2.7573
 7240TIP3    H243136   4.400   4.443   0.014  2.1615 -0.0346 -2.1756
 7241TIP3   OH243137   2.098   2.603  11.731  0.6324 -0.7459  0.2892
 7241TIP3    H143138   2.043   2.650  11.669 -0.0902 -1.1877  0.5733
 7241TIP3    H243139   2.186   2.606  11.693  0.4754  0.2517 -0.0113
 7242TIP3   OH243140   1.730   6.681  12.112  0.3090 -0.5423  0.0051
 7242TIP3    H143141   1.666   6.728  12.059 -0.4596 -1.4716  0.0955
 7242TIP3    H243142   1.720   6.718  12.200 -0.4156 -0.9932  0.1153
 7243TIP3   OH243143   3.065   1.168  12.505 -0.3988 -0.1485 -0.0458
 7243TIP3    H143144   3.075   1.108  12.578  0.5937 -1.0772 -0.9020
 7243TIP3    H243145   3.095   1.118  12.429  1.6699  1.7981 -0.6171
 7244TIP3   OH243146   5.824   2.198  11.257 -0.3401  0.1571  0.0949
 7244TIP3    H143147   5.788   2.243  11.334  0.5234  1.1733 -0.0712
 7244TIP3    H243148   5.796   2.107  11.268 -1.7883  0.6290  0.6641
 7245TIP3   OH243149   6.659   4.742   3.895 -0.0956  0.2012  0.3055
 7245TIP3    H143150   6.588   4.755   3.832  0.3168  0.9193 -0.0311
 7245TIP3    H243151   6.730   4.704   3.843 -0.2298 -0.5134  0.6391
 7246TIP3   OH243152   3.764   4.831  12.314  0.2885  0.2357  0.6721
 7246TIP3    H143153   3.853   4.797  12.319 -0.1094 -0.8825  0.4352
 7246TIP3    H243154   3.719   4.793  12.390 -0.9100 -2.1208 -1.0894
 7247TIP3   OH243155   5.219   5.352   3.239 -0.6418  0.0028 -0.3296
 7247TIP3    H143156   5.250   5.427   3.290 -0.8179 -0.3375  0.2884
 7247TIP3    H243157   5.154   5.311   3.295  1.2376 -2.0946  0.4675
 7248TIP3   OH243158   5.251   4.786   1.910 -0.1276 -0.3333 -0.3367
 7248TIP3    H143159   5.163   4.783   1.946 -0.1876  1.6753 -0.2004
 7248TIP3    H243160   5.239   4.812   1.818  0.3399  1.9567  0.1760
 7249TIP3   OH243161   5.034   3.356  11.562  0.4770  0.6275 -0.6868
 7249TIP3    H143162   5.118   3.383  11.599  0.4850 -0.0230 -0.2254
 7249TIP3    H243163   4.973   3.425  11.590  0.4711  0.1340  0.5910
 7250TIP3   OH243164   6.301   6.045  16.097 -0.0445 -0.1658 -0.0978
 7250TIP3    H143165   6.382   5.996  16.078 -0.4052 -0.2810 -1.4201
 7250TIP3    H243166   6.308   6.124  16.044 -2.2988 -1.7309 -3.0756
 7251TIP3   OH243167   1.951   2.175  13.799 -0.0969  0.2458 -0.1557
 7251TIP3    H143168   1.925   2.228  13.724  0.7964 -0.9860 -1.3792
 7251TIP3    H243169   2.041   2.202  13.818  0.6439 -1.3237 -1.2858
 7252TIP3   OH243170   3.534   3.148   3.643  0.2563 -0.0042 -0.8371
 7252TIP3    H143171   3.588   3.096   3.704  0.0451 -0.4712 -1.0432
 7252TIP3    H243172   3.582   3.144   3.560  0.0812 -0.1262 -0.9313
 7253TIP3   OH243173   5.268   0.429  16.643 -0.5087  0.2306  0.0649
 7253TIP3    H143174   5.258   0.340  16.679  1.0253  0.4629  1.1719
 7253TIP3    H243175   5.310   0.416  16.558 -0.3257 -0.1117  0.2040
 7254TIP3   OH243176   1.517   6.680   0.817  0.4249 -0.1453 -0.1999
 7254TIP3    H143177   1.523   6.625   0.895 -0.4037 -0.6866 -0.5026
 7254TIP3    H243178   1.599   6.728   0.815  0.3267  0.1365  1.1992
 7255TIP3   OH243179   4.734   5.207  10.864 -0.0609  0.1455 -0.3399
 7255TIP3    H143180   4.680   5.170  10.795  0.3657  2.2809 -1.9293
 7255TIP3    H243181   4.820   5.166  10.853 -0.1663  0.0138 -0.6757
 7256TIP3   OH243182   4.514   1.237   3.811 -0.5180 -0.7370 -0.1849
 7256TIP3    H143183   4.548   1.233   3.721  1.4115  0.4018  0.4338
 7256TIP3    H243184   4.592   1.232   3.866 -1.5297  0.0981  1.3864
 7257TIP3   OH243185   0.789   4.977   2.139  0.0332  0.1117  0.4299
 7257TIP3    H143186   0.863   4.998   2.198  0.2406  1.1036 -0.1607
 7257TIP3    H243187   0.813   4.893   2.101  0.8994  0.4435  0.2046
 7258TIP3   OH243188   5.141   2.022   4.882  0.4468 -0.0026 -0.5482
 7258TIP3    H143189   5.109   1.963   4.951  0.6944 -0.5810 -0.9131
 7258TIP3    H243190   5.235   2.007   4.880  0.6301  1.0518 -0.0651
 7259TIP3   OH243191   6.619   2.577  12.791 -0.9640  0.0741  0.0817
 7259TIP3    H143192   6.597   2.668  12.809 -0.6971 -0.0601  1.1387
 7259TIP3    H243193   6.677   2.580  12.715 -0.8359  0.7970  0.2062
 7260TIP3   OH243194   1.758   6.127   5.136  0.0272  0.4048 -0.1602
 7260TIP3    H143195   1.794   6.089   5.216  2.4606  1.8262 -0.4793
 7260TIP3    H243196   1.799   6.213   5.130 -0.0702  0.3446 -2.9256
 7261TIP3   OH243197   6.431   5.409   0.688 -0.3371  0.6654  0.3575
 7261TIP3    H143198   6.432   5.314   0.687 -1.7738  0.5335 -2.8679
 7261TIP3    H243199   6.507   5.434   0.739  1.2083 -2.2459 -0.3308
 7262TIP3   OH243200   5.687   4.315   4.043  0.1254  0.6993  0.6910
 7262TIP3    H143201   5.710   4.382   4.107  0.1359  0.7272  0.6584
 7262TIP3    H243202   5.706   4.356   3.958  3.5925 -0.5709  0.6901
 7263TIP3   OH243203   5.598   4.596  11.839  0.4899  0.3402  0.0561
 7263TIP3    H143204   5.536   4.660  11.806 -1.3008 -0.9393  0.8110
 7263TIP3    H243205   5.561   4.567  11.922  3.4814  1.4887  1.9767
 7264TIP3   OH243206   5.514   4.263  10.953 -0.4185  0.0873 -0.2443
 7264TIP3    H143207   5.577   4.304  11.013  0.8014 -2.2736  0.2274
 7264TIP3    H243208   5.430   4.302  10.976  0.4174  1.0942  1.2885
 7265TIP3   OH243209   5.462   5.415   2.183 -0.2603  0.7054 -0.0831
 7265TIP3    H143210   5.460   5.449   2.272 -1.9904  0.0992  0.1555
 7265TIP3    H243211   5.520   5.339   2.187 -2.2142 -0.8307  1.1700
 7266TIP3   OH243212   0.082   4.571  11.798  0.0525 -0.1260  0.0586
 7266TIP3    H143213   0.041   4.511  11.736  0.6794  0.0579 -0.5401
 7266TIP3    H243214   0.153   4.612  11.749  0.9514 -0.4321  1.0742
 7267TIP3   OH243215   2.532   4.723  15.661 -0.4724 -0.5112 -0.5118
 7267TIP3    H143216   2.572   4.774  15.731 -0.6034 -0.9306 -0.1213
 7267TIP3    H243217   2.497   4.788  15.600  0.6599 -0.1363 -0.7867
 7268TIP3   OH243218   5.313   3.964  15.127 -0.3451  0.1424  0.1471
 7268TIP3    H143219   5.343   3.873  15.125  2.4113  0.9719  0.6223
 7268TIP3    H243220   5.269   3.975  15.042 -0.3774 -1.5003 -0.1020
 7269TIP3   OH243221   1.255   6.117   5.483  0.2490 -0.0019 -0.1389
 7269TIP3    H143222   1.332   6.172   5.497 -0.5273  1.3450 -0.9433
 7269TIP3    H243223   1.189   6.151   5.543  0.1640 -0.9502  0.3295
 7270TIP3   OH243224   5.546   6.717  12.860  0.1502  0.7154 -0.2023
 7270TIP3    H143225   5.616   6.722  12.795 -0.5800 -1.1471 -1.2020
 7270TIP3    H243226   5.590   6.694  12.941  0.7539  0.0380 -0.7109
 7271TIP3   OH243227   3.645   1.478   1.720 -0.7577  0.1672  0.3390
 7271TIP3    H143228   3.694   1.560   1.719 -3.4505  1.9210 -0.1250
 7271TIP3    H243229   3.657   1.443   1.808  0.3186  1.1448  0.5984
 7272TIP3   OH243230   5.011   3.971   3.321  0.1047  0.0876  0.4697
 7272TIP3    H143231   5.081   4.035   3.310 -0.7605  1.1847  1.0436
 7272TIP3    H243232   4.951   3.989   3.248  0.6746 -1.2144 -0.3423
 7273TIP3   OH243233   5.810   6.233   5.484  0.3147  0.4175  0.1322
 7273TIP3    H143234   5.746   6.183   5.535  1.1874  0.7847  1.6581
 7273TIP3    H243235   5.872   6.168   5.451  0.9228  0.3719  1.3260
 7274TIP3   OH243236   6.240   1.439   0.782  0.2188 -0.2939  0.2053
 7274TIP3    H143237   6.304   1.392   0.836  1.1608  0.5987 -0.1113
 7274TIP3    H243238   6.292   1.477   0.711 -0.2894  2.1780  1.0637
 7275TIP3   OH243239   0.875   3.064  14.715 -0.4969 -0.1178  0.3312
 7275TIP3    H143240   0.880   3.046  14.809  0.7573 -0.7427  0.1609
 7275TIP3    H243241   0.924   2.993  14.674  0.5113  1.1122 -0.6917
 7276TIP3   OH243242   6.258   3.293  14.419 -0.2787 -0.3427 -0.1532
 7276TIP3    H143243   6.259   3.259  14.330 -0.6902 -1.2173  0.1564
 7276TIP3    H243244   6.218   3.222  14.471  0.6895 -0.1819  0.8562
 7277TIP3   OH243245   0.729   3.300  16.775 -0.0475 -0.0001 -0.1894
 7277TIP3    H143246   0.744   3.387  16.813 -0.7907  0.1048 -0.1273
 7277TIP3    H243247   0.773   3.304  16.689  0.8366  0.0705  0.2541
 7278TIP3   OH243248   2.478   0.509  15.350  0.0552  0.6617 -0.3704
 7278TIP3    H143249   2.388   0.479  15.366  0.3601 -0.4909 -0.7127
 7278TIP3    H243250   2.501   0.559  15.429 -1.5950  2.8014 -1.1400
 7279TIP3   OH243251   5.514   4.526   5.349 -0.2522  0.1386  0.3653
 7279TIP3    H143252   5.470   4.498   5.429 -0.1207  0.2962  0.4925
 7279TIP3    H243253   5.456   4.593   5.312 -0.8082 -0.6289 -0.1902
 7280TIP3   OH243254   5.345   1.266   0.756 -0.0549 -0.0301  0.1090
 7280TIP3    H143255   5.276   1.199   0.763 -0.6458  0.4986 -0.4626
 7280TIP3    H243256   5.419   1.220   0.718  0.1811 -0.7917  1.4249
 7281TIP3   OH243257   0.888   6.422   3.287 -0.2252  0.1223 -0.0172
 7281TIP3    H143258   0.847   6.348   3.330 -1.1778  1.1791  0.9329
 7281TIP3    H243259   0.982   6.401   3.287 -0.6459 -2.1418 -1.8897
 7282TIP3   OH243260   6.534   1.954  14.940 -0.8225 -0.5295 -0.0470
 7282TIP3    H143261   6.548   1.999  15.023  0.3384  0.7701 -0.9127
 7282TIP3    H243262   6.599   1.992  14.881 -1.1315 -1.9653 -1.3519
 7283TIP3   OH243263   4.168   1.232   1.700  0.5600 -0.3722 -0.0601
 7283TIP3    H143264   4.101   1.300   1.693  0.8596  0.1081  1.5100
 7283TIP3    H243265   4.131   1.157   1.654 -1.8593 -0.7258  2.2805
 7284TIP3   OH243266   1.544   0.176   0.672  0.0799  0.1822 -0.0612
 7284TIP3    H143267   1.602   0.101   0.659  0.5310  0.5890 -0.3923
 7284TIP3    H243268   1.456   0.141   0.656  0.2667 -0.3276  0.0099
 7285TIP3   OH243269   2.296   2.188   2.305 -0.0500 -0.4679 -0.5298
 7285TIP3    H143270   2.260   2.273   2.331 -0.1182 -0.4284 -0.7474
 7285TIP3    H243271   2.244   2.162   2.229  0.2597 -0.4960 -0.7346
 7286TIP3   OH243272   3.952   4.522   1.275 -0.1922 -0.5061 -0.0196
 7286TIP3    H143273   4.017   4.545   1.209 -0.8182 -3.1054 -1.6974
 7286TIP3    H243274   3.999   4.465   1.336  0.1999  1.3197  1.4725
 7287TIP3   OH243275   5.613   1.918  16.227  0.1144  0.3084  0.1063
 7287TIP3    H143276   5.643   2.003  16.193  4.1664 -0.7627  0.5619
 7287TIP3    H243277   5.586   1.937  16.317  1.5975  1.0671  0.4269
 7288TIP3   OH243278   6.499   1.565   4.129  0.1593  0.4501 -0.1630
 7288TIP3    H143279   6.515   1.475   4.159 -1.4217  0.3026  0.3075
 7288TIP3    H243280   6.534   1.620   4.200 -3.2811  0.1101  2.0408
 7289TIP3   OH243281   4.757   1.338   2.647  0.4213  0.4392 -0.0915
 7289TIP3    H143282   4.846   1.305   2.631  0.1444 -0.7812  0.7810
 7289TIP3    H243283   4.705   1.302   2.575  0.5515  0.8722 -0.4099
 7290TIP3   OH243284   1.399   2.328   0.009  0.7971 -0.6458 -0.0475
 7290TIP3    H143285   1.412   2.265  -0.062  2.1761 -0.4644  0.0153
 7290TIP3    H243286   1.414   2.277   0.089  1.1242 -0.4209  0.0354
 7291TIP3   OH243287   1.852   5.899  13.430  0.0391  0.1991 -0.1583
 7291TIP3    H143288   1.812   5.966  13.486  0.2077  0.3909 -0.2624
 7291TIP3    H243289   1.783   5.874  13.369  0.2915  1.0675 -0.8173
 7292TIP3   OH243290   1.176   6.240  12.143 -0.0912  0.0939 -0.3812
 7292TIP3    H143291   1.252   6.190  12.113  0.4823 -0.0031  1.1503
 7292TIP3    H243292   1.205   6.331  12.143 -0.0671  0.0864 -0.0583
 7293TIP3   OH243293   1.069   6.431   3.046  0.4820  0.0364 -0.0426
 7293TIP3    H143294   1.103   6.509   3.003 -1.1812 -0.2005 -1.9338
 7293TIP3    H243295   0.974   6.440   3.039  0.2401 -1.6496  0.6457
 7294TIP3   OH243296   5.553   0.429  15.963 -0.5930  0.2161  0.1524
 7294TIP3    H143297   5.569   0.420  15.869 -0.6112 -1.0732  0.2651
 7294TIP3    H243298   5.626   0.384  16.005 -1.9277 -1.5308  0.7204
 7295TIP3   OH243299   2.823   5.469  16.720  0.8246  0.3230  0.3227
 7295TIP3    H143300   2.863   5.544  16.763  3.0965 -0.8196  0.3468
 7295TIP3    H243301   2.823   5.492  16.627  0.4382  0.8216  0.4461
 7296TIP3   OH243302   3.209   6.190   3.752 -0.5898 -0.4583  0.4629
 7296TIP3    H143303   3.184   6.141   3.830  0.2243 -1.3521  0.1792
 7296TIP3    H243304   3.161   6.272   3.759 -3.2978 -1.9050  0.1231
 7297TIP3   OH243305   6.552   2.957   1.189  0.4030 -0.0767 -0.5729
 7297TIP3    H143306   6.526   2.984   1.101 -1.1902  1.1420  0.2109
 7297TIP3    H243307   6.519   2.868   1.198 -0.5021  0.2297 -0.7939
 7298TIP3   OH243308   4.581   6.709   2.982 -0.2769  0.3129 -0.7457
 7298TIP3    H143309   4.512   6.657   3.025 -1.6515  2.3392 -0.3479
 7298TIP3    H243310   4.621   6.648   2.920 -0.0159 -1.9636  1.4877
 7299TIP3   OH243311   5.195   2.105   3.571  0.2020 -0.4470  0.5501
 7299TIP3    H143312   5.289   2.124   3.566  0.1333 -0.3861 -0.8918
 7299TIP3    H243313   5.185   2.052   3.650  0.9334  2.3960  2.6950
 7300TIP3   OH243314   3.819   1.982   4.345  0.6976  0.4316  0.1929
 7300TIP3    H143315   3.732   2.021   4.334  0.6696  0.7214  1.2886
 7300TIP3    H243316   3.814   1.939   4.430  1.9526  1.3601  0.7616
 7301TIP3   OH243317   0.696   3.020  13.776 -0.3267  0.3933  0.2073
 7301TIP3    H143318   0.678   2.981  13.862 -0.5016  0.3831  0.1667
 7301TIP3    H243319   0.750   3.097  13.796  1.8283 -1.0102  0.1391
 7302TIP3   OH243320   6.608   6.210  11.915 -0.0438 -0.1859  0.1275
 7302TIP3    H143321   6.533   6.152  11.903  0.9589 -1.5729  0.3501
 7302TIP3    H243322   6.669   6.160  11.968  0.8575  1.0929  0.3429
 7303TIP3   OH243323   3.831   2.152  11.617 -0.0184  0.0299  0.2544
 7303TIP3    H143324   3.899   2.095  11.652 -0.6328 -2.4744 -2.2676
 7303TIP3    H243325   3.749   2.106  11.634 -0.5235 -0.0801 -2.0976
 7304TIP3   OH243326   0.945   2.558   1.035 -0.4296  0.4138  0.0720
 7304TIP3    H143327   0.937   2.636   1.089 -1.8846  0.0030  0.5160
 7304TIP3    H243328   0.866   2.507   1.055 -0.3013 -0.4255 -1.3640
 7305TIP3   OH243329   6.124   2.984   3.847  0.0266  0.4551 -0.3189
 7305TIP3    H143330   6.050   2.924   3.854  0.2577  0.3416  1.6426
 7305TIP3    H243331   6.136   2.996   3.753 -2.9592  1.0874 -0.7012
 7306TIP3   OH243332   4.957   2.525   1.830 -0.5424 -0.4719  0.3038
 7306TIP3    H143333   4.989   2.438   1.851  1.3541  0.2151  0.4117
 7306TIP3    H243334   4.959   2.572   1.914  2.3884  0.8364 -0.3799
 7307TIP3   OH243335   0.881   2.465   2.143  0.4884  0.7059  0.2391
 7307TIP3    H143336   0.951   2.502   2.089  0.8904  0.3460  0.5133
 7307TIP3    H243337   0.804   2.518   2.121  0.4181 -0.0049 -1.3730
 7308TIP3   OH243338   0.839   2.110  11.983 -0.4341 -0.0510 -0.6287
 7308TIP3    H143339   0.900   2.077  11.917 -0.9904 -0.5920 -0.8833
 7308TIP3    H243340   0.892   2.121  12.062  1.0291  3.7215 -1.9050
 7309TIP3   OH243341   5.016   6.435   3.012  0.0112  0.0251 -0.4414
 7309TIP3    H143342   5.066   6.410   3.090 -2.0510  0.9633  1.2827
 7309TIP3    H243343   4.933   6.388   3.020 -1.1194  1.8489 -0.8699
 7310TIP3   OH243344   3.036   2.603   0.670 -0.6726 -0.0434 -0.1286
 7310TIP3    H143345   3.066   2.650   0.748 -0.4111  1.7715 -1.2644
 7310TIP3    H243346   2.941   2.618   0.669 -0.3195  2.7669 -1.8270
 7311TIP3   OH243347   6.792   5.248   4.805 -0.6817  0.3037 -0.4001
 7311TIP3    H143348   6.857   5.188   4.841  0.9749  1.4032 -1.4523
 7311TIP3    H243349   6.716   5.192   4.788  0.2795 -1.2036  0.0317
 7312TIP3   OH243350   4.182   0.561   1.273 -0.1911  0.4285  0.4733
 7312TIP3    H143351   4.218   0.649   1.283 -0.7734  0.5780  1.3785
 7312TIP3    H243352   4.154   0.536   1.361 -1.0532 -0.2103  0.0387
 7313TIP3   OH243353   6.346   2.465   1.780 -0.6703 -0.2334 -0.3541
 7313TIP3    H143354   6.367   2.557   1.761 -0.2431 -0.4317 -0.8890
 7313TIP3    H243355   6.253   2.457   1.759 -0.9535  0.3116  0.6448
 7314TIP3   OH243356   5.868   0.142   0.006  0.0294  0.1095  0.2194
 7314TIP3    H143357   5.802   0.138   0.076 -0.2121  0.5943  0.0238
 7314TIP3    H243358   5.918   0.062   0.017 -1.5175 -1.0164 -0.5504
 7315TIP3   OH243359   3.418   6.087   1.170  0.1030  0.3775 -0.4522
 7315TIP3    H143360   3.346   6.078   1.232  0.4912 -1.2512 -0.2120
 7315TIP3    H243361   3.408   6.176   1.135 -1.0044  0.7858  0.8221
 7316TIP3   OH243362   4.308   0.236   2.755 -0.5999 -0.2117 -0.0020
 7316TIP3    H143363   4.383   0.203   2.803 -0.3064  0.3899 -0.0463
 7316TIP3    H243364   4.341   0.313   2.708 -1.0650 -0.3545 -0.5695
 7317TIP3   OH243365   4.246   1.324   0.828  0.0802  0.1291  0.0037
 7317TIP3    H143366   4.320   1.329   0.766 -0.2659 -3.0655 -0.8361
 7317TIP3    H243367   4.273   1.258   0.892 -1.3164  0.2828  0.7820
 7318TIP3   OH243368   2.989   0.827   4.604  0.1894 -0.0296 -0.2581
 7318TIP3    H143369   3.028   0.746   4.637 -1.9716 -0.8970  0.3686
 7318TIP3    H243370   2.972   0.810   4.512 -0.8186 -0.5603  0.0101
 7319TIP3   OH243371   2.587   0.274  14.670  0.1985  1.1019  0.1635
 7319TIP3    H143372   2.648   0.322  14.726  1.9184  1.0745 -1.5918
 7319TIP3    H243373   2.642   0.235  14.602 -1.1499 -3.0120  1.1489
 7320TIP3   OH243374   6.105   6.685   5.273  0.4299  0.6204 -0.6439
 7320TIP3    H143375   6.073   6.769   5.241  0.4809  0.8674 -0.0627
 7320TIP3    H243376   6.033   6.651   5.326  0.6911  0.6480 -0.2661
 7321TIP3   OH243377   6.799   4.872   1.182 -0.0475 -0.9778  0.8578
 7321TIP3    H143378   6.707   4.894   1.169  0.4428  1.0620  0.3267
 7321TIP3    H243379   6.801   4.777   1.187 -1.8370 -1.3293 -2.3185
 7322TIP3   OH243380   3.857   1.704   1.730  0.1727 -0.3217  0.3396
 7322TIP3    H143381   3.828   1.751   1.808  0.4713 -1.0510  0.9042
 7322TIP3    H243382   3.892   1.622   1.763  0.4802 -0.5655 -0.5528
 7323TIP3   OH243383   5.959   4.211  10.779 -0.3575  0.1396 -0.3153
 7323TIP3    H143384   5.921   4.159  10.708 -1.0161 -0.9459  0.8038
 7323TIP3    H243385   5.901   4.287  10.787 -0.3451  0.2076 -0.8505
 7324TIP3   OH243386   6.603   5.125   3.257 -0.5549 -0.8103 -0.6547
 7324TIP3    H143387   6.618   5.039   3.297 -0.1796 -1.1574 -1.5110
 7324TIP3    H243388   6.525   5.112   3.203 -0.5273 -0.6041 -0.7438
 7325TIP3   OH243389   2.154   3.479  12.586  0.0304  0.3292  0.3259
 7325TIP3    H143390   2.147   3.426  12.506  2.0841 -1.2552  1.1018
 7325TIP3    H243391   2.064   3.503  12.607 -0.8280 -1.5237 -0.9701
 7326TIP3   OH243392   5.459   6.303   0.605 -0.1821 -0.2346 -0.0075
 7326TIP3    H143393   5.373   6.295   0.564  0.3017 -0.6074 -0.9699
 7326TIP3    H243394   5.520   6.316   0.533  0.7174 -1.1324  0.5517
 7327TIP3   OH243395   2.804   2.730   1.361  0.2141  0.1555  0.3213
 7327TIP3    H143396   2.822   2.753   1.453 -1.1213  0.4432  0.5275
 7327TIP3    H243397   2.771   2.811   1.323 -0.8158 -0.3966  0.0249
 7328TIP3   OH243398   3.522   4.118  14.539  0.1563 -0.0376 -0.0640
 7328TIP3    H143399   3.434   4.091  14.564  0.5385  0.5093  2.0969
 7328TIP3    H243400   3.573   4.112  14.620  1.7733  0.9626 -0.9463
 7329TIP3   OH243401   2.309   1.325   3.098 -0.0716  0.2093  0.0116
 7329TIP3    H143402   2.374   1.258   3.119 -0.8773 -0.4597  0.4291
 7329TIP3    H243403   2.356   1.386   3.040  0.8829 -0.3195  0.1961
 7330TIP3   OH243404   1.931   1.018  15.272  0.1241  0.0729  0.0540
 7330TIP3    H143405   1.838   1.026  15.296  0.1806  1.6336 -0.1251
 7330TIP3    H243406   1.967   1.105  15.288  1.5252 -0.4531 -0.0926
 7331TIP3   OH243407   5.859   4.918   1.150 -0.0134 -1.3070 -0.0444
 7331TIP3    H143408   5.819   4.983   1.207 -0.2255 -1.8716  0.4606
 7331TIP3    H243409   5.857   4.958   1.063 -1.6531 -1.3014 -0.0408
 7332TIP3   OH243410   6.120   5.646  14.784 -0.1717  0.2431  0.3614
 7332TIP3    H143411   6.042   5.606  14.747 -0.9496  1.3456  0.7717
 7332TIP3    H243412   6.170   5.675  14.708  0.9388 -2.3374 -0.0177
 7333TIP3   OH243413   0.474   2.121   3.642  0.2333  0.4407  0.4758
 7333TIP3    H143414   0.449   2.122   3.549 -0.8503 -4.7047  0.4461
 7333TIP3    H243415   0.416   2.185   3.683  0.1545  2.2438 -2.2142
 7334TIP3   OH243416   5.282   5.702  16.429  0.1769  0.3297  0.2970
 7334TIP3    H143417   5.328   5.703  16.513 -1.5277  1.2765  1.2449
 7334TIP3    H243418   5.305   5.616  16.391  1.2053  0.0105  1.5578
 7335TIP3   OH243419   2.438   4.088  12.949 -0.4745 -0.3772  0.1927
 7335TIP3    H143420   2.401   4.013  12.996 -0.5668 -1.0509 -0.8994
 7335TIP3    H243421   2.370   4.114  12.888 -1.1319  1.7687  1.7296
 7336TIP3   OH243422   5.181   4.198  15.522 -0.3930  0.6448  0.3344
 7336TIP3    H143423   5.256   4.243  15.483  0.1879 -0.8107 -0.2998
 7336TIP3    H243424   5.105   4.231  15.474 -0.0393  1.3281  0.2393
 7337TIP3   OH243425   2.465   1.602  11.381 -0.4608  0.0405 -0.9088
 7337TIP3    H143426   2.534   1.536  11.369 -0.5396 -0.6403  1.8132
 7337TIP3    H243427   2.384   1.557  11.359 -0.3091 -0.0623 -1.2608
 7338TIP3   OH243428   6.356   0.170  15.705  0.3386  0.6418  0.2617
 7338TIP3    H143429   6.316   0.187  15.620 -0.0067 -0.1645  0.2509
 7338TIP3    H243430   6.283   0.141  15.760  0.7869 -0.1940  0.4304
 7339TIP3   OH243431   2.617   0.301   3.633 -0.0812 -0.1620 -0.1109
 7339TIP3    H143432   2.657   0.362   3.695 -0.2474  0.2552 -0.4133
 7339TIP3    H243433   2.525   0.325   3.631 -0.1529 -0.4456 -0.2030
 7340TIP3   OH243434   0.409   5.409  11.466 -0.0266  0.2083  0.1121
 7340TIP3    H143435   0.386   5.338  11.405 -1.5515  0.9509 -0.2162
 7340TIP3    H243436   0.381   5.378  11.552 -0.6551  0.3827 -0.0257
 7341TIP3   OH243437   5.245   5.898   4.096  0.0975  0.5753  0.3077
 7341TIP3    H143438   5.217   5.986   4.072  1.3499  0.8800 -0.1639
 7341TIP3    H243439   5.336   5.894   4.067  0.2709 -0.6421  0.9534
 7342TIP3   OH243440   6.099   1.767   6.223  0.1349 -0.4879 -0.0040
 7342TIP3    H143441   6.192   1.753   6.208 -0.0144 -1.8963  0.2382
 7342TIP3    H243442   6.062   1.679   6.230 -0.8392  0.0225  2.1961
 7343TIP3   OH243443   4.977   5.353   1.200 -0.1983 -0.5478 -0.6025
 7343TIP3    H143444   4.980   5.326   1.292  0.3153 -0.7492 -0.6801
 7343TIP3    H243445   4.908   5.299   1.162 -1.2206  0.3355 -0.0814
 7344TIP3   OH243446   2.142   4.504   5.448  0.6998 -0.2691 -0.4514
 7344TIP3    H143447   2.124   4.582   5.500  0.6590 -0.8289  0.3958
 7344TIP3    H243448   2.233   4.482   5.467  0.4322 -0.9616  0.0419
 7345TIP3   OH243449   3.284   0.599  15.661 -0.3339 -0.0732  0.0876
 7345TIP3    H143450   3.377   0.597  15.680 -0.0275 -3.2538 -1.1148
 7345TIP3    H243451   3.274   0.669  15.596  0.7278  1.9304  1.9780
 7346TIP3   OH243452   2.502   4.018   4.923 -0.6300 -0.0077  0.0865
 7346TIP3    H143453   2.437   4.076   4.884 -0.4958  0.0478 -0.0559
 7346TIP3    H243454   2.582   4.070   4.925 -0.5760 -0.0961  0.2075
 7347TIP3   OH243455   5.548   3.674   4.986  0.6233  0.0452  0.5452
 7347TIP3    H143456   5.566   3.621   5.063 -1.4437  0.7061  1.5492
 7347TIP3    H243457   5.477   3.628   4.941  1.0398  0.2632 -0.3615
 7348TIP3   OH243458   4.320   5.519  16.444 -0.3888 -0.0348 -0.0854
 7348TIP3    H143459   4.340   5.444  16.500  0.4441 -0.1252 -0.4788
 7348TIP3    H243460   4.227   5.511  16.425 -0.7523  0.1572  1.5067
 7349TIP3   OH243461   4.100   0.125  16.327 -0.4166 -0.2328  0.4833
 7349TIP3    H143462   4.192   0.146  16.337 -0.1330 -1.3231  0.3068
 7349TIP3    H243463   4.068   0.185  16.260  0.0713  0.3811  0.7958
 7350TIP3   OH243464   3.614   3.221   4.452  0.6528 -0.2257 -0.8083
 7350TIP3    H143465   3.629   3.129   4.431  0.5077  0.2736 -3.4419
 7350TIP3    H243466   3.685   3.268   4.408 -0.0725  1.0224 -0.7065
 7351TIP3   OH243467   4.403   4.179   4.556 -0.1809  0.5647  0.0344
 7351TIP3    H143468   4.349   4.250   4.521  0.5760  0.5741 -1.1764
 7351TIP3    H243469   4.436   4.213   4.639  1.0748  2.1113 -1.0484
 7352TIP3   OH243470   4.728   6.409  11.820  0.2847  0.0240 -0.2863
 7352TIP3    H143471   4.687   6.339  11.769 -2.2300 -0.8040  2.5877
 7352TIP3    H243472   4.712   6.488  11.770  1.9331 -1.1666 -2.9111
 7353TIP3   OH243473   2.616   5.322   0.592  0.2989  0.3112  0.4066
 7353TIP3    H143474   2.649   5.249   0.538 -0.3036 -0.5723  1.1998
 7353TIP3    H243475   2.532   5.345   0.552  1.9190  2.8696 -1.8969
 7354TIP3   OH243476   5.808   3.660  16.211 -0.2168  0.2394 -0.2753
 7354TIP3    H143477   5.768   3.663  16.125 -0.5998  1.4385 -0.0689
 7354TIP3    H243478   5.883   3.602  16.201 -0.6576 -0.1782 -1.2351
 7355TIP3   OH243479   0.306   5.158  11.388 -0.0933 -0.3377 -0.5497
 7355TIP3    H143480   0.258   5.084  11.351 -2.0991 -0.2336  1.5843
 7355TIP3    H243481   0.238   5.223  11.407  0.9594  0.1836  1.8203
 7356TIP3   OH243482   3.825   5.121  16.578  0.1392  0.5911 -0.0711
 7356TIP3    H143483   3.884   5.082  16.641  0.5743  0.7071 -0.4037
 7356TIP3    H243484   3.746   5.067  16.582  1.4970 -1.7689 -2.1341
 7357TIP3   OH243485   3.850   3.929  16.998  0.1842  0.6075 -0.8793
 7357TIP3    H143486   3.886   3.929  17.086 -2.0521  0.3121  0.0938
 7357TIP3    H243487   3.923   3.958  16.943  1.9169 -0.1354  0.9040
 7358TIP3   OH243488   2.711   1.650   0.008 -0.1563  0.1463  0.7664
 7358TIP3    H143489   2.651   1.719  -0.021 -0.1911 -0.7773 -1.5416
 7358TIP3    H243490   2.793   1.696   0.027 -0.9713  1.1488  2.0248
 7359TIP3   OH243491   5.057   0.757  12.186 -0.4312 -0.6297  0.0138
 7359TIP3    H143492   5.106   0.837  12.205  0.5955 -1.2073 -0.1115
 7359TIP3    H243493   5.123   0.687  12.186 -0.8998 -1.1673 -2.0945
 7360TIP3   OH243494   1.637   4.977   0.014  0.4317  0.6006  0.1551
 7360TIP3    H143495   1.619   4.884   0.032 -2.3666  0.9689 -0.2401
 7360TIP3    H243496   1.642   5.017   0.101 -1.0267  0.4625  0.3276
 7361TIP3   OH243497   5.872   0.284   0.364  0.2164 -0.1524 -0.2296
 7361TIP3    H143498   5.814   0.333   0.423 -0.5250 -1.0545 -0.1893
 7361TIP3    H243499   5.837   0.300   0.277 -0.0278 -0.6082 -0.2162
 7362TIP3   OH243500   3.357   5.335   5.279  0.1627  0.3865 -0.0721
 7362TIP3    H143501   3.356   5.327   5.374 -0.1019  0.2733 -0.0818
 7362TIP3    H243502   3.438   5.382   5.259  0.0475  0.7160  0.2317
 7363TIP3   OH243503   6.307   3.391   4.868  0.5754 -0.0220 -0.1126
 7363TIP3    H143504   6.313   3.428   4.957  2.5101  2.4110 -1.1287
 7363TIP3    H243505   6.219   3.413   4.839  0.6463  1.1342  0.4686
 7364TIP3   OH243506   3.544   0.577   1.224  0.2449  0.4507  0.1784
 7364TIP3    H143507   3.637   0.591   1.206  0.1745  3.2122  1.4194
 7364TIP3    H243508   3.543   0.518   1.300  1.0033  0.4190  0.1708
 7365TIP3   OH243509   1.542   0.417   0.836 -0.0273  0.0772 -0.1697
 7365TIP3    H143510   1.581   0.399   0.922  0.9122 -1.4353 -0.8718
 7365TIP3    H243511   1.529   0.330   0.797 -1.0989  0.7022 -1.2881
 7366TIP3   OH243512   6.555   0.602   2.505 -0.0133 -0.3944  0.0438
 7366TIP3    H143513   6.640   0.600   2.460  0.1509  0.1932  0.3252
 7366TIP3    H243514   6.563   0.534   2.572 -1.2364 -3.2967 -2.4773
 7367TIP3   OH243515   0.581   1.725  14.682  0.1008 -1.0087  0.0911
 7367TIP3    H143516   0.514   1.656  14.690  0.0668 -0.8648  1.2450
 7367TIP3    H243517   0.533   1.806  14.694  0.3352 -0.8519 -0.0308
 7368TIP3   OH243518   5.165   0.099  14.457  0.1681 -0.1976 -0.0058
 7368TIP3    H143519   5.247   0.148  14.452 -0.1415  0.3450  0.0854
 7368TIP3    H243520   5.170   0.051  14.539  1.2038 -1.6727 -0.8802
 7369TIP3   OH243521   3.115   2.282  14.709 -0.9413 -0.2256 -0.1669
 7369TIP3    H143522   3.024   2.269  14.737 -0.6819  0.1860  0.9311
 7369TIP3    H243523   3.166   2.227  14.769 -0.4016  0.2304 -0.1995
 7370TIP3   OH243524   3.630   1.181  11.536  0.0906 -0.1419  0.3174
 7370TIP3    H143525   3.536   1.192  11.555  0.1809  0.6477  0.3299
 7370TIP3    H243526   3.674   1.223  11.610  0.4473  1.6549 -0.8657
 7371TIP3   OH243527   5.621   4.307   3.015 -0.3245 -0.0900 -0.6535
 7371TIP3    H143528   5.587   4.249   2.947 -1.0964  2.4820 -2.6024
 7371TIP3    H243529   5.662   4.379   2.967 -0.3635  1.5447  1.6039
 7372TIP3   OH243530   4.667   3.028   5.492  0.2436 -0.1880 -0.6160
 7372TIP3    H143531   4.670   3.099   5.556 -1.6407 -1.8220  1.4219
 7372TIP3    H243532   4.585   3.041   5.445 -0.2617 -1.1223 -0.0291
 7373TIP3   OH243533   3.741   1.924   4.088 -0.1045  0.2003 -0.4092
 7373TIP3    H143534   3.716   1.833   4.074 -1.1773  0.0384  2.1116
 7373TIP3    H243535   3.790   1.924   4.170 -1.0245  2.0244  0.1993
 7374TIP3   OH243536   3.568   3.697   1.503  0.6157 -0.0878  0.5867
 7374TIP3    H143537   3.503   3.730   1.440  0.8596  0.7398  0.7608
 7374TIP3    H243538   3.536   3.727   1.588  0.4259 -0.9824  0.8385
 7375TIP3   OH243539   6.081   3.657  16.886 -0.3744 -0.1001 -0.2317
 7375TIP3    H143540   6.113   3.624  16.802  0.9431 -1.9774  0.9332
 7375TIP3    H243541   6.124   3.742  16.895  0.8090 -0.6193 -0.7289
 7376TIP3   OH243542   0.157   2.123   1.313  0.6359 -0.2223 -0.4560
 7376TIP3    H143543   0.215   2.087   1.246 -2.1770  0.0757 -3.2956
 7376TIP3    H243544   0.122   2.046   1.358  0.1156 -0.6563 -1.5706
 7377TIP3   OH243545   2.895   4.002  15.051  0.0990  0.5424  0.2134
 7377TIP3    H143546   2.901   4.092  15.082  0.1827  0.8263 -0.6171
 7377TIP3    H243547   2.984   3.967  15.062  0.7123  1.3359 -1.7412
 7378TIP3   OH243548   1.379   3.374  15.444  0.2361 -0.2507 -0.8728
 7378TIP3    H143549   1.467   3.336  15.445  0.5165 -0.0790  3.6626
 7378TIP3    H243550   1.391   3.464  15.414  1.2556 -0.7272 -1.9683
 7379TIP3   OH243551   2.438   2.432  14.863 -0.6186 -0.1164  0.3895
 7379TIP3    H143552   2.399   2.518  14.847 -0.6926 -0.2218 -0.0183
 7379TIP3    H243553   2.368   2.381  14.904 -0.6340 -0.0399  0.4591
 7380TIP3   OH243554   2.863   3.506   3.663  0.7555  0.4896  0.3851
 7380TIP3    H143555   2.868   3.458   3.746  1.0021 -0.6543 -0.2737
 7380TIP3    H243556   2.870   3.439   3.596  0.3608  1.3795 -0.5778
 7381TIP3   OH243557   6.748   6.320   3.257  0.5201 -0.5092 -0.5786
 7381TIP3    H143558   6.742   6.316   3.162 -1.5441  0.9477 -0.5684
 7381TIP3    H243559   6.808   6.392   3.275 -1.9067  1.7503 -0.8822
 7382TIP3   OH243560   0.980   1.797   5.371 -0.1561  0.0795  0.1434
 7382TIP3    H143561   1.034   1.729   5.332  0.3649  0.4793  0.1582
 7382TIP3    H243562   0.969   1.769   5.462  0.3970  0.2129  0.2571
 7383TIP3   OH243563   4.363   3.236  13.156 -0.6650 -0.1802  0.3193
 7383TIP3    H143564   4.330   3.284  13.232 -0.0630  1.8612 -0.6377
 7383TIP3    H243565   4.289   3.183  13.127 -0.8202 -1.2482  2.4608
 7384TIP3   OH243566   0.386   3.994  13.477  0.1485  0.1229  0.2742
 7384TIP3    H143567   0.309   3.971  13.424  0.5397 -2.5644  0.7139
 7384TIP3    H243568   0.360   4.073  13.524 -1.7645  0.1770 -0.7599
 7385TIP3   OH243569   6.736   5.969   4.268  0.6012  0.1120 -0.2611
 7385TIP3    H143570   6.739   5.962   4.364 -0.5774  0.2511 -0.1883
 7385TIP3    H243571   6.787   6.048   4.248  0.2923  0.4731  0.3278
 7386TIP3   OH243572   5.886   3.519   5.465  0.1150  0.1670  0.2586
 7386TIP3    H143573   5.795   3.509   5.438  0.0004  1.5006  0.1188
 7386TIP3    H243574   5.935   3.459   5.408 -0.7113 -0.9777  0.7092
 7387TIP3   OH243575   0.456   6.194  14.160 -0.0759 -0.3116  0.0151
 7387TIP3    H143576   0.415   6.257  14.219 -0.5367  0.3759 -1.0234
 7387TIP3    H243577   0.498   6.131  14.219 -1.0362  0.0044  1.0919
 7388TIP3   OH243578   3.515   2.942  16.626  0.4708 -0.1941  0.0201
 7388TIP3    H143579   3.428   2.967  16.594  0.2389 -1.1390 -0.1195
 7388TIP3    H243580   3.556   3.025  16.651  0.7261  0.6508 -2.8239
 7389TIP3   OH243581   4.775   0.376   1.606 -0.5868  0.2819  0.0256
 7389TIP3    H143582   4.842   0.314   1.578 -1.3409 -0.6599  0.2518
 7389TIP3    H243583   4.824   0.449   1.643  0.3553  0.3832 -1.3532
 7390TIP3   OH243584   5.177   4.061  16.233  0.0120 -0.3334  0.0388
 7390TIP3    H143585   5.245   4.019  16.287 -1.7898 -1.4767  1.5446
 7390TIP3    H243586   5.140   3.990  16.181 -3.5415 -1.0461  3.1165
 7391TIP3   OH243587   2.654   6.523  16.094  0.4568  0.1279  0.0458
 7391TIP3    H143588   2.687   6.563  16.014 -0.2705 -0.9495 -0.8294
 7391TIP3    H243589   2.579   6.577  16.119 -1.1976 -1.2122 -1.7331
 7392TIP3   OH243590   2.923   6.425   3.230  0.7062 -0.7766  0.3292
 7392TIP3    H143591   2.968   6.405   3.312  0.8634 -1.0695  0.1720
 7392TIP3    H243592   2.858   6.355   3.220 -1.3058  0.7730  1.6497
 7393TIP3   OH243593   2.072   2.418   4.576 -0.0352 -0.7052  0.2091
 7393TIP3    H143594   2.042   2.330   4.599  2.0560 -1.2778  0.9978
 7393TIP3    H243595   2.147   2.403   4.518  1.2125  0.4851  1.4390
 7394TIP3   OH243596   4.194   1.292   3.345  0.6528  0.2739 -0.0224
 7394TIP3    H143597   4.178   1.233   3.271 -1.3265 -0.1561  0.7009
 7394TIP3    H243598   4.266   1.348   3.315  0.6626 -0.6299 -1.8252
 7395TIP3   OH243599   2.379   6.298  11.468  0.2740  0.1769 -0.1095
 7395TIP3    H143600   2.375   6.370  11.531  0.8238  0.5406 -0.4840
 7395TIP3    H243601   2.461   6.254  11.487 -0.0918 -0.4031  0.1588
 7396TIP3   OH243602   3.821   2.113  12.648 -0.4362  0.5632 -0.2040
 7396TIP3    H143603   3.734   2.152  12.662 -0.6206 -0.0585  0.4621
 7396TIP3    H243604   3.828   2.102  12.553 -1.1556  0.4793 -0.2524
 7397TIP3   OH243605   0.570   2.327   2.821 -0.4246 -0.6534 -0.1205
 7397TIP3    H143606   0.640   2.380   2.859 -1.4578  0.8585 -0.2625
 7397TIP3    H243607   0.600   2.307   2.733 -0.7260  1.1571 -0.6738
 7398TIP3   OH243608   5.518   4.260   4.260 -0.1695 -0.0971  0.1556
 7398TIP3    H143609   5.471   4.180   4.234  0.5342 -0.1878 -0.9394
 7398TIP3    H243610   5.569   4.283   4.183  0.2269  0.9940  0.7242
 7399TIP3   OH243611   0.160   5.482   3.360  0.1553  1.2598  0.3689
 7399TIP3    H143612   0.088   5.426   3.389 -2.0769  4.1956  1.0065
 7399TIP3    H243613   0.216   5.425   3.308 -2.5363 -1.2562 -0.0035
 7400TIP3   OH243614   5.746   2.308   1.539 -0.1301 -0.5014 -0.2521
 7400TIP3    H143615   5.732   2.397   1.507 -2.1158 -1.0354 -0.9753
 7400TIP3    H243616   5.659   2.276   1.560  0.6949 -1.7607  1.5132
 7401TIP3   OH243617   6.077   3.412  15.898 -0.2166 -0.3091  0.1397
 7401TIP3    H143618   6.171   3.397  15.907 -0.4618 -1.5636  0.8571
 7401TIP3    H243619   6.067   3.507  15.902  0.8444 -0.2377  2.0870
 7402TIP3   OH243620   6.662   4.265  11.805 -0.1546  0.2783  0.2480
 7402TIP3    H143621   6.696   4.282  11.893 -1.0250  1.5388  0.3719
 7402TIP3    H243622   6.701   4.181  11.780  2.1958  1.1224  0.7785
 7403TIP3   OH243623   0.658   6.305  11.099 -0.1245  0.4241 -0.0879
 7403TIP3    H143624   0.706   6.316  11.182 -0.2816  0.7715 -0.0429
 7403TIP3    H243625   0.724   6.317  11.031  0.0222  0.0538 -0.0121
 7404TIP3   OH243626   1.306   1.268   2.260  0.1615 -0.4641  0.0905
 7404TIP3    H143627   1.227   1.223   2.231  0.8050 -0.9979 -0.8638
 7404TIP3    H243628   1.338   1.214   2.333  0.8434 -1.5089 -0.9469
 7405TIP3   OH243629   5.959   5.235  14.635  0.1313  0.5729 -0.2209
 7405TIP3    H143630   5.922   5.166  14.579 -0.7084  0.4890  0.4266
 7405TIP3    H243631   6.054   5.224  14.626  0.0069 -0.1275 -0.7807
 7406TIP3   OH243632   2.319   0.025  13.175  0.6773 -0.1181 -0.4153
 7406TIP3    H143633   2.396   0.061  13.217  1.7885 -1.4117 -1.2667
 7406TIP3    H243634   2.294  -0.050  13.229 -0.3548  0.6405  0.1840
 7407TIP3   OH243635   3.668   2.636   0.240 -0.0600  0.1591  0.2424
 7407TIP3    H143636   3.671   2.625   0.145  0.6097 -2.8620  0.5034
 7407TIP3    H243637   3.574   2.639   0.260 -0.2149  0.2162 -0.4480
 7408TIP3   OH243638   3.150   6.541   0.629 -0.0605  0.0364  0.0234
 7408TIP3    H143639   3.099   6.609   0.585 -0.0499  1.1458  1.6383
 7408TIP3    H243640   3.241   6.561   0.607  0.0439  1.3295  1.4371
 7409TIP3   OH243641   0.976   0.370  14.807  0.4603 -0.0727 -0.5177
 7409TIP3    H143642   0.893   0.413  14.789  0.2986 -0.5068 -0.8322
 7409TIP3    H243643   0.973   0.349  14.900 -1.2138 -3.0073 -1.1049
 7410TIP3   OH243644   6.156   3.505  12.244  0.0252 -0.1428 -0.3319
 7410TIP3    H143645   6.182   3.578  12.300  1.2779 -0.3786 -0.5688
 7410TIP3    H243646   6.115   3.547  12.168  2.9810  0.5891 -1.7044
 7411TIP3   OH243647   0.809   1.974   0.651  0.0176 -0.0821  0.3009
 7411TIP3    H143648   0.810   1.881   0.627  0.3188 -0.0239  0.0857
 7411TIP3    H243649   0.900   2.002   0.640 -0.1198  0.2957  0.1391
 7412TIP3   OH243650   2.795   0.015  16.214 -0.1561 -0.5665 -0.5257
 7412TIP3    H143651   2.824  -0.056  16.158 -0.0601 -0.5170 -0.5398
 7412TIP3    H243652   2.768   0.084  16.153  0.6706 -0.2158 -0.5190
 7413TIP3   OH243653   2.745   3.038  13.568  0.2122 -0.5844 -0.2789
 7413TIP3    H143654   2.796   2.976  13.516  0.1757 -0.6892 -0.1906
 7413TIP3    H243655   2.791   3.121  13.559 -0.1133 -0.4673 -0.9483
 7414TIP3   OH243656   1.147   2.434   4.602 -0.2355 -0.0944  0.1018
 7414TIP3    H143657   1.180   2.465   4.518  0.0874 -0.4957  0.0716
 7414TIP3    H243658   1.120   2.343   4.585 -0.8913  0.0667  0.2506
 7415TIP3   OH243659   2.455   4.865   2.924 -0.7939  0.3025 -0.0134
 7415TIP3    H143660   2.543   4.829   2.932 -0.0568  2.3410  2.2974
 7415TIP3    H243661   2.411   4.839   3.006 -0.7285  3.1399  1.0147
 7416TIP3   OH243662   6.549   0.707  10.738  0.3024  0.2869 -0.3177
 7416TIP3    H143663   6.471   0.667  10.777  1.8961 -2.1699  0.5943
 7416TIP3    H243664   6.583   0.764  10.807 -0.3114  0.8306 -0.4634
 7417TIP3   OH243665   2.466   0.724  15.870  0.2273 -0.5315  0.3455
 7417TIP3    H143666   2.448   0.799  15.814  0.8861 -0.3823  0.3285
 7417TIP3    H243667   2.446   0.753  15.959 -0.7672 -0.7506  0.2038
 7418TIP3   OH243668   1.728   4.802   2.752 -0.4483 -0.1677 -0.0374
 7418TIP3    H143669   1.633   4.797   2.746 -0.4620 -0.2044  0.2053
 7418TIP3    H243670   1.755   4.849   2.673 -0.5359 -1.5794 -0.9258
 7419TIP3   OH243671   0.677   3.338   0.600 -0.0876 -0.1205 -0.0070
 7419TIP3    H143672   0.678   3.404   0.531  1.3487  0.7281  0.7549
 7419TIP3    H243673   0.637   3.382   0.675  3.6111  1.0982  1.4807
 7420TIP3   OH243674   0.437   5.391   5.770 -0.1777  0.0584  0.1938
 7420TIP3    H143675   0.525   5.402   5.806  0.0946  0.2712 -0.5285
 7420TIP3    H243676   0.381   5.441   5.829  0.1116 -0.4407  0.9228
 7421TIP3   OH243677   5.897   0.419  15.632  0.2191  0.4832  0.3285
 7421TIP3    H143678   5.969   0.362  15.659 -0.0565  0.5736  1.3068
 7421TIP3    H243679   5.819   0.376  15.668 -0.5806 -0.9592 -2.7800
 7422TIP3   OH243680   3.595   0.982   3.455  0.0660  0.0726 -0.6856
 7422TIP3    H143681   3.516   0.932   3.475 -0.0267  0.5796  0.2550
 7422TIP3    H243682   3.584   1.009   3.364 -0.4936 -0.4813 -0.7903
 7423TIP3   OH243683   1.623   6.175   1.534  0.0454  0.0107  0.5533
 7423TIP3    H143684   1.530   6.162   1.552 -0.7029 -1.2156 -3.2904
 7423TIP3    H243685   1.666   6.162   1.618 -3.3232  3.1021  3.0835
 7424TIP3   OH243686   6.804   0.933  16.380 -0.6231 -0.8194 -0.7222
 7424TIP3    H143687   6.865   0.976  16.321 -0.1388  0.4874  0.6610
 7424TIP3    H243688   6.717   0.965  16.354 -0.2944  0.8672  0.1179
 7425TIP3   OH243689   1.313   1.149   6.102  0.0687  0.4329 -0.2499
 7425TIP3    H143690   1.278   1.203   6.032 -1.5019 -1.8475 -1.3408
 7425TIP3    H243691   1.308   1.204   6.180 -2.2173  1.5895 -1.1439
 7426TIP3   OH243692   4.887   6.351   2.274  0.3521  0.1885  0.1110
 7426TIP3    H143693   4.884   6.408   2.197 -1.7189 -1.0713 -0.8297
 7426TIP3    H243694   4.812   6.378   2.327 -0.2741 -1.1792 -0.0288
 7427TIP3   OH243695   2.641   6.754  14.704  0.1433 -0.3385 -0.3183
 7427TIP3    H143696   2.670   6.834  14.749  1.1423 -0.2410 -1.0905
 7427TIP3    H243697   2.630   6.690  14.774  1.9899 -0.2895  0.0766
 7428TIP3   OH243698   4.730   4.124  16.914  0.2789 -0.2269 -0.1358
 7428TIP3    H143699   4.674   4.047  16.921  0.1416 -0.0261  1.3629
 7428TIP3    H243700   4.726   4.164  17.001 -0.4195  2.0097 -1.1213
 7429TIP3   OH243701   3.569   2.204  10.699 -0.1270  0.2554 -0.1400
 7429TIP3    H143702   3.487   2.172  10.662 -0.5953  0.1187  0.9510
 7429TIP3    H243703   3.618   2.125  10.722  1.3332  0.2795 -2.7912
 7430TIP3   OH243704   5.223   1.010   0.497 -0.6138 -0.1473  0.2017
 7430TIP3    H143705   5.217   0.993   0.591  0.4271  0.4020  0.3790
 7430TIP3    H243706   5.242   1.103   0.490 -0.6993 -0.1796 -0.5556
 7431TIP3   OH243707   3.874   5.402   5.405  0.1744 -0.3282 -0.0510
 7431TIP3    H143708   3.858   5.405   5.500  0.3928 -0.2259 -0.0160
 7431TIP3    H243709   3.920   5.484   5.386  0.5084 -0.5404 -0.1720
 7432TIP3   OH243710   2.310   1.652  13.567  0.9274  0.2267 -0.2360
 7432TIP3    H143711   2.256   1.637  13.489  0.1342 -0.7088  0.4695
 7432TIP3    H243712   2.269   1.725  13.612 -0.1992 -0.8988  0.6430
 7433TIP3   OH243713   1.499   3.558   5.012  0.0941  0.6120 -0.3590
 7433TIP3    H143714   1.432   3.492   4.995 -0.1432  0.4019  1.1768
 7433TIP3    H243715   1.575   3.508   5.043  0.0576  1.0027  0.3961
 7434TIP3   OH243716   6.089   0.293   4.708 -0.5478 -0.2776  0.5416
 7434TIP3    H143717   6.068   0.261   4.620  0.6241 -0.2386  0.2324
 7434TIP3    H243718   6.081   0.216   4.764  0.4329 -0.7122  0.1053
 7435TIP3   OH243719   2.057   1.615   0.387  0.6356  0.1206  0.1986
 7435TIP3    H143720   2.058   1.522   0.410 -1.8888  0.1298  0.5566
 7435TIP3    H243721   2.083   1.616   0.294 -2.0369 -1.2882 -0.6631
 7436TIP3   OH243722   5.300   5.266  11.332 -0.0765  0.1608  0.1348
 7436TIP3    H143723   5.353   5.241  11.256 -3.2685  0.7367 -2.5091
 7436TIP3    H243724   5.286   5.185  11.380  1.1254 -0.4191 -0.4618
 7437TIP3   OH243725   3.758   1.103  14.296 -0.3606 -0.5171 -0.1541
 7437TIP3    H143726   3.819   1.133  14.229 -1.2024  3.0700  0.4774
 7437TIP3    H243727   3.812   1.089  14.373 -0.0904  1.3331  0.0361
 7438TIP3   OH243728   3.342   6.640  14.177 -0.0886  0.3965  0.1309
 7438TIP3    H143729   3.252   6.661  14.155  0.0347 -0.0635 -0.8794
 7438TIP3    H243730   3.370   6.580  14.107  0.1007 -1.7460  1.9425
 7439TIP3   OH243731   2.300   6.702   3.226  0.2690  0.5145  0.2145
 7439TIP3    H143732   2.372   6.681   3.286  1.3550 -0.4930 -1.3538
 7439TIP3    H243733   2.253   6.774   3.268  1.5868  0.5108  1.7714
 7440TIP3   OH243734   6.805   6.467   6.696  0.1582  0.1502 -0.6438
 7440TIP3    H143735   6.896   6.483   6.673  0.0214  0.7848 -0.7563
 7440TIP3    H243736   6.774   6.551   6.730  0.5577 -0.8943  2.5939
 7441TIP3   OH243737   6.348   3.357   3.687 -0.0119  0.2889 -0.2085
 7441TIP3    H143738   6.428   3.409   3.696  0.8809 -1.1493  0.4618
 7441TIP3    H243739   6.345   3.333   3.594  0.7427 -0.2438 -0.1070
 7442TIP3   OH243740   5.165   4.158  11.673  0.1505 -0.6335  0.3496
 7442TIP3    H143741   5.184   4.157  11.767  0.5063 -1.3086  0.2743
 7442TIP3    H243742   5.154   4.251  11.653  2.0797 -0.2831  0.6681
 7443TIP3   OH243743   1.793   2.091  13.022  0.0705  0.0615  0.8307
 7443TIP3    H143744   1.852   2.119  13.092 -0.3297 -0.7918  1.5237
 7443TIP3    H243745   1.818   2.000  13.004 -0.8884 -0.2492  0.9997
 7444TIP3   OH243746   3.254   2.421   5.622  0.1439 -0.3645 -0.3470
 7444TIP3    H143747   3.227   2.424   5.530 -1.2327 -1.4311 -0.0069
 7444TIP3    H243748   3.257   2.328   5.643 -0.1378 -0.1141  0.8595
 7445TIP3   OH243749   1.906   0.286  12.883  0.2894 -0.0144  0.0297
 7445TIP3    H143750   1.997   0.270  12.909  0.2955 -1.6912 -0.8639
 7445TIP3    H243751   1.863   0.317  12.963  1.7360  1.3036  0.3429
 7446TIP3   OH243752   6.216   1.462  14.973  0.2303 -0.3815 -0.3626
 7446TIP3    H143753   6.141   1.437  15.027  1.0943 -0.7305  0.7137
 7446TIP3    H243754   6.235   1.552  15.000  1.7243 -1.1283  1.2015
 7447TIP3   OH243755   4.063   2.248   4.990  0.1322 -0.3507  0.3752
 7447TIP3    H143756   4.038   2.301   5.065 -0.4560 -2.2169  1.5794
 7447TIP3    H243757   4.058   2.307   4.915 -1.7249  0.9646  1.4571
 7448TIP3   OH243758   2.237   6.710  15.658 -0.0250  0.2455 -0.6194
 7448TIP3    H143759   2.176   6.668  15.720 -0.7629  2.0145 -0.0833
 7448TIP3    H243760   2.324   6.693  15.695 -0.2865 -0.9234 -0.5070
 7449TIP3   OH243761   6.541   0.856   4.130 -0.2453 -0.2040  0.0352
 7449TIP3    H143762   6.514   0.766   4.149  0.4215  0.0039  2.4240
 7449TIP3    H243763   6.605   0.876   4.199 -0.1237  1.9876 -0.6363
 7450TIP3   OH243764   4.319   3.726   0.528  0.3952 -0.0336 -0.0988
 7450TIP3    H143765   4.380   3.683   0.469  0.0340  0.6098 -0.9627
 7450TIP3    H243766   4.366   3.733   0.611  0.0339 -3.1736  0.4733
 7451TIP3   OH243767   4.660   1.593  13.165  0.0734 -0.6183 -0.3389
 7451TIP3    H143768   4.707   1.570  13.245  3.4631 -0.5577 -2.1169
 7451TIP3    H243769   4.661   1.513  13.113  0.6909  0.1241 -1.5118
 7452TIP3   OH243770   0.745   3.652   3.772 -0.1164  0.4149  0.6111
 7452TIP3    H143771   0.709   3.593   3.838  1.1368 -0.0900  0.8780
 7452TIP3    H243772   0.769   3.595   3.699  1.3058  0.5293  0.9572
 7453TIP3   OH243773   5.700   2.615   4.614 -0.0838 -0.0692 -0.0059
 7453TIP3    H143774   5.606   2.609   4.595  0.1960  0.0815 -1.6395
 7453TIP3    H243775   5.719   2.709   4.609 -0.0241  0.0113  1.3934
 7454TIP3   OH243776   3.718   4.862  15.276 -0.1474 -0.7538 -0.1498
 7454TIP3    H143777   3.630   4.895  15.260  0.6851  1.6603 -0.2550
 7454TIP3    H243778   3.765   4.936  15.315  1.7716 -2.0317  0.1384
 7455TIP3   OH243779   1.597   4.009   3.091 -0.2764 -0.4075  0.1942
 7455TIP3    H143780   1.652   4.079   3.057  0.3463 -0.5256  0.9123
 7455TIP3    H243781   1.508   4.039   3.077 -0.0310  0.9326  1.2715
 7456TIP3   OH243782   0.218   1.365   4.052 -0.2967 -0.2436  0.4017
 7456TIP3    H143783   0.251   1.365   3.962 -1.1704 -0.6315  0.0747
 7456TIP3    H243784   0.296   1.381   4.105 -0.1927  3.2583 -0.5575
 7457TIP3   OH243785   6.110   0.363   5.139 -0.0719 -0.2148  0.5112
 7457TIP3    H143786   6.068   0.381   5.055 -1.7721  0.9357  1.5387
 7457TIP3    H243787   6.203   0.381   5.124 -0.0017 -1.9493 -1.6137
 7458TIP3   OH243788   3.089   2.037   5.130  0.1902  0.2715 -0.0461
 7458TIP3    H143789   2.998   2.055   5.154 -0.2233 -1.2909 -0.3488
 7458TIP3    H243790   3.084   1.971   5.061  1.5513  0.3197 -0.2264
 7459TIP3   OH243791   2.076   4.551  15.030  0.2931 -0.2674 -0.3210
 7459TIP3    H143792   2.164   4.535  15.064  0.0241 -2.8886 -0.6549
 7459TIP3    H243793   2.022   4.482  15.070 -1.6266  1.2169 -0.1774
 7460TIP3   OH243794   1.016   4.960  11.484  0.0559 -0.0318 -0.2586
 7460TIP3    H143795   0.930   4.918  11.484  1.1706 -2.4413 -0.7052
 7460TIP3    H243796   0.996   5.054  11.480 -2.5201 -0.5452 -1.4739
 7461TIP3   OH243797   1.715   5.655  13.081 -0.1712  0.3099 -0.6951
 7461TIP3    H143798   1.748   5.739  13.112 -1.1913  0.4925 -0.0506
 7461TIP3    H243799   1.646   5.631  13.143 -0.7084 -0.4327 -1.5329
 7462TIP3   OH243800   5.389   0.687   3.788 -0.0205  0.0987 -0.1850
 7462TIP3    H143801   5.386   0.633   3.867 -2.1585 -0.6689 -0.7214
 7462TIP3    H243802   5.322   0.649   3.731  1.4721  0.6099 -2.3971
 7463TIP3   OH243803   4.531   2.971  15.884  0.4849  0.3641 -0.4466
 7463TIP3    H143804   4.594   2.928  15.942 -1.1360  0.8865  1.8397
 7463TIP3    H243805   4.496   2.899  15.831  2.3829 -0.0426 -1.2627
 7464TIP3   OH243806   0.090   0.286   4.699  0.2950 -0.4471 -0.1109
 7464TIP3    H143807   0.039   0.308   4.777 -0.1875 -0.0405 -0.5304
 7464TIP3    H243808   0.025   0.281   4.629  1.1547  3.8167 -1.4855
 7465TIP3   OH243809   2.552   2.630   2.330  0.2612 -0.4406 -0.6829
 7465TIP3    H143810   2.500   2.558   2.296 -0.7857  0.4798 -1.0970
 7465TIP3    H243811   2.576   2.681   2.252 -0.2094  0.4241 -0.2765
 7466TIP3   OH243812   6.570   3.510   3.331  0.5303 -0.0403  0.2464
 7466TIP3    H143813   6.562   3.423   3.291  1.8014  0.4154 -1.1106
 7466TIP3    H243814   6.612   3.495   3.415  1.1811 -0.7010 -0.1901
 7467TIP3   OH243815   2.189   2.904   3.815  0.0869 -0.5531 -0.3599
 7467TIP3    H143816   2.235   2.964   3.756 -1.3672 -0.5267 -1.5260
 7467TIP3    H243817   2.244   2.826   3.818 -0.1621 -0.8443 -2.3823
 7468TIP3   OH243818   2.425   5.300  11.024  0.2292  0.2171 -0.2956
 7468TIP3    H143819   2.369   5.289  11.100 -1.1799 -0.3502 -1.3710
 7468TIP3    H243820   2.504   5.341  11.058  0.3560 -1.5748  1.7323
 7469TIP3   OH243821   6.176   5.605  10.632  0.8559  0.1023  0.1164
 7469TIP3    H143822   6.106   5.645  10.581  1.1452  1.5661  0.8330
 7469TIP3    H243823   6.142   5.518  10.655  0.7114 -0.6482 -2.5264
 7470TIP3   OH243824   5.250   2.397   1.526  0.2466  0.0103 -0.4391
 7470TIP3    H143825   5.168   2.368   1.565 -0.5729  1.2188 -1.2002
 7470TIP3    H243826   5.262   2.487   1.559  0.4721  0.3861 -1.5211
 7471TIP3   OH243827   5.460   5.995   0.632  0.2652 -0.3266 -0.3441
 7471TIP3    H143828   5.445   6.039   0.715 -0.6225  0.3955 -0.8700
 7471TIP3    H243829   5.522   6.051   0.585 -0.7206  0.2974 -0.9369
 7472TIP3   OH243830   1.683   3.258   4.316  0.1243  0.0694  0.2552
 7472TIP3    H143831   1.741   3.332   4.334 -0.0121  0.1371  0.4287
 7472TIP3    H243832   1.597   3.288   4.347 -0.2200  0.3674 -0.9430
 7473TIP3   OH243833   1.044   2.154  15.727 -0.2886 -0.5588 -0.2157
 7473TIP3    H143834   1.034   2.239  15.771  0.4054 -0.2264 -0.6881
 7473TIP3    H243835   0.966   2.105  15.752 -1.6190  0.8591 -1.3606
 7474TIP3   OH243836   5.579   0.490  10.527  0.0190  0.2105 -0.1229
 7474TIP3    H143837   5.537   0.554  10.584 -1.1358 -0.1888 -0.4779
 7474TIP3    H243838   5.614   0.541  10.454  3.2457  0.9891  1.7803
 7475TIP3   OH243839   4.383   4.567  11.309  0.6525  0.4710 -0.0905
 7475TIP3    H143840   4.464   4.604  11.274 -0.0805  0.3573 -2.0019
 7475TIP3    H243841   4.335   4.536  11.232 -1.0160  0.1410  1.0321
 7476TIP3   OH243842   5.095   2.566  14.056  0.9836 -0.5036 -0.0465
 7476TIP3    H143843   5.045   2.541  13.979 -0.2724  1.3714  0.0904
 7476TIP3    H243844   5.030   2.572  14.126  1.5762  0.6797  0.4430
 7477TIP3   OH243845   1.775   3.042  16.265  0.3855 -0.9556 -0.0857
 7477TIP3    H143846   1.754   3.124  16.221 -1.7167 -0.9467  0.7924
 7477TIP3    H243847   1.825   3.068  16.343  2.1730 -0.7947 -1.2364
 7478TIP3   OH243848   1.207   5.587   5.927 -0.5410  0.1935 -0.4999
 7478TIP3    H143849   1.279   5.544   5.882 -1.1388  0.4323 -1.7193
 7478TIP3    H243850   1.233   5.588   6.019  1.0737  0.4047 -0.9339
 7479TIP3   OH243851   0.843   3.272  16.281 -0.3199  0.0751  0.5509
 7479TIP3    H143852   0.889   3.325  16.217 -1.1119  0.2267  0.0914
 7479TIP3    H243853   0.910   3.244  16.343  1.0742 -2.5267 -1.9003
 7480TIP3   OH243854   1.848   1.987  16.751 -0.1516 -0.4948 -0.0205
 7480TIP3    H143855   1.909   2.014  16.820 -0.4290 -2.2589  0.9779
 7480TIP3    H243856   1.840   2.063  16.694  0.0143  1.0769  1.9635
 7481TIP3   OH243857   3.349   5.715  12.481 -0.4872  0.4823  0.2232
 7481TIP3    H143858   3.285   5.784  12.500  0.7270  2.0916 -1.1836
 7481TIP3    H243859   3.357   5.716  12.385 -0.1369 -1.3655  0.2099
 7482TIP3   OH243860   3.285   4.972   0.992  0.1973 -0.4487 -0.2376
 7482TIP3    H143861   3.287   4.955   0.898 -1.1720  2.2516 -0.8734
 7482TIP3    H243862   3.192   4.986   1.011  0.4102 -1.3544  1.6295
 7483TIP3   OH243863   1.379   2.294   1.937  0.2801 -0.6732 -0.5620
 7483TIP3    H143864   1.324   2.279   2.013  0.0811  0.6039 -0.4255
 7483TIP3    H243865   1.331   2.257   1.864 -0.4099 -0.2590 -0.3273
 7484TIP3   OH243866   1.766   4.221   1.630 -0.1552 -0.1608  0.5422
 7484TIP3    H143867   1.846   4.181   1.596  0.0163  0.6184 -0.0081
 7484TIP3    H243868   1.706   4.148   1.642 -0.0802 -0.5322 -1.0918
 7485TIP3   OH243869   6.264   0.997  10.847  0.4595 -0.2434 -0.2037
 7485TIP3    H143870   6.173   1.019  10.865  0.4936 -0.6454  0.5116
 7485TIP3    H243871   6.259   0.932  10.777  0.1401 -0.8403  0.3578
 7486TIP3   OH243872   1.852   2.399  13.607  0.0878 -0.4136  0.7791
 7486TIP3    H143873   1.904   2.477  13.589 -0.1927 -0.2134  0.8210
 7486TIP3    H243874   1.764   2.433  13.624 -0.8479 -0.9524 -2.3398
 7487TIP3   OH243875   0.229   4.444  14.235 -0.1062 -0.0837  0.6231
 7487TIP3    H143876   0.242   4.527  14.189 -0.2415 -0.6396 -0.4425
 7487TIP3    H243877   0.295   4.445  14.305  0.5017  0.5204  0.0627
 7488TIP3   OH243878   1.792   1.901  16.153 -0.1760  0.1017  0.2839
 7488TIP3    H143879   1.780   1.979  16.099  0.1766  0.7012  1.0460
 7488TIP3    H243880   1.860   1.926  16.216  2.7064 -1.9809 -1.7143
 7489TIP3   OH243881   6.805   1.104   3.864  0.2584 -0.2291 -0.6209
 7489TIP3    H143882   6.816   1.199   3.870 -0.0027 -0.2594  0.9512
 7489TIP3    H243883   6.799   1.086   3.771  1.9211  1.1039 -1.0389
 7490TIP3   OH243884   4.025   1.582   3.175 -0.5326  0.0192  0.3942
 7490TIP3    H143885   4.007   1.594   3.268 -0.6053 -3.0737  0.8959
 7490TIP3    H243886   4.100   1.639   3.157  0.0874 -0.0250  2.6126
 7491TIP3   OH243887   4.257   5.954   5.195  0.3350  0.5405  0.6659
 7491TIP3    H143888   4.267   5.904   5.276  0.0761 -3.4364 -1.5158
 7491TIP3    H243889   4.333   5.931   5.142 -0.2710  1.7971 -0.8445
 7492TIP3   OH243890   4.160   5.078  13.710  0.3269  0.3560 -0.3249
 7492TIP3    H143891   4.123   5.026  13.781 -0.6017  1.6639  0.1824
 7492TIP3    H243892   4.206   5.150  13.753 -2.9115  3.0336 -0.9158
 7493TIP3   OH243893   6.793   3.740  11.860  0.4059  0.3892  0.2177
 7493TIP3    H143894   6.773   3.832  11.844  0.8811  0.3114 -0.8951
 7493TIP3    H243895   6.850   3.714  11.788  1.6481 -0.3408  1.4149
 7494TIP3   OH243896   0.773   2.140   0.880  0.0070  0.0839 -0.4337
 7494TIP3    H143897   0.799   2.096   0.799 -0.0061  0.1300 -0.4627
 7494TIP3    H243898   0.680   2.157   0.869 -0.4185 -1.5242  0.3247
 7495TIP3   OH243899   0.942   4.282   1.756 -0.5835 -0.3582 -0.1552
 7495TIP3    H143900   0.992   4.318   1.829  0.3245 -0.2802 -0.8069
 7495TIP3    H243901   0.859   4.253   1.796 -0.6425  0.8727  0.6686
 7496TIP3   OH243902   4.782   5.031  16.759  0.2421 -0.0464 -0.5468
 7496TIP3    H143903   4.858   5.077  16.724  0.4139 -0.1118 -0.2581
 7496TIP3    H243904   4.708   5.090  16.741  0.4880  0.4449  0.0062
 7497TIP3   OH243905   3.537   4.525  13.690 -0.7137 -0.1489  0.0741
 7497TIP3    H143906   3.552   4.472  13.769 -0.8738 -1.4042 -0.7098
 7497TIP3    H243907   3.579   4.475  13.620 -0.9217  0.7528 -0.7045
 7498TIP3   OH243908   0.338   4.001  13.845 -0.0114  0.0283  0.0047
 7498TIP3    H143909   0.395   3.925  13.857 -1.8741 -1.5734 -0.7014
 7498TIP3    H243910   0.397   4.072  13.818  1.5680 -1.7192 -1.3934
 7499TIP3   OH243911   0.985   5.993  12.613 -0.0948  0.1969 -0.2285
 7499TIP3    H143912   0.891   6.009  12.623  0.2041  1.3514  0.9951
 7499TIP3    H243913   1.010   6.046  12.537 -0.6707 -1.2615 -1.4826
 7500TIP3   OH243914   6.166   4.443   4.839  0.1138  0.3192 -0.3621
 7500TIP3    H143915   6.234   4.376   4.833 -1.0371 -0.9022 -0.3234
 7500TIP3    H243916   6.168   4.471   4.930 -0.1540 -0.5047 -0.0965
 7501TIP3   OH243917   0.818   5.664   1.380  0.0798  0.0857 -0.1061
 7501TIP3    H143918   0.790   5.751   1.407 -0.0014 -0.1276  0.4951
 7501TIP3    H243919   0.914   5.667   1.384  0.1054  0.3507 -0.7370
 7502TIP3   OH243920   6.719   5.264  12.539  0.5169  0.5143  0.4222
 7502TIP3    H143921   6.640   5.211  12.544  1.5300 -1.0163  0.8359
 7502TIP3    H243922   6.691   5.351  12.567 -0.7348 -0.3487  2.0177
 7503TIP3   OH243923   2.759   4.481   4.062 -0.0720  1.0554  0.0245
 7503TIP3    H143924   2.782   4.494   3.970  0.8873  3.3011  0.5279
 7503TIP3    H243925   2.754   4.569   4.098  0.3396  0.1863  2.3260
 7504TIP3   OH243926   0.639   3.816  12.132  0.0474 -0.5867 -0.0985
 7504TIP3    H143927   0.591   3.896  12.152 -0.2719 -1.0165  0.8823
 7504TIP3    H243928   0.619   3.799  12.039 -0.5237  0.0263 -0.0925
 7505TIP3   OH243929   3.551   5.927   2.952 -0.0997  0.0207 -0.1711
 7505TIP3    H143930   3.621   5.930   3.018  1.7173 -3.0991 -1.7100
 7505TIP3    H243931   3.581   5.987   2.883 -1.2223  2.0552  1.0075
 7506TIP3   OH243932   0.562   2.769  16.364 -0.2726 -0.2660 -0.2079
 7506TIP3    H143933   0.556   2.704  16.434 -0.6242  1.7728  1.7747
 7506TIP3    H243934   0.490   2.747  16.305 -1.2176 -0.8946  1.1298
 7507TIP3   OH243935   2.887   4.916  11.773 -0.0890 -0.2764  0.1569
 7507TIP3    H143936   2.819   4.910  11.706  0.1023  1.6331 -0.2664
 7507TIP3    H243937   2.884   4.832  11.818 -2.1769 -0.5377 -0.3749
 7508TIP3   OH243938   1.046   4.107  14.157  0.4172 -0.5061  0.0354
 7508TIP3    H143939   1.059   4.012  14.154  0.5837 -0.4791 -0.0575
 7508TIP3    H243940   1.078   4.132  14.244 -3.1693 -1.0894  1.7062
 7509TIP3   OH243941   1.963   2.739   2.756 -0.0433 -0.3269 -0.0052
 7509TIP3    H143942   1.921   2.697   2.680 -0.5691 -1.9986  1.1549
 7509TIP3    H243943   1.987   2.666   2.813  1.1063  0.8492  1.0719
 7510TIP3   OH243944   4.103   5.197   5.652  0.2182  0.1254 -0.3942
 7510TIP3    H143945   4.027   5.253   5.635 -1.5942 -2.1265 -0.1199
 7510TIP3    H243946   4.069   5.108   5.651  2.3396 -0.8841  2.4109
 7511TIP3   OH243947   3.532   6.768   4.052 -0.3184  0.1945 -0.1470
 7511TIP3    H143948   3.555   6.831   4.120 -2.6627  1.1907 -0.1542
 7511TIP3    H243949   3.509   6.688   4.100  1.5068 -0.3346 -0.0658
 7512TIP3   OH243950   5.266   4.011  11.470  0.5501  0.3655  0.0574
 7512TIP3    H143951   5.201   3.943  11.486  0.9995 -0.1116 -0.1185
 7512TIP3    H243952   5.246   4.079  11.534  0.3960 -0.1503  0.5623
 7513TIP3   OH243953   1.880   1.679   5.293 -0.4490 -0.6482 -0.1873
 7513TIP3    H143954   1.908   1.697   5.383 -2.0268  0.0869  0.1904
 7513TIP3    H243955   1.895   1.760   5.246  1.4229 -1.3643 -0.9069
 7514TIP3   OH243956   3.847   5.471   5.063 -0.0793 -0.8529 -0.1788
 7514TIP3    H143957   3.902   5.452   4.987  0.4916  1.1866 -0.3315
 7514TIP3    H243958   3.906   5.513   5.126 -1.0874 -0.2091  0.3644
 7515TIP3   OH243959   6.469   3.990  11.002 -0.2829 -0.2371 -1.1934
 7515TIP3    H143960   6.527   4.063  10.982  0.8741 -1.0334 -0.8459
 7515TIP3    H243961   6.527   3.914  11.013 -1.2927 -0.8901  0.0072
 7516TIP3   OH243962   4.894   5.269   4.864 -0.2299  0.5786  0.4772
 7516TIP3    H143963   4.878   5.267   4.769 -1.0291 -1.1157  0.6136
 7516TIP3    H243964   4.986   5.295   4.872 -0.4214  1.7620 -0.6961
 7517TIP3   OH243965   2.018   4.141   0.871 -0.0002 -0.1254  0.0604
 7517TIP3    H143966   1.924   4.160   0.867 -0.1050 -0.7393 -0.6686
 7517TIP3    H243967   2.026   4.077   0.942  0.2171  1.7225  1.8000
 7518TIP3   OH243968   1.603   6.781   5.472  0.7429 -0.1736 -0.6253
 7518TIP3    H143969   1.634   6.718   5.537  1.3845  1.0906  0.3516
 7518TIP3    H243970   1.545   6.731   5.415 -0.0101 -1.2807  1.0453
 7519TIP3   OH243971   3.823   5.841  15.546  0.3540 -0.0053  0.4344
 7519TIP3    H143972   3.905   5.793  15.533  1.7214  1.9308  1.4207
 7519TIP3    H243973   3.768   5.780  15.595  1.2766 -1.2690 -0.0324
 7520TIP3   OH243974   4.976   0.952  14.883 -0.0747 -0.0833 -0.1694
 7520TIP3    H143975   4.921   0.875  14.897 -0.2503  0.0623 -0.0526
 7520TIP3    H243976   5.059   0.917  14.852  0.0314 -0.3549  0.4084
 7521TIP3   OH243977   1.439   4.158  14.589 -0.2461  0.3664  0.2841
 7521TIP3    H143978   1.390   4.081  14.561  1.0833 -1.2090  2.0319
 7521TIP3    H243979   1.527   4.125  14.609  0.9383  2.7005 -0.6813
 7522TIP3   OH243980   4.115   0.725   4.864  0.0124 -0.3016 -0.3209
 7522TIP3    H143981   4.067   0.791   4.814 -1.0263 -0.4799  0.4131
 7522TIP3    H243982   4.049   0.659   4.887  0.4965 -0.3340  1.0771
 7523TIP3   OH243983   1.546   0.523   4.797 -0.2717  0.3338 -0.0176
 7523TIP3    H143984   1.609   0.473   4.849 -0.7482  0.7052  0.9552
 7523TIP3    H243985   1.591   0.606   4.780 -0.1725  0.2723 -0.0565
 7524TIP3   OH243986   6.139   4.295  12.982  0.8623 -0.0948 -0.2895
 7524TIP3    H143987   6.167   4.354  12.912  2.3625 -1.6760 -1.0914
 7524TIP3    H243988   6.205   4.307  13.051  0.7699 -0.3179 -0.1598
 7525TIP3   OH243989   5.459   6.130  11.519 -0.1792  0.5483 -0.3704
 7525TIP3    H143990   5.524   6.066  11.551 -0.7268  0.5071  0.7052
 7525TIP3    H243991   5.509   6.210  11.505  0.1761  0.4030  0.0495
 7526TIP3   OH243992   2.169   5.368   5.262 -0.0350 -0.3061 -0.1399
 7526TIP3    H143993   2.128   5.284   5.240  1.1919 -0.5282 -1.7296
 7526TIP3    H243994   2.263   5.347   5.270  0.2870  0.9002 -0.5557
 7527TIP3   OH243995   3.784   2.495   2.469  0.4704 -0.1433  0.0155
 7527TIP3    H143996   3.778   2.426   2.535  0.8266  0.5822  0.8275
 7527TIP3    H243997   3.742   2.457   2.392 -1.3249 -0.4763  1.0892
 7528TIP3   OH243998   0.274   0.382  13.547 -0.5009  0.0266  0.3026
 7528TIP3    H143999   0.285   0.288  13.535 -1.2184 -0.5508  3.2890
 7528TIP3    H244000   0.249   0.415  13.461  0.2747 -2.4054 -0.9421
 7529TIP3   OH244001   0.054   5.399  15.243 -0.7622 -0.6429  0.1450
 7529TIP3    H144002   0.020   5.488  15.243  3.3869  1.2117  2.5039
 7529TIP3    H244003   0.072   5.379  15.151  1.0808  2.2736 -0.2183
 7530TIP3   OH244004   4.934   3.973  12.325  0.5911 -0.3562  0.4601
 7530TIP3    H144005   4.903   3.900  12.272 -1.0624 -0.6030  1.6656
 7530TIP3    H244006   4.867   3.982  12.394  1.8552  0.9207  1.5773
 7531TIP3   OH244007   4.960   5.126  14.159  0.2681 -0.5720 -0.1973
 7531TIP3    H144008   4.872   5.127  14.121  0.0895  1.0645  0.1733
 7531TIP3    H244009   5.009   5.191  14.108  1.1659 -1.2020 -0.1566
 7532TIP3   OH244010   1.792   1.399  12.491 -0.0578  0.4106  0.4112
 7532TIP3    H144011   1.799   1.401  12.586  3.0666 -1.0444  0.3275
 7532TIP3    H244012   1.880   1.374  12.461 -1.8204 -2.9132 -2.6863
 7533TIP3   OH244013   1.418   4.898   4.006 -0.0465 -0.1491 -0.3465
 7533TIP3    H144014   1.412   4.803   3.997 -2.3129 -0.2792  1.5481
 7533TIP3    H244015   1.349   4.932   3.950 -0.6478  0.2106  0.5812
 7534TIP3   OH244016   6.796   3.281   4.552  0.8073  0.1688  0.2518
 7534TIP3    H144017   6.708   3.248   4.570  0.1548  0.8563 -1.4377
 7534TIP3    H244018   6.813   3.344   4.621 -0.4381  0.7247  0.0766
 7535TIP3   OH244019   3.169   4.003  10.465 -0.2504  0.1833  0.2193
 7535TIP3    H144020   3.236   4.031  10.402 -1.8830  0.3219 -1.5453
 7535TIP3    H244021   3.182   4.060  10.540  0.7494  1.1413 -0.6343
 7536TIP3   OH244022   4.831   0.856  13.264  0.3015 -0.6913 -0.3896
 7536TIP3    H144023   4.771   0.782  13.269  0.4338 -0.8613 -1.2585
 7536TIP3    H244024   4.910   0.820  13.223  0.9191 -0.4177  0.5399
 7537TIP3   OH244025   1.269   0.857  15.654  0.7993  0.3554 -0.1823
 7537TIP3    H144026   1.218   0.919  15.705 -3.5332 -1.6695 -1.5613
 7537TIP3    H244027   1.322   0.810  15.718 -1.2809  0.6828  1.8995
 7538TIP3   OH244028   3.757   4.958   4.312 -0.0677  0.3893 -0.1985
 7538TIP3    H144029   3.726   5.048   4.300  1.8274  1.0620 -0.3716
 7538TIP3    H244030   3.732   4.913   4.231 -1.6971  0.5179  0.1944
 7539TIP3   OH244031   1.973   5.771   5.336  0.0025  0.3288  0.2692
 7539TIP3    H144032   1.931   5.782   5.421 -0.2662  0.5811  0.1101
 7539TIP3    H244033   1.911   5.812   5.274 -1.4776 -2.7313 -0.4780
 7540TIP3   OH244034   2.439   5.798  12.999  0.0569  0.9108 -0.4424
 7540TIP3    H144035   2.361   5.850  13.018 -1.0586 -0.8897  0.1037
 7540TIP3    H244036   2.412   5.736  12.931  0.9569  0.1508 -0.1417
 7541TIP3   OH244037   5.326   0.585  15.930  0.0856  0.1976 -0.0425
 7541TIP3    H144038   5.386   0.517  15.961 -0.9177 -1.0679 -0.7647
 7541TIP3    H244039   5.321   0.572  15.836 -1.5908  0.0347  0.0490
 7542TIP3   OH244040   4.605   2.117  16.512  0.4449 -0.6002 -0.2930
 7542TIP3    H144041   4.551   2.040  16.531 -0.5160 -0.6481 -2.7579
 7542TIP3    H244042   4.693   2.081  16.501  0.2393 -1.1647 -0.1590
 7543TIP3   OH244043   4.214   3.664  12.774 -0.1874 -0.6933  0.6558
 7543TIP3    H144044   4.303   3.692  12.796  0.1949 -1.7357  0.5398
 7543TIP3    H244045   4.217   3.648  12.680 -1.2681  1.8565  0.1343
 7544TIP3   OH244046   3.099   5.164  10.922  0.1329 -0.0868 -0.2508
 7544TIP3    H144047   3.079   5.070  10.919  1.6191 -0.4291 -0.4108
 7544TIP3    H244048   3.098   5.192  10.831 -1.8578  0.4286 -0.0930
 7545TIP3   OH244049   4.232   6.531  12.554 -0.1120  0.4171  0.2656
 7545TIP3    H144050   4.304   6.482  12.592  1.1773  2.8436  1.1574
 7545TIP3    H244051   4.254   6.537  12.461 -1.1982 -2.0520 -0.2422
 7546TIP3   OH244052   6.020   6.613  12.347 -0.0883 -0.2438 -0.1458
 7546TIP3    H144053   5.934   6.575  12.361 -0.4885 -0.4816 -2.7809
 7546TIP3    H244054   6.006   6.682  12.283  1.2610  1.7558  1.5496
 7547TIP3   OH244055   4.924   4.838   2.886 -0.1594 -0.2003 -0.3054
 7547TIP3    H144056   4.834   4.869   2.881  0.5970  2.8889  2.0679
 7547TIP3    H244057   4.969   4.883   2.814  0.1059  1.0222  0.5947
 7548TIP3   OH244058   6.785   0.957   5.043 -0.5385 -0.1576  0.7901
 7548TIP3    H144059   6.765   1.001   4.961  1.2613  1.6696  1.2435
 7548TIP3    H244060   6.704   0.960   5.093 -1.9383 -2.0933 -1.1734
 7549TIP3   OH244061   3.857   2.958  11.474 -0.5231  0.2707 -0.0108
 7549TIP3    H144062   3.765   2.935  11.485 -0.4579 -0.1883 -0.3872
 7549TIP3    H244063   3.899   2.876  11.447 -0.1264  0.6239 -0.4859
 7550TIP3   OH244064   0.777   4.083  14.112  0.2194  0.4069 -0.0516
 7550TIP3    H144065   0.868   4.054  14.123  0.4409  0.2409 -1.9938
 7550TIP3    H244066   0.772   4.165  14.160  1.2816  0.2040  0.4329
 7551TIP3   OH244067   5.492   4.970   3.989  0.5342 -0.6131 -0.4325
 7551TIP3    H144068   5.561   4.955   3.924  0.4200 -1.1991 -0.4175
 7551TIP3    H244069   5.417   4.918   3.958  0.3329 -0.5495 -0.0655
 7552TIP3   OH244070   5.242   4.807   4.637 -0.5355 -0.1429  0.1930
 7552TIP3    H144071   5.203   4.857   4.709  0.8056 -0.2180  1.0144
 7552TIP3    H244072   5.276   4.728   4.678  0.1850 -0.2217 -0.5305
 7553TIP3   OH244073   1.391   4.732   2.935  0.4803  0.2335 -0.1094
 7553TIP3    H144074   1.423   4.793   2.869  1.3858  0.0970  0.1900
 7553TIP3    H244075   1.359   4.657   2.885  0.3080  0.5158 -0.4302
 7554TIP3   OH244076   0.668   1.575   0.296  0.3218 -0.1162 -0.0915
 7554TIP3    H144077   0.596   1.637   0.280  0.6257  0.8217  1.8991
 7554TIP3    H244078   0.625   1.495   0.325  0.0524  0.4366  1.0745
 7555TIP3   OH244079   0.271   1.638  11.266 -0.5232 -0.2951 -0.4626
 7555TIP3    H144080   0.315   1.678  11.341  0.3869  2.8649 -2.4701
 7555TIP3    H244081   0.189   1.688  11.258 -1.0138 -1.1815 -1.0489
 7556TIP3   OH244082   0.208   5.319   2.415  0.0250  0.1468 -0.2905
 7556TIP3    H144083   0.242   5.264   2.486 -0.7679  1.9291  1.5876
 7556TIP3    H244084   0.116   5.331   2.436  0.5104  3.5783  0.4665
 7557TIP3   OH244085   4.975   6.666  15.706 -0.1924 -0.4167 -0.0528
 7557TIP3    H144086   5.038   6.595  15.720  0.8967  0.3479 -0.9257
 7557TIP3    H244087   4.915   6.660  15.781  0.5413 -1.5563  0.4660
 7558TIP3   OH244088   2.447   3.901   3.412  0.9156 -0.0158 -0.0312
 7558TIP3    H144089   2.431   3.815   3.451  0.6331  0.1675  0.2649
 7558TIP3    H244090   2.511   3.942   3.469  2.2249 -0.6037 -1.0108
 7559TIP3   OH244091   1.044   6.520   1.270 -0.1036  0.5843 -0.6794
 7559TIP3    H144092   1.130   6.563   1.272 -0.3416  1.0517 -0.3454
 7559TIP3    H244093   1.061   6.431   1.299  0.0002  1.1626  1.1249
 7560TIP3   OH244094   1.925   1.152   3.839 -0.0861  0.0318  0.5539
 7560TIP3    H144095   1.954   1.073   3.883 -1.2826 -1.3067 -0.9250
 7560TIP3    H244096   1.857   1.188   3.896  0.1169 -0.2913  1.0025
 7561TIP3   OH244097   4.516   6.423   2.982 -0.4997 -0.1753  0.4339
 7561TIP3    H144098   4.519   6.354   3.048  1.3847  0.5555  1.1658
 7561TIP3    H244099   4.603   6.422   2.941 -0.7536  1.1362 -0.1944
 7562TIP3   OH244100   5.088   5.748   2.352 -0.0050 -0.1262 -0.0261
 7562TIP3    H144101   5.131   5.792   2.425  1.9870  1.4512 -2.0236
 7562TIP3    H244102   5.103   5.805   2.277 -2.0525 -1.6180 -1.6979
 7563TIP3   OH244103   4.941   4.033  16.382 -0.3842 -0.0424 -0.0566
 7563TIP3    H144104   4.909   4.104  16.438  0.5487  0.1785  0.2135
 7563TIP3    H244105   5.035   4.049  16.374 -0.2474 -0.9549 -0.4222
 7564TIP3   OH244106   1.772   5.769   0.613  0.7019 -0.1948 -0.5858
 7564TIP3    H144107   1.865   5.793   0.618  0.4132  1.1939 -1.4034
 7564TIP3    H244108   1.731   5.843   0.567 -1.4127  0.9090  2.7458
 7565TIP3   OH244109   3.052   4.286   1.776 -0.5663 -0.0043 -0.1931
 7565TIP3    H144110   3.058   4.232   1.855 -2.2471  1.1129  0.7746
 7565TIP3    H244111   3.073   4.374   1.806 -0.1115  0.2573 -1.2510
 7566TIP3   OH244112   5.427   4.697   1.649  0.0335 -0.0231 -0.5685
 7566TIP3    H144113   5.497   4.761   1.661  0.0671 -0.2484  0.6623
 7566TIP3    H244114   5.467   4.614   1.674 -0.3999 -0.3070 -0.8082
 7567TIP3   OH244115   1.462   0.392  13.798  0.5003 -0.5087 -0.2824
 7567TIP3    H144116   1.548   0.427  13.824  0.4909  0.9117 -1.9692
 7567TIP3    H244117   1.413   0.386  13.880  0.3694  3.9551  0.2069
 7568TIP3   OH244118   4.052   1.232   2.747  0.0010 -0.0785  0.0019
 7568TIP3    H144119   4.061   1.315   2.795  2.1966 -0.0984 -0.2590
 7568TIP3    H244120   3.958   1.222   2.733 -0.2897  2.8423 -0.7862
 7569TIP3   OH244121   6.130   1.222   2.537  0.4150  0.2742  0.3192
 7569TIP3    H144122   6.107   1.306   2.576 -0.0730  0.4776 -0.3849
 7569TIP3    H244123   6.213   1.239   2.491  2.1729 -0.4874  2.9511
 7570TIP3   OH244124   2.808   3.868  17.024  0.0081  0.2010 -0.3324
 7570TIP3    H144125   2.807   3.907  16.937  0.2542  0.7656 -0.0931
 7570TIP3    H244126   2.901   3.854  17.043  0.1338  1.9172  0.6119
 7571TIP3   OH244127   2.500   3.033   6.459  0.8826 -0.0394  0.2546
 7571TIP3    H144128   2.589   3.055   6.430  0.1776  1.1878 -1.1366
 7571TIP3    H244129   2.443   3.080   6.398 -0.7443 -1.5545  0.5351
 7572TIP3   OH244130   3.813   2.604  12.072  0.0850  0.3940 -0.3360
 7572TIP3    H144131   3.849   2.574  11.988 -1.9600  0.0361 -1.1549
 7572TIP3    H244132   3.858   2.687  12.088  2.3098 -0.6938 -0.4936
 7573TIP3   OH244133   2.124   1.160   0.771  0.2600  0.0816 -0.0894
 7573TIP3    H144134   2.135   1.157   0.866 -2.6006 -0.1554  0.3159
 7573TIP3    H244135   2.155   1.247   0.746  1.5869 -0.0676  0.9408
 7574TIP3   OH244136   5.051   5.585  12.733  0.0680  0.0014  0.0151
 7574TIP3    H144137   5.024   5.531  12.807  0.5713 -2.5422 -1.5252
 7574TIP3    H244138   5.128   5.540  12.697  0.0017  1.2761 -1.8891
 7575TIP3   OH244139   1.178   1.640   5.239 -0.4407 -0.0830 -0.2345
 7575TIP3    H144140   1.233   1.628   5.316  0.2135  1.0569 -0.5015
 7575TIP3    H244141   1.189   1.559   5.189  0.0321 -0.3632  0.3137
 7576TIP3   OH244142   4.870   2.408  15.112 -0.2472 -0.2883  0.2265
 7576TIP3    H144143   4.816   2.355  15.171 -1.4181  0.2352 -0.3282
 7576TIP3    H244144   4.959   2.401  15.147  0.2701 -4.8647 -1.3558
 7577TIP3   OH244145   0.827   2.782  16.686 -0.7401  0.7469 -0.2584
 7577TIP3    H144146   0.760   2.841  16.652  0.5774  2.3481 -0.2432
 7577TIP3    H244147   0.897   2.785  16.621 -1.3593 -2.3750 -1.2311
 7578TIP3   OH244148   3.921   5.425   5.676  0.1265  0.3532  0.3609
 7578TIP3    H144149   4.003   5.470   5.696  0.0758 -0.1862  1.8767
 7578TIP3    H244150   3.854   5.475   5.723 -0.2656  0.1427  0.0334
 7579TIP3   OH244151   2.274   4.413  14.335 -0.3463 -0.0223  0.5420
 7579TIP3    H144152   2.205   4.477  14.316  0.8781  1.3339  0.5358
 7579TIP3    H244153   2.309   4.388  14.250 -0.4423 -0.3025  0.5801
 7580TIP3   OH244154   5.572   0.591   1.634  0.3162 -0.6251  0.1364
 7580TIP3    H144155   5.574   0.581   1.729  1.7429  0.3191  0.2374
 7580TIP3    H244156   5.480   0.606   1.614  0.1087  0.0576  1.4822
 7581TIP3   OH244157   1.539   6.591  16.847 -0.1997  0.0662 -1.0172
 7581TIP3    H144158   1.506   6.605  16.935  0.3010 -1.2747 -0.5864
 7581TIP3    H244159   1.484   6.521  16.812  1.6752 -1.7610 -0.5123
 7582TIP3   OH244160   0.269   3.241  13.339  0.5760 -0.2067 -0.1431
 7582TIP3    H144161   0.208   3.176  13.374  2.3039 -0.8087  2.0033
 7582TIP3    H244162   0.218   3.289  13.274 -1.1815 -2.7875 -0.8479
 7583TIP3   OH244163   2.031   1.513   1.562  0.2068  0.1136 -0.3265
 7583TIP3    H144164   1.965   1.507   1.631  1.4812 -0.4176  0.8954
 7583TIP3    H244165   2.060   1.423   1.547  1.7722  0.4660  0.3203
 7584TIP3   OH244166   2.245   4.245   2.456 -0.2718 -0.1458 -0.0740
 7584TIP3    H144167   2.205   4.159   2.440  1.2728 -0.9243  0.1002
 7584TIP3    H244168   2.219   4.297   2.379  0.3245 -1.3629 -1.1502
 7585TIP3   OH244169   3.715   5.178   2.290  0.2852 -0.0840  0.6064
 7585TIP3    H144170   3.708   5.273   2.297 -0.6393 -0.1701  0.9880
 7585TIP3    H244171   3.657   5.144   2.358  1.1506 -0.9284  0.9571
 7586TIP3   OH244172   1.518   4.978  12.856  0.3053  0.2378 -0.3003
 7586TIP3    H144173   1.547   4.941  12.939  1.8123  0.1891 -0.7995
 7586TIP3    H244174   1.545   4.912  12.791  1.0931  1.2185 -0.9980
 7587TIP3   OH244175   0.388   4.940  13.855  0.6117  0.2199  0.5324
 7587TIP3    H144176   0.415   4.999  13.784  0.8273 -1.5024 -0.8743
 7587TIP3    H244177   0.400   4.852  13.819 -0.5581 -0.6935  2.2552
 7588TIP3   OH244178   3.756   4.323  16.229 -0.2902 -0.8670  0.6899
 7588TIP3    H144179   3.822   4.269  16.272 -0.9749 -2.2973  0.0147
 7588TIP3    H244180   3.749   4.287  16.141 -0.6729  0.4294  0.1679
 7589TIP3   OH244181   1.233   4.190   3.313  0.1414 -0.0926 -0.1823
 7589TIP3    H144182   1.298   4.145   3.368 -2.1879 -3.6343 -0.0616
 7589TIP3    H244183   1.201   4.261   3.368  0.0508 -1.6681  1.9221
 7590TIP3   OH244184   5.704   4.325   1.155  0.2581 -0.1771 -0.1376
 7590TIP3    H144185   5.789   4.311   1.196 -0.1905 -0.6315  0.6606
 7590TIP3    H244186   5.677   4.413   1.184  0.9020  0.3934 -1.2203
 7591TIP3   OH244187   6.116   3.368   1.290  0.0074  0.6094 -0.3504
 7591TIP3    H144188   6.169   3.324   1.223  0.9932  2.0370 -0.5388
 7591TIP3    H244189   6.056   3.423   1.240  0.4908  1.3910 -0.0819
 7592TIP3   OH244190   4.480   3.935  16.899 -0.3262  0.2282 -0.0271
 7592TIP3    H144191   4.415   3.872  16.931  0.1155 -0.0593  0.3201
 7592TIP3    H244192   4.496   3.909  16.808 -0.1294 -0.1899  0.1200
 7593TIP3   OH244193   5.333   5.712  16.718  0.3300 -0.4879  0.2849
 7593TIP3    H144194   5.353   5.793  16.765  0.8153 -0.1896 -0.4240
 7593TIP3    H244195   5.325   5.646  16.787 -0.2760  0.1940  0.8828
 7594TIP3   OH244196   2.021   4.518  15.905  0.4916 -0.5564  0.0905
 7594TIP3    H144197   1.948   4.460  15.885  0.5485 -0.5784 -0.0576
 7594TIP3    H244198   2.020   4.525  16.000  2.6692 -3.7349  0.5283
 7595TIP3   OH244199   0.755   5.770  16.475  0.0076 -0.4289 -0.3554
 7595TIP3    H144200   0.660   5.767  16.490  0.0734 -0.3765  0.1087
 7595TIP3    H244201   0.774   5.692  16.424 -0.0191 -1.4965  1.1925
 7596TIP3   OH244202   4.391   4.879   3.554  0.0224 -0.4969 -0.0358
 7596TIP3    H144203   4.485   4.885   3.537 -0.3426 -1.1900 -2.6056
 7596TIP3    H244204   4.376   4.786   3.573 -0.4065 -0.8255 -1.7900
 7597TIP3   OH244205   6.039   6.371  15.369 -0.2455  0.2641  0.0986
 7597TIP3    H144206   6.010   6.330  15.287 -3.5182 -0.5978  1.5160
 7597TIP3    H244207   5.959   6.405  15.408  1.3430  1.4894  2.5445
 7598TIP3   OH244208   0.441   5.632   2.826 -0.2690 -0.4328 -0.5450
 7598TIP3    H144209   0.346   5.644   2.821 -0.2159  0.1975 -0.1162
 7598TIP3    H244210   0.469   5.630   2.734 -0.5556  0.6470 -0.6717
 7599TIP3   OH244211   4.506   3.090   2.861 -0.6500  0.2214  0.3552
 7599TIP3    H144212   4.513   3.101   2.766  0.1199  1.4053  0.5230
 7599TIP3    H244213   4.479   3.177   2.892 -0.5148 -0.0518  1.2505
 7600TIP3   OH244214   0.565   6.128  13.744  0.0155  0.5015 -0.9905
 7600TIP3    H144215   0.643   6.173  13.779  0.9821 -0.1421 -2.2195
 7600TIP3    H244216   0.533   6.186  13.675  1.0822 -0.4853 -2.3707
 7601TIP3   OH244217   4.114   5.107   3.200 -0.9378 -0.6251  0.8601
 7601TIP3    H144218   4.131   5.070   3.287 -0.6243 -0.5472  0.8323
 7601TIP3    H244219   4.200   5.109   3.158 -1.1592 -1.0714  0.3869
 7602TIP3   OH244220   2.660   0.578  16.764  0.0540 -0.2073  0.5162
 7602TIP3    H144221   2.607   0.499  16.771 -1.1143  0.4705 -0.3408
 7602TIP3    H244222   2.599   0.646  16.736  1.3995  0.5772 -0.6728
 7603TIP3   OH244223   2.665   5.603   2.744 -0.0203 -0.0692 -0.2396
 7603TIP3    H144224   2.642   5.552   2.667 -0.3747 -1.5417  0.7911
 7603TIP3    H244225   2.581   5.638   2.776  0.2561  1.4763 -1.1176
 7604TIP3   OH244226   3.599   3.952   2.313  0.6658 -0.2507 -0.4788
 7604TIP3    H144227   3.504   3.966   2.317  0.8566  1.0985 -0.3795
 7604TIP3    H244228   3.626   3.992   2.230  0.9922 -1.7866 -1.1644
 7605TIP3   OH244229   3.839   1.090  12.070  0.1169 -0.0997 -0.1151
 7605TIP3    H144230   3.809   1.035  12.142  0.2086 -0.2899 -0.2223
 7605TIP3    H244231   3.813   1.043  11.991  0.7770 -0.3180 -0.2116
 7606TIP3   OH244232   1.213   3.311   5.963 -0.3905  0.4208 -0.3762
 7606TIP3    H144233   1.132   3.278   6.002 -0.4505  0.7549 -0.2159
 7606TIP3    H244234   1.184   3.361   5.887 -0.4488  1.7290  0.4748
 7607TIP3   OH244235   6.735   4.048   5.429  0.1399  0.1234 -0.2255
 7607TIP3    H144236   6.700   3.976   5.482  0.8408  0.1913  0.3428
 7607TIP3    H244237   6.824   4.021   5.409 -1.0804 -1.5749 -4.3724
 7608TIP3   OH244238   0.986   5.997   1.905  0.1895 -0.1309 -0.4003
 7608TIP3    H144239   0.907   5.973   1.857  0.2750  0.2869 -0.7574
 7608TIP3    H244240   1.058   5.974   1.845  0.3361 -0.4682 -0.0963
 7609TIP3   OH244241   0.634   2.232   1.205  0.4800  0.1663 -0.6247
 7609TIP3    H144242   0.581   2.154   1.187  0.8216 -0.4249  0.8431
 7609TIP3    H244243   0.576   2.291   1.252  0.0468  1.0889 -2.2145
 7610TIP3   OH244244   3.509   4.425  11.314  0.4590 -0.0901  0.8811
 7610TIP3    H144245   3.503   4.508  11.362 -0.6257  0.0035  0.6177
 7610TIP3    H244246   3.452   4.437  11.238 -1.4543 -1.7649  1.9174
 7611TIP3   OH244247   5.697   6.054   4.565  0.1208 -0.2548  0.2985
 7611TIP3    H144248   5.669   6.039   4.655  1.6833 -1.4698  0.6208
 7611TIP3    H244249   5.723   6.146   4.562 -1.2285  0.1652  0.6917
 7612TIP3   OH244250   1.990   3.717  11.006 -0.4222 -0.1486  0.2286
 7612TIP3    H144251   1.997   3.722  10.910  0.4499  0.3755  0.3115
 7612TIP3    H244252   2.038   3.637  11.029  1.0249  0.7350  0.3733
 7613TIP3   OH244253   6.751   6.013   4.555 -0.3786  0.7985 -0.4171
 7613TIP3    H144254   6.766   6.103   4.586  0.2698  0.3578  0.5938
 7613TIP3    H244255   6.793   5.958   4.621  0.3473 -0.2122 -1.6866
 7614TIP3   OH244256   3.190   5.428   5.720 -0.0816 -0.2176 -0.1149
 7614TIP3    H144257   3.115   5.393   5.769 -0.1706  1.0892  0.7225
 7614TIP3    H244258   3.209   5.512   5.761  0.6752  0.3334 -1.5193
 7615TIP3   OH244259   3.019   4.638   1.607  0.2193  0.0264  0.5316
 7615TIP3    H144260   2.944   4.665   1.660 -0.3646 -1.5601  0.5626
 7615TIP3    H244261   3.087   4.702   1.629 -1.0451  1.3942  0.6283
 7616TIP3   OH244262   6.028   4.968  16.715 -0.6806  0.0639  0.3395
 7616TIP3    H144263   5.990   5.055  16.705 -1.6955 -0.5217 -1.0810
 7616TIP3    H244264   6.054   4.964  16.807  0.3279  2.2261  0.1989
 7617TIP3   OH244265   4.574   4.835   0.851 -0.1319 -0.3232  0.0438
 7617TIP3    H144266   4.491   4.788   0.844 -0.0152 -0.2882 -2.0619
 7617TIP3    H244267   4.641   4.768   0.835  0.2622 -0.2758  1.3542
 7618TIP3   OH244268   1.696   4.818   4.604 -0.0785 -0.1895 -0.3612
 7618TIP3    H144269   1.634   4.889   4.586 -2.5508 -1.6449  1.8725
 7618TIP3    H244270   1.752   4.853   4.673  0.7031  0.5786 -1.3365
 7619TIP3   OH244271   6.279   3.612   3.264  0.1436  0.1278 -0.0730
 7619TIP3    H144272   6.241   3.526   3.247  0.6311  0.1780 -1.5231
 7619TIP3    H244273   6.363   3.593   3.305 -0.7254 -0.0042  1.7921
 7620TIP3   OH244274   2.153   5.152  12.625  0.0107 -0.0486 -0.6664
 7620TIP3    H144275   2.170   5.235  12.581  0.1840 -0.4139 -1.3194
 7620TIP3    H244276   2.221   5.145  12.691 -1.7915  1.7517  1.5525
 7621TIP3   OH244277   0.264   4.082  16.074  0.0391  0.4047 -0.0614
 7621TIP3    H144278   0.359   4.085  16.065  0.2164 -1.7949  0.3825
 7621TIP3    H244279   0.234   4.053  15.987 -0.0816 -0.2307  0.1854
 7622TIP3   OH244280   4.600   0.317  12.199  0.1526  0.0413 -0.0001
 7622TIP3    H144281   4.643   0.371  12.266 -0.9487 -0.1067  0.8683
 7622TIP3    H244282   4.670   0.265  12.161  0.9338  0.7220  0.4858
 7623TIP3   OH244283   5.613   6.349  11.596  0.0104  0.2521  0.5138
 7623TIP3    H144284   5.632   6.344  11.503 -0.4727  0.2322  0.4187
 7623TIP3    H244285   5.675   6.415  11.629  0.2515  0.1830  0.2022
 7624TIP3   OH244286   1.124   1.544   3.647  0.2091  0.0917  0.2374
 7624TIP3    H144287   1.084   1.473   3.597  1.3170 -2.2014  2.3893
 7624TIP3    H244288   1.215   1.546   3.617  0.1881  0.5901  0.2038
 7625TIP3   OH244289   4.968   2.616   4.022 -0.4245 -0.2568 -0.6837
 7625TIP3    H144290   4.901   2.615   4.091 -0.1327  1.1118 -0.3489
 7625TIP3    H244291   4.964   2.706   3.987  3.3195  0.9403  1.4558
 7626TIP3   OH244292   1.844   4.171  16.880 -0.4567 -0.1473 -0.2478
 7626TIP3    H144293   1.834   4.174  16.785  0.1066 -3.3727 -0.5409
 7626TIP3    H244294   1.755   4.176  16.914 -0.8904 -1.2558 -1.1379
 7627TIP3   OH244295   3.239   6.159  10.933 -0.3175  0.0371 -0.6199
 7627TIP3    H144296   3.305   6.160  10.864  0.0991  0.5225 -0.2227
 7627TIP3    H244297   3.287   6.184  11.012 -0.9830  0.4147 -0.3275
 7628TIP3   OH244298   1.648   6.065   5.691  0.2897 -0.0430 -0.3749
 7628TIP3    H144299   1.738   6.094   5.702  1.0431 -2.1340 -0.5312
 7628TIP3    H244300   1.630   6.011   5.768  0.1453 -1.8250 -1.5788
 7629TIP3   OH244301   6.624   5.126   5.080 -0.0636 -0.7803  0.9107
 7629TIP3    H144302   6.609   5.211   5.039  0.8882 -1.0156  0.0221
 7629TIP3    H244303   6.543   5.106   5.125 -0.6305  0.1710  0.3449
 7630TIP3   OH244304   4.412   0.401  11.040 -0.3249 -0.5883  0.1556
 7630TIP3    H144305   4.440   0.372  10.953 -1.9185 -2.0455  0.0637
 7630TIP3    H244306   4.325   0.439  11.025 -1.5849 -2.7750  1.2985
 7631TIP3   OH244307   0.777   1.620   1.708  0.2332  0.5496 -0.1430
 7631TIP3    H144308   0.738   1.533   1.715  0.2012  0.1731 -3.2772
 7631TIP3    H244309   0.840   1.624   1.779  0.2630 -2.0734  0.0824
 7632TIP3   OH244310   0.686   5.609   5.356 -0.1843 -0.2189 -0.0634
 7632TIP3    H144311   0.773   5.570   5.367 -0.8120 -1.9328 -0.8274
 7632TIP3    H244312   0.638   5.583   5.435 -0.6209 -1.1269 -0.6016
 7633TIP3   OH244313   0.546   3.521   1.290 -0.4136 -0.1135 -0.2069
 7633TIP3    H144314   0.452   3.534   1.296 -0.2747  0.9870 -0.1038
 7633TIP3    H244315   0.577   3.595   1.237  0.2632 -1.0692 -1.2038
 7634TIP3   OH244316   0.973   2.874   5.240  0.8187  0.2285 -0.4758
 7634TIP3    H144317   0.995   2.964   5.262 -0.5759  0.8175 -1.3306
 7634TIP3    H244318   1.021   2.856   5.159  1.8680 -0.1588  0.2117
 7635TIP3   OH244319   0.360   2.644  16.211  0.0403  0.1748 -0.2315
 7635TIP3    H144320   0.412   2.569  16.182 -2.1490 -1.3837 -0.4690
 7635TIP3    H244321   0.344   2.695  16.131  0.4934  0.1967 -0.3073
 7636TIP3   OH244322   4.725   1.130   3.283  0.0927 -0.1638  0.1871
 7636TIP3    H144323   4.634   1.122   3.255 -0.0086  0.5958  0.2710
 7636TIP3    H244324   4.741   1.225   3.283  0.0494 -0.0844  2.8573
 7637TIP3   OH244325   1.812   5.470   1.739  0.1821  0.6877  0.0375
 7637TIP3    H144326   1.806   5.436   1.650  0.6500 -0.0528  0.2767
 7637TIP3    H244327   1.892   5.431   1.774 -1.3592 -1.2310  1.6791
 7638TIP3   OH244328   0.119   4.261  12.548 -0.4148 -0.3408 -0.0166
 7638TIP3    H144329   0.040   4.285  12.499  0.3080  1.1982 -0.4653
 7638TIP3    H244330   0.090   4.191  12.606 -1.4326 -1.9235 -2.2584
 7639TIP3   OH244331   3.851   2.143  10.583 -0.1678  0.0143  0.8366
 7639TIP3    H144332   3.889   2.071  10.632  0.4014  0.7838  1.5538
 7639TIP3    H244333   3.879   2.222  10.629 -2.1079  0.6591  1.0110
 7640TIP3   OH244334   5.433   4.425   5.593  0.1808  0.2503  0.1487
 7640TIP3    H144335   5.414   4.502   5.646 -1.1086 -0.1558  0.3099
 7640TIP3    H244336   5.356   4.415   5.537  0.7873 -0.3231 -0.6018
 7641TIP3   OH244337   6.001   3.024   5.081  0.2082 -0.0354 -0.1839
 7641TIP3    H144338   6.087   3.014   5.121  0.7849 -0.2998 -1.4584
 7641TIP3    H244339   5.998   3.115   5.053 -0.5577  0.4085  1.2099
 7642TIP3   OH244340   2.668   1.463   0.220 -0.5491  0.4047  0.4438
 7642TIP3    H144341   2.729   1.481   0.292  0.3807 -0.9262  0.0252
 7642TIP3    H244342   2.710   1.500   0.143 -0.5509 -0.0013  0.2470
 7643TIP3   OH244343   5.869   3.456  12.158  0.1397  0.0270  0.1298
 7643TIP3    H144344   5.856   3.551  12.152  0.5463  0.0163 -1.1285
 7643TIP3    H244345   5.787   3.423  12.194 -0.4564  0.7436 -0.5340
 7644TIP3   OH244346   5.826   4.080  10.547 -0.5906 -0.4181  0.5404
 7644TIP3    H144347   5.785   4.011  10.496 -1.6048  0.7163 -0.2545
 7644TIP3    H244348   5.865   4.139  10.481  2.5004 -1.4715  1.2385
 7645TIP3   OH244349   5.883   0.123  13.542  0.2112  0.1796 -0.3818
 7645TIP3    H144350   5.920   0.076  13.468 -0.5986 -1.4740  0.2188
 7645TIP3    H244351   5.883   0.215  13.515 -1.2740 -0.4889 -2.9658
 7646TIP3   OH244352   1.770   2.788   5.211  0.4070 -0.0579 -0.6705
 7646TIP3    H144353   1.793   2.806   5.302  0.4326  0.1841 -0.7239
 7646TIP3    H244354   1.677   2.766   5.214  0.3614  0.1454 -0.6128
 7647TIP3   OH244355   4.803   0.921   0.937  0.2085 -0.3749  0.3550
 7647TIP3    H144356   4.845   1.007   0.939  1.3156 -0.8613 -0.7860
 7647TIP3    H244357   4.813   0.892   0.846 -0.8433 -1.3813  0.5427
 7648TIP3   OH244358   3.007   6.081  12.037  0.4249  0.0348 -0.1049
 7648TIP3    H144359   3.037   6.124  12.117  1.8558 -2.2567  0.7017
 7648TIP3    H244360   3.071   6.106  11.970 -1.2833  2.7116 -0.9140
 7649TIP3   OH244361   1.908   5.103  16.878 -0.0424  0.8688 -0.2396
 7649TIP3    H144362   1.976   5.091  16.945  0.6982 -0.8444 -1.2276
 7649TIP3    H244363   1.853   5.024  16.886  0.7632  0.0336 -2.3948
 7650TIP3   OH244364   5.214   3.559  13.080  0.0185  0.1901  0.0716
 7650TIP3    H144365   5.192   3.471  13.050 -1.5605  0.8544 -0.8256
 7650TIP3    H244366   5.279   3.590  13.017  0.0991 -0.0904  0.0159
 7651TIP3   OH244367   0.031   6.552  10.853 -0.2260 -0.2183  0.2275
 7651TIP3    H144368  -0.014   6.477  10.813 -0.5100 -0.0834  0.2884
 7651TIP3    H244369  -0.040   6.605  10.891 -0.1990  0.8923 -1.1651
 7652TIP3   OH244370   6.280   1.731   2.018 -0.0410  0.3690 -0.1510
 7652TIP3    H144371   6.215   1.761   1.954 -1.0264 -1.3303  0.0135
 7652TIP3    H244372   6.354   1.702   1.964 -0.3435  0.1645 -0.4608
 7653TIP3   OH244373   5.060   0.530  14.043  0.4173  0.5398 -0.1140
 7653TIP3    H144374   4.965   0.537  14.052  0.1174  0.6045 -2.5058
 7653TIP3    H244375   5.073   0.493  13.956  2.5955 -0.6185  0.6284
 7654TIP3   OH244376   0.528   1.974   0.681  0.4193 -0.0783  0.0622
 7654TIP3    H144377   0.539   1.880   0.693  0.9896 -0.3982 -2.4944
 7654TIP3    H244378   0.616   2.010   0.687  0.1679  0.3785  1.3657
 7655TIP3   OH244379   6.054   1.140   3.158 -0.0088 -0.1167 -0.3444
 7655TIP3    H144380   5.983   1.204   3.148  0.4903  0.4142 -0.5252
 7655TIP3    H244381   6.114   1.160   3.087 -0.5070 -1.6696 -1.2380
 7656TIP3   OH244382   0.865   4.299  13.431 -0.3226  0.2810 -0.0062
 7656TIP3    H144383   0.830   4.271  13.347  0.0388  1.2052 -0.4831
 7656TIP3    H244384   0.821   4.243  13.496  1.4439 -2.3697 -0.9642
 7657TIP3   OH244385   2.725   1.659   4.038  0.1287  0.0145  0.3460
 7657TIP3    H144386   2.793   1.594   4.054 -0.5893 -0.4832  1.4629
 7657TIP3    H244387   2.768   1.725   3.983  0.8376 -1.4247 -0.9171
 7658TIP3   OH244388   4.967   1.377  12.796 -0.5189  0.3979 -0.8725
 7658TIP3    H144389   4.984   1.468  12.770 -0.1658  0.3713 -0.7451
 7658TIP3    H244390   4.944   1.383  12.889  0.5983  0.2556 -0.5654
 7659TIP3   OH244391   3.463   5.842  16.962  0.1522  0.3856 -0.8540
 7659TIP3    H144392   3.383   5.793  16.944 -1.4873  1.8405  1.7995
 7659TIP3    H244393   3.512   5.786  17.022 -0.6999  0.9643  0.4472
 7660TIP3   OH244394   1.628   1.090   2.364  0.5581  0.2726 -0.4039
 7660TIP3    H144395   1.663   1.140   2.437  0.3673 -2.0351  1.4019
 7660TIP3    H244396   1.659   1.001   2.378 -2.9204 -1.1786 -0.7071
 7661TIP3   OH244397   2.927   5.631   1.857 -0.0895 -0.2198  0.3579
 7661TIP3    H144398   2.997   5.685   1.820 -0.3489 -0.5617 -0.6614
 7661TIP3    H244399   2.930   5.649   1.951 -0.0515  1.4402  0.0667
 7662TIP3   OH244400   1.820   1.839  11.214  0.2691  0.3798  0.0526
 7662TIP3    H144401   1.900   1.834  11.162  1.0403  0.5113  1.1830
 7662TIP3    H244402   1.769   1.762  11.189  0.3915  0.7042 -1.2397
 7663TIP3   OH244403   0.321   1.292  13.125  0.3954  0.1657  0.2948
 7663TIP3    H144404   0.376   1.326  13.196 -0.5576  1.8478  0.2620
 7663TIP3    H244405   0.242   1.345  13.128 -0.8362 -1.5290 -0.3092
 7664TIP3   OH244406   3.609   0.639   1.599  0.0200  0.1752  0.0748
 7664TIP3    H144407   3.539   0.657   1.537  0.3152  0.6600 -0.1217
 7664TIP3    H244408   3.682   0.610   1.544  0.0429 -0.1261  0.2616
 7665TIP3   OH244409   3.861   2.503  14.467 -0.3823  0.0441  0.0500
 7665TIP3    H144410   3.816   2.425  14.499 -1.1924  0.3598 -0.3063
 7665TIP3    H244411   3.792   2.557  14.428  0.3957  0.2225 -1.1282
 7666TIP3   OH244412   3.938   4.264   6.307 -0.1470  0.0439  0.0615
 7666TIP3    H144413   3.895   4.297   6.228  0.7608  0.8140 -0.1394
 7666TIP3    H244414   3.968   4.343   6.352 -0.0720 -0.4200  0.8400
 7667TIP3   OH244415   5.939   4.143  14.449  0.5789 -0.3351  0.4814
 7667TIP3    H144416   5.949   4.075  14.382 -1.9759 -0.8322  0.4720
 7667TIP3    H244417   6.021   4.141  14.499  1.4397 -1.8845 -0.8960
 7668TIP3   OH244418   0.825   2.358  11.399 -0.7640 -0.0866  0.2179
 7668TIP3    H144419   0.750   2.416  11.417 -0.5764  1.4625 -3.2043
 7668TIP3    H244420   0.899   2.418  11.391 -0.0790 -1.0756 -1.0811
 7669TIP3   OH244421   3.915   6.301   4.605  0.0361 -0.2880 -0.5190
 7669TIP3    H144422   3.841   6.346   4.646  0.1178  0.7271 -1.4587
 7669TIP3    H244423   3.883   6.211   4.592 -0.4314 -0.2988  0.5855
 7670TIP3   OH244424   3.551   5.236  14.988  0.0414 -0.2235 -1.1042
 7670TIP3    H144425   3.575   5.311  15.043 -0.2266  0.8333 -2.3570
 7670TIP3    H244426   3.459   5.250  14.967 -0.0279 -0.9442 -1.3130
 7671TIP3   OH244427   1.499   5.199  14.614 -0.1152  0.3608  0.8920
 7671TIP3    H144428   1.551   5.122  14.591  1.1251  1.5007 -0.3606
 7671TIP3    H244429   1.409   5.174  14.594  0.2805 -0.6918  0.3215
 7672TIP3   OH244430   1.896   4.558  13.939 -0.3054 -0.0725  0.0410
 7672TIP3    H144431   1.815   4.507  13.937 -0.5533  0.3206  0.1921
 7672TIP3    H244432   1.893   4.610  13.858 -1.9758  2.6995  1.7209
 7673TIP3   OH244433   0.057   4.219   3.613  0.3030 -0.0856  0.1243
 7673TIP3    H144434   0.003   4.218   3.691  1.2153  0.3108  0.7794
 7673TIP3    H244435   0.116   4.144   3.624  2.0627  1.3407  1.0334
 7674TIP3   OH244436   1.682   4.850  15.958 -0.3230  0.0412 -0.1743
 7674TIP3    H144437   1.612   4.790  15.932 -0.4255 -0.4674  1.2250
 7674TIP3    H244438   1.711   4.818  16.043  1.3010  0.5329 -0.5095
 7675TIP3   OH244439   2.524   0.773  13.597  0.6689  0.6429 -0.6807
 7675TIP3    H144440   2.602   0.726  13.627 -0.6416  0.1745  2.4346
 7675TIP3    H244441   2.508   0.838  13.666 -2.3523 -0.1027 -0.5481
 7676TIP3   OH244442   0.565   3.942   1.792 -0.4214  0.1916 -0.2553
 7676TIP3    H144443   0.540   3.973   1.704 -0.0089  0.7594 -0.1773
 7676TIP3    H244444   0.482   3.913   1.831 -0.5471 -0.5041 -0.9953
 7677TIP3   OH244445   5.932   5.564  11.615 -0.5880 -0.7438 -0.3193
 7677TIP3    H144446   5.887   5.604  11.689  0.9078 -2.3308  1.5747
 7677TIP3    H244447   5.999   5.628  11.589 -2.8002  0.9805 -2.1822
 7678TIP3   OH244448   0.588   2.224  14.109 -0.4940 -0.2450  0.0347
 7678TIP3    H144449   0.569   2.167  14.183 -1.0166 -0.6127 -0.3788
 7678TIP3    H244450   0.544   2.307  14.131  0.2073 -0.0112  0.6020
 7679TIP3   OH244451   4.495   6.765  14.736  0.1842 -0.2653  0.0414
 7679TIP3    H144452   4.475   6.723  14.653  0.5373 -0.4350  0.0402
 7679TIP3    H244453   4.529   6.851  14.712  0.9378 -0.5731 -0.0233
 7680TIP3   OH244454   1.722   6.451  13.505  0.1516 -0.0407  0.2672
 7680TIP3    H144455   1.628   6.435  13.517 -0.1055 -0.8829 -2.2328
 7680TIP3    H244456   1.735   6.541  13.533 -1.3164 -0.0379  1.0397
 7681TIP3   OH244457   6.360   1.723  14.637 -0.8205 -0.0319  0.6546
 7681TIP3    H144458   6.274   1.760  14.617 -0.5737  0.3791  0.3464
 7681TIP3    H244459   6.369   1.732  14.732 -0.3005  1.7349  0.4712
 7682TIP3   OH244460   5.765   5.991  14.427 -0.0268  0.2196 -0.2051
 7682TIP3    H144461   5.750   6.073  14.380 -0.7139 -0.4903 -1.2654
 7682TIP3    H244462   5.792   5.929  14.360  2.8901  0.1341  0.9153
 7683TIP3   OH244463   2.397   4.529  14.549  0.4781 -0.1790  0.2173
 7683TIP3    H144464   2.383   4.463  14.617  0.8895 -1.0615 -0.5482
 7683TIP3    H244465   2.337   4.505  14.479 -1.1134  1.6416  0.8639
 7684TIP3   OH244466   3.688   6.549   4.476  0.0962  0.0436 -0.5297
 7684TIP3    H144467   3.717   6.640   4.471  1.8853 -0.5474 -2.2213
 7684TIP3    H244468   3.659   6.528   4.388 -0.0125 -1.1026 -0.2420
 7685TIP3   OH244469   1.554   1.053   4.573  0.3956 -0.4708 -0.0636
 7685TIP3    H144470   1.559   1.119   4.642  0.5445  0.6075 -1.0752
 7685TIP3    H244471   1.620   1.080   4.509 -0.8832 -0.4834 -1.4344
 7686TIP3   OH244472   6.309   0.875  12.635 -0.6539 -0.0754  0.0840
 7686TIP3    H144473   6.319   0.781  12.623 -2.8204 -0.2954 -0.3647
 7686TIP3    H244474   6.317   0.889  12.729 -2.1268 -0.9952  0.3727
 7687TIP3   OH244475   6.451   6.361  13.761  0.2020  0.1829 -0.0226
 7687TIP3    H144476   6.438   6.408  13.844 -0.9626 -1.1166  0.5674
 7687TIP3    H244477   6.500   6.283  13.785  1.8348  0.8692 -0.9449
 7688TIP3   OH244478   2.698   6.157  15.296 -0.0666  0.3292  0.8125
 7688TIP3    H144479   2.657   6.158  15.210 -0.1027  1.8656  0.8367
 7688TIP3    H244480   2.781   6.111  15.282  0.4599  1.5830 -0.2987
 7689TIP3   OH244481   4.187   4.365   1.743  0.3111 -0.0767 -0.0822
 7689TIP3    H144482   4.281   4.383   1.743  0.6784 -1.6413 -1.9602
 7689TIP3    H244483   4.146   4.451   1.752  1.9180  0.8363 -0.9910
 7690TIP3   OH244484   1.371   0.289   5.871 -0.0520  0.3205  0.3766
 7690TIP3    H144485   1.333   0.276   5.785 -0.4462 -0.0105  0.5977
 7690TIP3    H244486   1.451   0.339   5.855 -0.7216  1.2598 -0.0589
 7691TIP3   OH244487   2.923   4.027  16.121 -0.6697  0.5257  0.3705
 7691TIP3    H144488   2.925   4.004  16.214 -0.2341  0.8655  0.4518
 7691TIP3    H244489   2.996   4.088  16.110 -1.5776  1.5835  0.0882
 7692TIP3   OH244490   5.791   2.693   3.384 -0.1135  0.2101  0.3130
 7692TIP3    H144491   5.814   2.777   3.343 -0.9183  0.3154  0.0465
 7692TIP3    H244492   5.794   2.630   3.312 -1.4463  0.3785  0.0909
 7693TIP3   OH244493   6.122   0.695  15.902  0.6144 -1.0787  0.0590
 7693TIP3    H144494   6.188   0.700  15.970  1.2046 -0.0460 -0.5675
 7693TIP3    H244495   6.168   0.720  15.821 -0.6456  0.2456 -0.2976
 7694TIP3   OH244496   4.186   4.068  15.806  0.3551  0.5824  0.0442
 7694TIP3    H144497   4.273   4.030  15.822  0.0908 -0.4449 -0.7895
 7694TIP3    H244498   4.202   4.135  15.740  0.4828  0.1833 -0.3376
 7695TIP3   OH244499   5.961   4.572   5.203  0.6297  0.3373 -0.3684
 7695TIP3    H144500   5.999   4.657   5.226 -0.0101  1.0298 -1.7219
 7695TIP3    H244501   5.890   4.560   5.266  0.7139  0.8111 -0.1757
 7696TIP3   OH244502   2.983   1.819  16.432  0.3597  0.1618  0.4116
 7696TIP3    H144503   2.949   1.730  16.420 -1.7860  1.0080 -0.2221
 7696TIP3    H244504   3.027   1.816  16.517 -0.5488 -1.2823  0.8793
 7697TIP3   OH244505   0.485   2.886  13.277  0.0970 -0.5957 -0.1075
 7697TIP3    H144506   0.394   2.880  13.306  0.4279  2.2172  1.9280
 7697TIP3    H244507   0.535   2.901  13.357  1.9548  0.9627 -1.4556
 7698TIP3   OH244508   0.442   5.014  10.737  0.4364 -0.1437  0.4406
 7698TIP3    H144509   0.463   5.092  10.788  0.7759  0.3408 -0.4177
 7698TIP3    H244510   0.490   5.025  10.655 -0.5033 -0.6519 -0.2005
 7699TIP3   OH244511   4.581   5.100   5.803 -0.5887 -0.2548  0.6139
 7699TIP3    H144512   4.536   5.038   5.860 -2.5507  0.5513  0.0181
 7699TIP3    H244513   4.512   5.139   5.751  0.6642  1.9174  0.4544
 7700TIP3   OH244514   1.975   5.140   4.411  0.1442 -0.2125 -0.2291
 7700TIP3    H144515   1.969   5.132   4.506  1.0343 -0.9332 -0.2256
 7700TIP3    H244516   1.955   5.232   4.394  1.6461  0.3511  0.8195
 7701TIP3   OH244517   5.655   1.768   0.693  1.4963 -0.1536  0.5947
 7701TIP3    H144518   5.664   1.845   0.637  2.4051 -1.1765 -0.7112
 7701TIP3    H244519   5.718   1.783   0.764  1.2081  0.5892  0.7060
 7702TIP3   OH244520   1.146   2.862   4.375  0.6595  0.2835  0.0105
 7702TIP3    H144521   1.200   2.940   4.360 -2.9265  3.3434  1.4703
 7702TIP3    H244522   1.116   2.837   4.288  1.5253  0.7551 -0.4422
 7703TIP3   OH244523   4.381   3.690  10.497  0.1438 -0.6491  0.0600
 7703TIP3    H144524   4.448   3.689  10.566  1.7784  0.4509 -1.4351
 7703TIP3    H244525   4.331   3.610  10.513  1.5510 -1.3232  1.4935
 7704TIP3   OH244526   1.878   1.004  16.719 -0.6221 -0.2075 -0.2583
 7704TIP3    H144527   1.946   0.985  16.784 -0.9772 -0.1354  0.1352
 7704TIP3    H244528   1.835   1.083  16.751 -0.8244 -0.1921 -0.5609
 7705TIP3   OH244529   5.938   0.416  14.765 -0.2450  0.4703 -0.3434
 7705TIP3    H144530   5.995   0.464  14.704  1.8356 -3.0063 -1.4025
 7705TIP3    H244531   5.859   0.397  14.714  0.6413 -0.6575 -1.3749
 7706TIP3   OH244532   4.390   4.051  11.589 -0.1787  0.4133 -0.0236
 7706TIP3    H144533   4.332   4.125  11.569  0.8003  1.3881  0.6244
 7706TIP3    H244534   4.412   4.063  11.681  0.0936 -0.6307  0.0508
 7707TIP3   OH244535   1.057   5.458  13.794 -0.2420 -0.1222  0.1396
 7707TIP3    H144536   1.134   5.487  13.745 -0.8841 -1.0070 -1.4813
 7707TIP3    H244537   1.088   5.384  13.846  0.0392 -0.3639 -0.3668
 7708TIP3   OH244538   1.139   6.594   2.339 -0.6888 -0.2413  0.0843
 7708TIP3    H144539   1.111   6.642   2.416  0.5071  0.4251  0.1263
 7708TIP3    H244540   1.153   6.505   2.370 -0.8640 -0.1349  0.4749
 7709TIP3   OH244541   5.818   1.105   3.448  0.1184 -0.0852  0.3548
 7709TIP3    H144542   5.843   1.013   3.441 -1.8607 -0.6036 -0.7980
 7709TIP3    H244543   5.747   1.105   3.512  1.2727  0.9452  1.6962
 7710TIP3   OH244544   4.556   4.504   2.452 -0.3669 -0.1114  0.1692
 7710TIP3    H144545   4.543   4.538   2.364 -2.1504 -1.3312 -0.0774
 7710TIP3    H244546   4.641   4.460   2.448 -0.3275  0.0292 -0.8552
 7711TIP3   OH244547   3.063   1.855   4.880  0.3391 -0.3384 -0.2118
 7711TIP3    H144548   3.102   1.785   4.932 -0.3648 -0.8723 -0.3788
 7711TIP3    H244549   2.972   1.859   4.910  0.2247  0.1252 -0.6056
 7712TIP3   OH244550   3.982   3.633   2.596  0.2649 -0.2290  0.5745
 7712TIP3    H144551   3.904   3.579   2.593  1.1007 -1.5731  1.6927
 7712TIP3    H244552   4.036   3.601   2.523  0.5000 -0.5080  0.8659
 7713TIP3   OH244553   5.466   0.913  11.076  0.5868  0.0093 -0.2288
 7713TIP3    H144554   5.536   0.955  11.127  1.3702 -0.3379 -0.9999
 7713TIP3    H244555   5.390   0.969  11.090  0.6810 -0.2615  1.6044
 7714TIP3   OH244556   4.786   1.815   5.602  0.2100 -0.0341 -0.1800
 7714TIP3    H144557   4.750   1.835   5.516 -0.0403  0.4357  0.0332
 7714TIP3    H244558   4.866   1.866   5.608  0.0722  0.1627 -0.0152
 7715TIP3   OH244559   2.717   2.433  10.842 -0.4238  0.5379 -0.7457
 7715TIP3    H144560   2.630   2.457  10.810 -0.5625  1.1807  0.0794
 7715TIP3    H244561   2.745   2.361  10.785 -0.7949  1.4133 -2.0852
 7716TIP3   OH244562   1.196   6.164  12.831 -0.1705 -0.2188  0.1229
 7716TIP3    H144563   1.164   6.107  12.761 -0.8950 -1.4530  1.4067
 7716TIP3    H244564   1.269   6.116  12.870  1.9138  1.5611 -1.3000
 7717TIP3   OH244565   2.281   6.076  11.331  0.4436 -0.0624  0.0220
 7717TIP3    H144566   2.239   6.120  11.257 -2.8078  0.7046  2.1347
 7717TIP3    H244567   2.348   6.137  11.361  0.7553  0.2880 -1.3223
 7718TIP3   OH244568   5.091   1.546  11.605  0.1425  0.0698  0.1332
 7718TIP3    H144569   5.185   1.533  11.598  0.1448  0.2333 -0.1620
 7718TIP3    H244570   5.081   1.634  11.641  0.0969  0.4278 -0.7286
 7719TIP3   OH244571   3.645   2.314  10.339 -0.2052  0.1741  0.1437
 7719TIP3    H144572   3.666   2.221  10.343 -1.3160 -0.1034 -0.2867
 7719TIP3    H244573   3.725   2.355  10.307 -0.6730 -1.0093 -2.8150
 7720TIP3   OH244574   5.810   2.371  16.870  0.4587 -0.0155  0.0763
 7720TIP3    H144575   5.887   2.340  16.822 -0.2296  1.4089 -2.0770
 7720TIP3    H244576   5.844   2.395  16.956  2.1330 -0.7485 -0.3351
 7721TIP3   OH244577   4.501   4.173  14.989 -0.1162  0.2635  0.0380
 7721TIP3    H144578   4.533   4.137  15.072  2.6218  0.8702 -0.6441
 7721TIP3    H244579   4.556   4.250  14.974 -2.1434  1.5516 -1.2169
 7722TIP3   OH244580   0.881   2.846   5.671  0.2324 -0.7238 -0.5437
 7722TIP3    H144581   0.852   2.796   5.594  0.3968 -1.1753 -0.3148
 7722TIP3    H244582   0.869   2.786   5.744 -3.3472  0.8230  0.3596
 7723TIP3   OH244583   2.219   0.097   3.980 -0.2055 -0.1092  0.1149
 7723TIP3    H144584   2.237   0.092   3.886  2.8949  2.1745  0.4402
 7723TIP3    H244585   2.233   0.007   4.012 -0.2448 -0.6954 -1.4250
 7724TIP3   OH244586   0.748   3.407  14.382  0.6448 -0.0176 -0.5659
 7724TIP3    H144587   0.818   3.384  14.443  0.0025 -0.1360  0.1321
 7724TIP3    H244588   0.733   3.327  14.332  0.5103 -0.1990 -0.2294
 7725TIP3   OH244589   1.290   4.903  11.521 -0.8792  0.0801  0.4715
 7725TIP3    H144590   1.346   4.979  11.504 -2.5941  1.4930  0.7670
 7725TIP3    H244591   1.201   4.935  11.504 -1.7408 -1.6182  1.4730
 7726TIP3   OH244592   3.648   6.563   0.064  0.1694 -0.3776  0.5267
 7726TIP3    H144593   3.572   6.599   0.017 -0.0228 -0.1969  0.9696
 7726TIP3    H244594   3.624   6.472   0.081 -0.3605 -0.0587  1.5162
 7727TIP3   OH244595   0.904   5.461   1.097  0.2277 -0.7381 -0.1182
 7727TIP3    H144596   0.895   5.538   1.041 -0.5593 -1.9902 -1.8094
 7727TIP3    H244597   0.966   5.404   1.051 -1.0079 -2.1376 -0.1463
 7728TIP3   OH244598   5.135   3.999   5.328 -0.1798 -0.2160 -0.6562
 7728TIP3    H144599   5.098   3.972   5.244  0.0743 -1.1492 -0.4735
 7728TIP3    H244600   5.216   4.044   5.305 -0.1438 -0.4098 -0.9110
 7729TIP3   OH244601   6.815   2.544   2.195  0.4865  0.2168 -0.1201
 7729TIP3    H144602   6.816   2.448   2.199 -1.5705  0.0909 -1.3724
 7729TIP3    H244603   6.731   2.568   2.235  0.7717  1.4793 -0.2495
 7730TIP3   OH244604   1.650   0.832   1.356 -0.1694  0.4005 -0.1226
 7730TIP3    H144605   1.701   0.834   1.437 -0.7608  0.8722  0.2522
 7730TIP3    H244606   1.571   0.883   1.377 -1.2086 -1.0447 -0.4151
 7731TIP3   OH244607   1.255   1.307  10.959  0.2572  0.0395  0.4526
 7731TIP3    H144608   1.297   1.378  11.008 -0.5069  0.3071  0.7291
 7731TIP3    H244609   1.328   1.254  10.927  0.8023  0.4290  1.0293
 7732TIP3   OH244610   2.393   3.274   3.561 -0.2729  0.0057 -0.1879
 7732TIP3    H144611   2.339   3.321   3.624 -1.6979 -1.4021 -0.2994
 7732TIP3    H244612   2.339   3.269   3.482 -0.2767 -1.9590 -0.1152
 7733TIP3   OH244613   3.204   0.131  14.539  0.0975 -0.1002  0.2402
 7733TIP3    H144614   3.284   0.107  14.492 -0.0089  0.5646 -0.2895
 7733TIP3    H244615   3.205   0.076  14.617  0.5798 -0.7914 -0.2434
 7734TIP3   OH244616   3.415   3.272  16.486  0.2387  0.5585 -0.0607
 7734TIP3    H144617   3.429   3.265  16.581  1.1427 -0.8265 -0.2535
 7734TIP3    H244618   3.326   3.241  16.472  1.2989 -3.0348  0.0470
 7735TIP3   OH244619   2.905   1.312   5.090 -0.1337  0.3571  0.0565
 7735TIP3    H144620   2.893   1.225   5.129 -2.1408  1.1758  1.3681
 7735TIP3    H244621   2.982   1.301   5.033  2.3964 -1.1937  3.4099
 7736TIP3   OH244622   0.295   4.546   2.568  0.0715 -0.4200 -0.6390
 7736TIP3    H144623   0.333   4.484   2.631 -0.6355 -0.9285 -0.7001
 7736TIP3    H244624   0.365   4.563   2.506  0.9147  0.3784  0.4781
 7737TIP3   OH244625   1.283   1.703  11.445  0.0770 -0.6032  0.0700
 7737TIP3    H144626   1.350   1.770  11.465  0.8354 -1.6244  1.1018
 7737TIP3    H244627   1.219   1.712  11.515  1.3490 -2.3990  1.5709
 7738TIP3   OH244628   2.422   3.672   0.513 -0.3926 -0.2537 -1.2017
 7738TIP3    H144629   2.430   3.727   0.592  1.5527 -0.5589 -1.1348
 7738TIP3    H244630   2.330   3.644   0.513 -0.9797  1.4629 -0.2174
 7739TIP3   OH244631   1.980   0.347  10.527  0.6992  0.4319  0.6596
 7739TIP3    H144632   1.997   0.261  10.567  0.0312  1.1479  2.5821
 7739TIP3    H244633   2.059   0.365  10.477  1.1118 -1.0373  0.7247
 7740TIP3   OH244634   1.119   4.294   3.037 -0.2177 -0.2235  0.3644
 7740TIP3    H144635   1.061   4.368   3.055 -1.6388 -1.3238  0.6230
 7740TIP3    H244636   1.180   4.293   3.111  0.5649  1.3296 -0.2251
 7741TIP3   OH244637   5.675   3.213   2.001 -0.0857  0.2948  0.0021
 7741TIP3    H144638   5.672   3.225   1.907 -2.8890 -1.7379 -0.3000
 7741TIP3    H244639   5.768   3.208   2.022  0.5940 -0.7562 -2.8774
 7742TIP3   OH244640   4.425   1.709  13.520  0.3061  0.4258 -0.3082
 7742TIP3    H144641   4.487   1.651  13.475  0.3519 -0.6346  1.0412
 7742TIP3    H244642   4.364   1.736  13.452 -0.1057 -1.7636 -0.9021
 7743TIP3   OH244643   4.009   6.617  11.425 -0.4353  0.1636  0.1975
 7743TIP3    H144644   3.955   6.581  11.355 -1.7378  0.8470  0.8130
 7743TIP3    H244645   4.024   6.544  11.485 -2.1568  0.3470  0.8986
 7744TIP3   OH244646   3.677   4.107  15.108  0.1685  0.3309 -0.4843
 7744TIP3    H144647   3.629   4.180  15.069  0.9525  1.7540  1.0978
 7744TIP3    H244648   3.769   4.127  15.091  0.3907 -0.2618  0.0068
 7745TIP3   OH244649   5.235   4.978  13.117  0.4673 -0.9687  0.1228
 7745TIP3    H144650   5.293   5.042  13.157  0.3646  0.1183 -1.4010
 7745TIP3    H244651   5.230   4.907  13.181 -0.2278  0.9631  2.3108
 7746TIP3   OH244652   1.417   2.660  12.077  0.1990  0.1635  0.0134
 7746TIP3    H144653   1.390   2.741  12.032  0.4204  0.4388  0.3728
 7746TIP3    H244654   1.498   2.683  12.122 -0.2136  0.0005  0.8640
 7747TIP3   OH244655   1.054   2.768   2.399 -0.0778 -0.7272 -0.2039
 7747TIP3    H144656   1.055   2.854   2.356 -1.4790  0.0259  1.1393
 7747TIP3    H244657   0.969   2.765   2.443  0.0551 -2.7167 -0.0039
 7748TIP3   OH244658   2.062   3.252  16.240  0.0936 -0.3298  0.4637
 7748TIP3    H144659   2.138   3.197  16.255 -0.1131 -0.6492  0.3516
 7748TIP3    H244660   2.042   3.240  16.147 -1.3091 -1.8301  0.9174
 7749TIP3   OH244661   5.289   6.310  16.439 -0.0747  0.3644 -0.3221
 7749TIP3    H144662   5.197   6.310  16.466 -0.8180 -0.1214 -2.6369
 7749TIP3    H244663   5.291   6.254  16.362  1.7831  2.0274 -1.5789
 7750TIP3   OH244664   1.080   2.888   3.552  0.2446  0.5880 -0.0379
 7750TIP3    H144665   1.018   2.819   3.574 -1.3422  1.6036 -1.1621
 7750TIP3    H244666   1.067   2.904   3.459  1.4427  1.5658 -0.0666
 7751TIP3   OH244667   2.004   1.267   6.093 -0.6246  0.2077  0.2237
 7751TIP3    H144668   2.041   1.311   6.170 -0.5912  1.3142 -0.3995
 7751TIP3    H244669   1.910   1.280   6.101 -0.6995 -0.4835  0.5439
 7752TIP3   OH244670   5.187   1.363   4.332  0.5260  0.4062 -0.4192
 7752TIP3    H144671   5.237   1.369   4.250 -1.1120 -3.8695 -1.9806
 7752TIP3    H244672   5.242   1.308   4.389 -0.2803 -0.3322 -0.3458
 7753TIP3   OH244673   0.986   5.014  15.750  0.5463 -0.4709 -0.4186
 7753TIP3    H144674   0.893   5.012  15.775  0.9988 -0.1022  1.4963
 7753TIP3    H244675   0.992   5.083  15.684 -0.0446  2.1185  2.0186
 7754TIP3   OH244676   2.436   2.827   0.426  0.3512 -0.1503  0.1235
 7754TIP3    H144677   2.393   2.752   0.386 -0.6456  0.7525 -0.5688
 7754TIP3    H244678   2.388   2.843   0.507  0.5307 -0.2337  0.2463
 7755TIP3   OH244679   3.965   3.942  14.404  0.6699  0.5648  0.5029
 7755TIP3    H144680   4.005   3.984  14.329  0.1669  1.4202  0.7046
 7755TIP3    H244681   3.995   3.851  14.399 -1.6989 -0.2137 -2.4116
 7756TIP3   OH244682   0.668   4.375   4.328 -0.2122 -0.5615 -0.1425
 7756TIP3    H144683   0.739   4.312   4.345  2.3347  1.3384 -2.7381
 7756TIP3    H244684   0.592   4.320   4.310  1.3130 -2.8549 -0.0843
 7757TIP3   OH244685   1.863   3.189  13.224  0.0535 -0.1438 -0.5104
 7757TIP3    H144686   1.784   3.243  13.221  0.3908  0.3751 -0.2752
 7757TIP3    H244687   1.834   3.105  13.260 -0.7327 -0.5762 -2.0528
 7758TIP3   OH244688   2.155   6.662   0.371 -0.4066  0.6562 -0.1741
 7758TIP3    H144689   2.168   6.578   0.328 -3.0123 -0.8115  1.6883
 7758TIP3    H244690   2.241   6.705   0.365  1.2210 -2.3731 -0.6070
 7759TIP3   OH244691   1.878   0.934  14.821 -0.0535  0.1275  0.3051
 7759TIP3    H144692   1.819   0.907  14.891 -1.2265 -1.3482 -1.1617
 7759TIP3    H244693   1.924   0.853  14.796 -0.2453  0.4447 -1.1402
 7760TIP3   OH244694   0.261   6.327   4.715 -0.1308  0.0126 -0.3957
 7760TIP3    H144695   0.268   6.300   4.806  2.7577 -1.2734 -0.8722
 7760TIP3    H244696   0.335   6.387   4.702 -2.0222  2.3180 -1.3104
 7761TIP3   OH244697   2.870   1.894   1.470 -0.0301  0.0341  0.1996
 7761TIP3    H144698   2.840   1.843   1.395  1.6553 -0.1004 -0.4337
 7761TIP3    H244699   2.804   1.963   1.480 -1.6444 -1.4355  0.2432
 7762TIP3   OH244700   2.288   5.525  13.166 -0.0354 -0.2782 -0.1128
 7762TIP3    H144701   2.263   5.549  13.077 -2.8447 -1.4445  0.2692
 7762TIP3    H244702   2.211   5.481  13.202  0.8438  0.4982  3.0588
 7763TIP3   OH244703   2.291   4.117   4.762  0.2116 -0.4376 -0.3776
 7763TIP3    H144704   2.275   4.150   4.851 -0.6203 -0.7164 -0.4173
 7763TIP3    H244705   2.205   4.116   4.721  0.5542 -0.5663 -1.1051
 7764TIP3   OH244706   1.339   6.428  10.603  0.3675 -0.1252 -0.9158
 7764TIP3    H144707   1.303   6.443  10.690  2.6391 -0.3183  0.1219
 7764TIP3    H244708   1.264   6.436  10.544 -1.0619  0.9421  0.9514
 7765TIP3   OH244709   1.431   1.977  11.639  0.0006  0.1822  0.4659
 7765TIP3    H144710   1.408   1.925  11.716  1.1383  0.7312  1.2023
 7765TIP3    H244711   1.526   1.990  11.647  0.1761  0.0622 -1.1515
 7766TIP3   OH244712   0.212   3.289  15.695 -0.3099 -0.2452 -0.3289
 7766TIP3    H144713   0.267   3.289  15.617 -0.9148 -0.2328 -0.7619
 7766TIP3    H244714   0.146   3.357  15.679 -0.5366 -0.3483  0.1190
 7767TIP3   OH244715   5.765   4.486  14.130 -0.5221 -0.1471  0.0701
 7767TIP3    H144716   5.778   4.562  14.073 -1.5444  0.1613  0.2210
 7767TIP3    H244717   5.837   4.489  14.192  0.9106 -0.7616 -1.4750
 7768TIP3   OH244718   1.449   2.998   0.655 -0.0569 -0.1682 -0.4547
 7768TIP3    H144719   1.378   3.023   0.713 -0.8927  0.7342 -1.8131
 7768TIP3    H244720   1.421   2.915   0.616  1.1811 -1.5988  1.4678
 7769TIP3   OH244721   1.087   3.461   6.244 -0.6823  0.1739 -0.1868
 7769TIP3    H144722   1.001   3.437   6.280 -1.1287  1.1044 -0.5733
 7769TIP3    H244723   1.140   3.483   6.320 -0.5270 -1.1537  0.1086
 7770TIP3   OH244724   2.018   1.416  15.530  0.0668  0.2233 -0.3712
 7770TIP3    H144725   2.027   1.321  15.520  1.3734  0.4074 -1.0867
 7770TIP3    H244726   2.049   1.452  15.447 -0.4295  1.2850 -0.1091
 7771TIP3   OH244727   6.230   0.231  15.015  0.5971  0.3365  0.4655
 7771TIP3    H144728   6.140   0.201  15.026  0.8747  0.0619  2.5478
 7771TIP3    H244729   6.284   0.158  15.046  1.5554  0.4163 -0.9488
 7772TIP3   OH244730   2.006   5.397  16.644  0.1742 -0.4757  0.2552
 7772TIP3    H144731   2.024   5.307  16.672 -2.5246 -1.2646 -0.2920
 7772TIP3    H244732   1.958   5.388  16.562 -0.2652  1.4772  0.2451
 7773TIP3   OH244733   0.839   2.809   1.891  0.3812  0.3567 -0.6288
 7773TIP3    H144734   0.757   2.775   1.854  0.3015 -0.5535  0.3360
 7773TIP3    H244735   0.838   2.780   1.983  1.1708  1.4585 -0.2476
 7774TIP3   OH244736   3.056   2.771  16.185 -0.0684 -0.1368  0.4165
 7774TIP3    H144737   3.120   2.842  16.192  1.3785 -1.4846  1.7616
 7774TIP3    H244738   3.011   2.770  16.269 -0.5177 -0.4203  0.1801
 7775TIP3   OH244739   2.868   3.367   3.897  0.2268 -0.0312  0.1556
 7775TIP3    H144740   2.838   3.323   3.977  0.0088 -2.8930 -1.3671
 7775TIP3    H244741   2.963   3.350   3.895  0.0285 -1.0932 -0.8019
 7776TIP3   OH244742   6.083   1.758  13.102 -0.1001 -0.1099  0.0612
 7776TIP3    H144743   6.042   1.764  13.188  0.5561 -1.1348  0.4623
 7776TIP3    H244744   6.012   1.729  13.044 -0.4270  0.1169  0.3416
 7777TIP3   OH244745   4.353   2.058  12.421  0.6246  0.7956 -0.2225
 7777TIP3    H144746   4.380   2.107  12.343  0.5899  0.7443 -0.2664
 7777TIP3    H244747   4.277   2.106  12.453 -0.7693 -0.4522 -1.5149
 7778TIP3   OH244748   0.475   1.953   4.254  0.5871 -0.2845 -0.1544
 7778TIP3    H144749   0.426   1.966   4.336  0.9593 -0.5376  0.1080
 7778TIP3    H244750   0.447   2.025   4.198 -1.0024 -1.0674 -0.4452
 7779TIP3   OH244751   4.341   0.672   0.472 -0.1123 -0.3488  0.2857
 7779TIP3    H144752   4.258   0.679   0.424  0.3987 -0.6265 -0.6553
 7779TIP3    H244753   4.402   0.727   0.423  0.4516 -0.7216  0.5602
 7780TIP3   OH244754   1.139   2.671  10.974  0.5923 -0.1723  0.5282
 7780TIP3    H144755   1.119   2.752  10.928  1.1636 -0.0939  0.4078
 7780TIP3    H244756   1.154   2.607  10.904 -0.9578 -0.6724  0.6240
 7781TIP3   OH244757   0.123   3.696   5.470  0.6677 -0.4381  0.1801
 7781TIP3    H144758   0.160   3.758   5.534  1.2530 -0.2900 -0.2876
 7781TIP3    H244759   0.041   3.666   5.509 -0.6078  2.0523 -0.3973
 7782TIP3   OH244760   6.601   2.045   1.779  0.4291  0.2448  0.8898
 7782TIP3    H144761   6.682   2.075   1.821  0.7658  0.8218 -0.1407
 7782TIP3    H244762   6.580   2.114   1.717  0.4469 -1.0070 -0.5576
 7783TIP3   OH244763   0.766   1.257   5.000 -0.2260  0.0151 -0.1710
 7783TIP3    H144764   0.674   1.279   5.009 -0.9500 -1.7906 -2.1211
 7783TIP3    H244765   0.792   1.223   5.085 -1.3641  0.5723  0.4110
 7784TIP3   OH244766   0.617   6.476   1.134  0.0030  0.2937 -0.4286
 7784TIP3    H144767   0.705   6.439   1.135  0.9657  2.3980 -0.4260
 7784TIP3    H244768   0.616   6.536   1.209 -2.1864 -1.2284  0.8333
 7785TIP3   OH244769   4.036   5.600  15.490 -0.1605  0.3026  0.1035
 7785TIP3    H144770   4.018   5.549  15.569  1.9520 -0.3512  0.2174
 7785TIP3    H244771   4.124   5.634  15.503 -0.6373  2.0529 -1.0226
 7786TIP3   OH244772   1.103   5.114  13.492 -0.3790  0.1901 -0.1170
 7786TIP3    H144773   1.035   5.182  13.494  0.1035  0.6835 -0.2391
 7786TIP3    H244774   1.072   5.050  13.428 -1.3958 -0.3066  0.8265
 7787TIP3   OH244775   1.175   6.262   0.933 -0.3572  0.4471  0.0317
 7787TIP3    H144776   1.114   6.231   1.000 -1.7844  2.0428 -0.4548
 7787TIP3    H244777   1.127   6.255   0.851  1.1575 -0.9230 -0.8108
 7788TIP3   OH244778   3.629   3.146  13.255  0.3761 -0.0836 -0.0217
 7788TIP3    H144779   3.590   3.136  13.342  0.1217  1.1006  0.0226
 7788TIP3    H244780   3.620   3.060  13.214 -3.1471  0.2724 -0.3386
 7789TIP3   OH244781   3.627   4.465   0.376  0.4457  0.0486 -0.1012
 7789TIP3    H144782   3.576   4.503   0.304 -0.1635 -1.4299 -0.5007
 7789TIP3    H244783   3.565   4.409   0.422  1.1419  0.0331  0.8510
 7790TIP3   OH244784   6.755   5.768   1.015 -0.1130 -0.2997 -0.6250
 7790TIP3    H144785   6.803   5.687   0.995 -1.9620 -1.4846 -0.4596
 7790TIP3    H244786   6.754   5.772   1.110  0.5662  0.3087 -0.6353
 7791TIP3   OH244787   1.320   6.050   6.009  0.4525  0.2831 -0.6166
 7791TIP3    H144788   1.407   6.012   6.014 -0.2221 -1.2718 -0.2240
 7791TIP3    H244789   1.270   5.988   5.956 -0.5524  0.8949 -0.4019
 7792TIP3   OH244790   5.939   5.462  14.054 -0.2713 -0.4905 -0.1270
 7792TIP3    H144791   5.936   5.557  14.045  1.5578 -0.5447 -2.1911
 7792TIP3    H244792   5.872   5.442  14.120 -1.1615  2.1394 -0.1092
 7793TIP3   OH244793   0.481   5.767  13.641 -0.3442 -0.1627  0.4684
 7793TIP3    H144794   0.521   5.778  13.555 -0.3980  4.0369  0.8032
 7793TIP3    H244795   0.555   5.750  13.700  0.1734  0.8889  0.1361
 7794TIP3   OH244796   6.793   2.444  11.588 -0.0574  0.1962 -0.8785
 7794TIP3    H144797   6.885   2.454  11.563 -0.2730  0.1943 -1.6983
 7794TIP3    H244798   6.757   2.381  11.525 -0.4264 -0.4162 -0.0661
 7795TIP3   OH244799   3.069   1.661   2.656  0.1463  0.0800 -0.2068
 7795TIP3    H144800   2.989   1.691   2.613 -0.5111  1.0231  1.5752
 7795TIP3    H244801   3.055   1.568   2.673 -0.8659  0.3754  0.6652
 7796TIP3   OH244802   5.128   2.250  14.985 -0.0087  0.1295  0.1479
 7796TIP3    H144803   5.192   2.180  14.990 -0.7668 -0.5887  0.0169
 7796TIP3    H244804   5.116   2.278  15.076  1.9485  1.6543 -0.0015
 7797TIP3   OH244805   2.132   0.336   4.086 -0.4008  0.1450  0.4264
 7797TIP3    H144806   2.156   0.251   4.049 -1.0923  1.1479 -2.5899
 7797TIP3    H244807   2.057   0.317   4.143  0.1962 -1.3956  0.7543
 7798TIP3   OH244808   6.357   5.776   1.773 -0.5980  0.0336 -0.2951
 7798TIP3    H144809   6.444   5.747   1.744 -1.4242 -2.4513 -0.5097
 7798TIP3    H244810   6.348   5.864   1.737  2.0630  0.6073  0.2699
 7799TIP3   OH244811   5.582   0.399  11.969  0.5278  0.1204  1.2342
 7799TIP3    H144812   5.582   0.312  11.929 -1.8678  0.2940  0.7142
 7799TIP3    H244813   5.612   0.384  12.059  0.6109 -1.1649  1.0116
 7800TIP3   OH244814   4.660   2.261   2.170  0.5453  0.0375 -0.6318
 7800TIP3    H144815   4.636   2.247   2.262  3.4844  0.7475  0.3664
 7800TIP3    H244816   4.643   2.354   2.155 -1.6999 -0.4537 -1.4718
 7801TIP3   OH244817   3.742   2.681  10.397 -0.3052 -0.1920 -0.3603
 7801TIP3    H144818   3.761   2.755  10.340 -2.4934  0.2455 -0.6347
 7801TIP3    H244819   3.826   2.658  10.437  0.4924  2.1478 -0.5805
 7802TIP3   OH244820   3.888   1.062   1.259  0.2859  0.1579  0.2408
 7802TIP3    H144821   3.974   1.021   1.270  1.2814  1.4385 -2.0776
 7802TIP3    H244822   3.868   1.052   1.166 -2.3540 -0.5115  0.7903
 7803TIP3   OH244823   1.875   4.942  16.610 -0.1036 -0.4052 -0.3391
 7803TIP3    H144824   1.908   4.872  16.666 -0.2732  0.3219  0.6958
 7803TIP3    H244825   1.835   4.897  16.536  0.6505 -1.3718 -0.1744
 7804TIP3   OH244826   2.279   4.716   3.068  0.0149 -0.7033 -0.6407
 7804TIP3    H144827   2.237   4.710   2.982  1.8597 -1.0174 -1.5659
 7804TIP3    H244828   2.212   4.685   3.129 -0.5084 -2.9971 -2.2334
 7805TIP3   OH244829   5.610   2.756  11.770 -0.2488 -0.7787  0.1756
 7805TIP3    H144830   5.543   2.734  11.705  0.0599  0.0187 -0.4413
 7805TIP3    H244831   5.693   2.742  11.724 -0.0328  1.2194 -0.1424
 7806TIP3   OH244832   1.622   4.456   1.635 -0.0005 -0.0019 -0.2833
 7806TIP3    H144833   1.660   4.369   1.648 -1.7865 -0.5756  1.5352
 7806TIP3    H244834   1.593   4.483   1.722  1.2668  2.8385 -0.6160
 7807TIP3   OH244835   0.161   6.028   0.160  0.1508 -0.0764  0.1286
 7807TIP3    H144836   0.195   5.992   0.242 -0.4813  3.3233  2.0809
 7807TIP3    H244837   0.068   6.009   0.162  0.3892 -1.5091 -0.7550
 7808TIP3   OH244838   3.933   1.924  16.339  0.2639 -0.0575  0.1304
 7808TIP3    H144839   3.854   1.977  16.347  0.6708  1.1453 -2.5373
 7808TIP3    H244840   3.902   1.839  16.310 -0.1367 -0.0166  0.4303
 7809TIP3   OH244841   2.147   3.688   5.068 -0.2477 -0.3057 -0.5156
 7809TIP3    H144842   2.210   3.757   5.091 -0.4341  0.0903 -1.1593
 7809TIP3    H244843   2.177   3.611   5.116  0.1338  0.1476 -0.0095
 7810TIP3   OH244844   0.087   6.589  15.597  0.3766  0.2671 -0.4184
 7810TIP3    H144845   0.116   6.502  15.568 -1.8379 -0.2880 -1.1739
 7810TIP3    H244846   0.110   6.647  15.525  1.9743  0.3730  0.1381
 7811TIP3   OH244847   6.151   5.660   5.226  0.8112  0.3541  0.0805
 7811TIP3    H144848   6.071   5.689   5.182  1.2168  0.9715 -0.2588
 7811TIP3    H244849   6.134   5.675   5.319 -0.3126 -1.5879  0.2363
 7812TIP3   OH244850   5.066   4.532  14.021 -0.3922  0.0904  0.0439
 7812TIP3    H144851   5.061   4.442  14.051  0.5509 -0.5211 -1.5129
 7812TIP3    H244852   5.006   4.536  13.946 -1.9087  1.3036  1.2229
 7813TIP3   OH244853   1.675   3.528   2.222  0.1951  0.0626 -0.0381
 7813TIP3    H144854   1.673   3.611   2.269  1.6469  1.1259 -1.7265
 7813TIP3    H244855   1.762   3.493   2.239  0.2061 -0.2536 -0.7324
 7814TIP3   OH244856   1.673   5.127   3.251 -0.7073 -0.2577 -0.5588
 7814TIP3    H144857   1.731   5.073   3.199 -0.6413 -0.2842 -0.4591
 7814TIP3    H244858   1.697   5.108   3.342  0.1010  0.7863 -0.5295
 7815TIP3   OH244859   6.249   4.805  16.194 -0.2752 -0.2272 -0.2796
 7815TIP3    H144860   6.171   4.850  16.225 -0.5298 -0.5575 -0.4363
 7815TIP3    H244861   6.247   4.815  16.099 -0.1875 -0.3352 -0.2931
 7816TIP3   OH244862   5.407   3.113   0.744  0.1074  0.3823  0.6006
 7816TIP3    H144863   5.382   3.181   0.806 -0.3249  0.5360  0.2674
 7816TIP3    H244864   5.353   3.130   0.667 -0.3362 -0.6063  0.6798
 7817TIP3   OH244865   1.357   0.067   1.651  0.6742 -0.3326  0.1704
 7817TIP3    H144866   1.452   0.071   1.641  0.5251 -0.6246 -1.6942
 7817TIP3    H244867   1.342  -0.003   1.714  1.7060  0.0845  0.9016
 7818TIP3   OH244868   0.118   5.313   5.636 -0.3561 -0.8736 -0.0027
 7818TIP3    H144869   0.204   5.354   5.643 -1.3524  1.4948 -0.5912
 7818TIP3    H244870   0.069   5.346   5.712 -1.6842  0.4253 -1.3455
 7819TIP3   OH244871   3.853   3.665  15.265  0.2436  0.3008 -0.4909
 7819TIP3    H144872   3.769   3.619  15.264  0.0301  0.5682  1.2616
 7819TIP3    H244873   3.877   3.673  15.173 -1.8793  0.6261 -1.0865
 7820TIP3   OH244874   6.778   5.999  14.926 -0.3203  0.1150  0.1748
 7820TIP3    H144875   6.790   5.905  14.942  1.8876  0.5404  1.4134
 7820TIP3    H244876   6.746   6.034  15.009 -0.2170  0.6088  0.0111
 7821TIP3   OH244877   5.182   3.055  13.531  0.0079 -0.3645 -0.0044
 7821TIP3    H144878   5.167   3.094  13.445 -0.0676 -2.2813 -0.9186
 7821TIP3    H244879   5.146   2.966  13.524  1.0991 -0.9867  1.6143
 7822TIP3   OH244880   6.231   3.492   4.420  0.7396 -0.4996  0.6134
 7822TIP3    H144881   6.164   3.560   4.431  0.7473  0.0824 -2.1900
 7822TIP3    H244882   6.183   3.416   4.388  1.1160 -0.9022  0.9970
 7823TIP3   OH244883   0.978   4.470   1.558  0.3863  0.2323 -0.2202
 7823TIP3    H144884   0.965   4.405   1.628  0.8382 -0.8648 -1.1337
 7823TIP3    H244885   1.062   4.448   1.519  1.9308  3.0653  1.1884
 7824TIP3   OH244886   4.499   3.230  16.439  0.2500  0.1461  0.1456
 7824TIP3    H144887   4.462   3.228  16.350  0.5626  0.7273 -0.0025
 7824TIP3    H244888   4.582   3.277  16.429  1.8996 -2.5936  0.1699
 7825TIP3   OH244889   3.908   0.467   1.748  0.1529 -0.1903  0.0600
 7825TIP3    H144890   3.944   0.436   1.831 -0.8442 -1.3811  0.0772
 7825TIP3    H244891   3.814   0.454   1.757  0.1158 -1.2619 -1.6324
 7826TIP3   OH244892   6.799   6.050  12.009  0.2076 -0.3168 -1.0019
 7826TIP3    H144893   6.775   5.989  12.080 -0.9811  0.6782 -0.5174
 7826TIP3    H244894   6.858   5.999  11.953  2.2265 -0.7739  1.3488
 7827TIP3   OH244895   0.625   1.340   0.094  0.3202 -0.2111  0.2607
 7827TIP3    H144896   0.532   1.351   0.112  0.2269 -0.6956  0.1017
 7827TIP3    H244897   0.650   1.418   0.045 -0.4102 -0.8529 -1.2200
 7828TIP3   OH244898   2.393   6.032  12.409  0.5880 -0.0482  0.0585
 7828TIP3    H144899   2.407   5.987  12.493  0.9379  0.3308  0.2023
 7828TIP3    H244900   2.392   5.962  12.344  1.4367 -0.2362  0.2457
 7829TIP3   OH244901   1.105   1.110  12.991 -0.0442  0.2253  0.7296
 7829TIP3    H144902   1.051   1.153  12.926  0.2544 -0.9311 -0.3167
 7829TIP3    H244903   1.185   1.162  12.995 -0.0256  0.2498  0.0961
 7830TIP3   OH244904   4.250   2.521   5.751 -0.3748 -0.4080 -0.0779
 7830TIP3    H144905   4.225   2.442   5.799 -1.2523 -0.2826 -0.3072
 7830TIP3    H244906   4.193   2.589   5.787  0.9252  0.3031  0.6787
 7831TIP3   OH244907   1.742   0.486  16.072 -0.5090 -0.0754  0.0097
 7831TIP3    H144908   1.827   0.485  16.115 -1.2089  1.4819  1.5747
 7831TIP3    H244909   1.742   0.409  16.015  2.3784  0.5469 -0.9591
 7832TIP3   OH244910   0.748   1.327   1.730 -0.5010 -0.2854  0.1818
 7832TIP3    H144911   0.664   1.282   1.738 -0.0008 -1.8080 -2.2387
 7832TIP3    H244912   0.777   1.309   1.641  2.2636  0.4524  0.8364
 7833TIP3   OH244913   3.888   0.715  14.246 -0.1297 -0.1675  0.1771
 7833TIP3    H144914   3.892   0.766  14.328 -2.7375  0.3031  0.1221
 7833TIP3    H244915   3.934   0.769  14.182  0.1238  0.4839  0.8846
 7834TIP3   OH244916   4.177   1.603   0.906 -0.4611 -0.5394  0.1410
 7834TIP3    H144917   4.183   1.513   0.875 -1.4433 -1.0745  1.4487
 7834TIP3    H244918   4.216   1.655   0.835 -3.2041 -1.6275 -2.3909
 7835TIP3   OH244919   6.212   3.337  10.668 -0.0970 -0.0052 -0.7071
 7835TIP3    H144920   6.223   3.244  10.650  0.1096 -0.3570  1.0634
 7835TIP3    H244921   6.215   3.379  10.582  2.8347 -1.3241 -1.3634
 7836TIP3   OH244922   0.977   1.579  12.514  0.2384 -0.3752 -0.1201
 7836TIP3    H144923   0.972   1.675  12.507  0.7037 -0.4230 -1.2267
 7836TIP3    H244924   1.016   1.551  12.432  0.9065 -1.4646  0.5482
 7837TIP3   OH244925   2.986   1.701  14.388 -0.0507  0.6393 -0.8216
 7837TIP3    H144926   3.030   1.768  14.335  0.3168  1.1371  0.0941
 7837TIP3    H244927   2.957   1.748  14.466  0.1732 -0.2660 -0.1837
 7838TIP3   OH244928   0.371   3.918   2.926 -0.0727  0.0652  0.5492
 7838TIP3    H144929   0.348   3.923   2.833 -1.1942 -0.0234  0.8136
 7838TIP3    H244930   0.311   3.979   2.969 -0.0252 -0.4120  1.3072
 7839TIP3   OH244931   2.743   2.202  16.840 -0.0835  0.5885  0.5607
 7839TIP3    H144932   2.832   2.212  16.872  1.0487  0.6809 -2.3249
 7839TIP3    H244933   2.724   2.109  16.849  0.6168  0.4308  0.4442
 7840TIP3   OH244934   6.673   0.419  11.975  0.3614 -0.1029 -0.0320
 7840TIP3    H144935   6.724   0.440  11.897  0.9685  1.1223  0.6673
 7840TIP3    H244936   6.582   0.414  11.943  0.5700  0.6239 -0.7807
 7841TIP3   OH244937   5.286   3.551  13.632 -0.3062 -0.1368 -0.0388
 7841TIP3    H144938   5.225   3.497  13.582 -1.0800 -0.6499  1.4009
 7841TIP3    H244939   5.296   3.505  13.716 -0.8833  1.8430  1.2020
 7842TIP3   OH244940   3.237   4.322   3.675  0.0349 -0.7227 -0.4659
 7842TIP3    H144941   3.296   4.263   3.630 -0.2384 -0.7590 -0.7795
 7842TIP3    H244942   3.168   4.341   3.612  1.5576  2.1921 -1.4620
 7843TIP3   OH244943   0.181   4.187   2.787  0.4574  0.1432  0.2003
 7843TIP3    H144944   0.246   4.192   2.718  0.3895 -1.8231 -0.0511
 7843TIP3    H244945   0.232   4.182   2.868  0.6739 -1.8874 -0.0287
 7844TIP3   OH244946   6.596   2.777   1.960 -0.4158 -0.0334  0.5590
 7844TIP3    H144947   6.598   2.761   1.866  0.6909 -0.6692  0.6699
 7844TIP3    H244948   6.642   2.702   1.998 -0.3642  0.4924  1.5714
 7845TIP3   OH244949   5.738   4.391  12.764  0.1776 -0.9099  0.0380
 7845TIP3    H144950   5.643   4.400  12.774  0.3173  3.1153 -0.4389
 7845TIP3    H244951   5.750   4.326  12.695 -2.1818 -1.5908  0.1910
 7846TIP3   OH244952   5.404   3.708  16.934  0.0122  0.3484 -0.0900
 7846TIP3    H144953   5.377   3.779  16.875  1.5361  0.5584 -0.5801
 7846TIP3    H244954   5.417   3.633  16.876 -1.8001 -0.4545  0.4497
 7847TIP3   OH244955   4.974   0.079  14.880  0.0814 -0.1811 -0.4900
 7847TIP3    H144956   4.911   0.008  14.869 -0.4157  0.0000  1.0280
 7847TIP3    H244957   5.055   0.045  14.841 -0.2996 -1.3508 -0.3134
 7848TIP3   OH244958   6.752   2.757   4.291 -0.4192 -0.1514 -0.0032
 7848TIP3    H144959   6.738   2.846   4.259 -1.2388 -0.3997 -0.3531
 7848TIP3    H244960   6.697   2.751   4.369 -0.6085 -0.4530 -0.1613
 7849TIP3   OH244961   6.150   1.444  11.653 -0.0268 -0.8469  0.3990
 7849TIP3    H144962   6.137   1.532  11.617  0.4174 -1.2126 -0.7162
 7849TIP3    H244963   6.063   1.404  11.650 -0.2282 -0.4422  0.9083
 7850TIP3   OH244964   0.455   3.841  10.643 -0.0377 -0.6432 -0.1120
 7850TIP3    H144965   0.543   3.803  10.635 -0.2177 -1.1395  0.2234
 7850TIP3    H244966   0.414   3.793  10.714  0.4687  1.6423  1.8560
 7851TIP3   OH244967   3.442   0.734   5.593  0.3966 -0.4088 -0.2428
 7851TIP3    H144968   3.430   0.740   5.498 -1.0196 -3.7852 -0.4345
 7851TIP3    H244969   3.386   0.803   5.628  0.7753  0.7686 -1.8344
 7852TIP3   OH244970   0.933   3.863  12.167  0.1493 -0.1087 -0.1627
 7852TIP3    H144971   0.973   3.948  12.147  0.7496 -1.3165 -5.7826
 7852TIP3    H244972   0.845   3.868  12.129  0.6298 -2.1904 -1.7866
 7853TIP3   OH244973   2.635   5.695  14.064 -0.7385 -0.4261  0.0001
 7853TIP3    H144974   2.655   5.736  13.980 -2.0109  0.0387 -0.0840
 7853TIP3    H244975   2.714   5.644  14.084 -0.5083 -0.7790 -1.6061
 7854TIP3   OH244976   5.411   5.133  11.080 -0.0075  0.4542  0.6675
 7854TIP3    H144977   5.459   5.051  11.072 -0.9795 -0.1051  0.4232
 7854TIP3    H244978   5.478   5.198  11.104  0.6177 -0.5708  1.7847
 7855TIP3   OH244979   5.921   2.530   5.445  0.3353 -0.2250 -0.5257
 7855TIP3    H144980   5.973   2.609   5.460  0.9696 -0.8178  0.4773
 7855TIP3    H244981   5.831   2.561   5.444  0.5608  0.4888  0.1208
 7856TIP3   OH244982   6.384   1.730   6.189  0.4777 -0.2158  0.8405
 7856TIP3    H144983   6.445   1.657   6.201 -1.1785 -1.6931  0.6831
 7856TIP3    H244984   6.440   1.807   6.178  2.3044 -1.5736  0.2243
 7857TIP3   OH244985   1.714   3.698  11.490 -0.0638 -0.3628  0.4036
 7857TIP3    H144986   1.782   3.630  11.493  0.9978  0.5758 -0.9615
 7857TIP3    H244987   1.757   3.776  11.524 -0.9317 -0.0835  0.8907
 7858TIP3   OH244988   6.782   6.381  16.046 -0.3956  0.1843  0.2375
 7858TIP3    H144989   6.769   6.382  15.951  0.1200 -0.3611  0.1557
 7858TIP3    H244990   6.790   6.474  16.070 -0.6429  0.3293 -0.2344
 7859TIP3   OH244991   4.096   2.508  15.732 -0.7003  1.0725  0.0449
 7859TIP3    H144992   4.042   2.482  15.807 -0.7511 -1.3482 -0.7372
 7859TIP3    H244993   4.152   2.431  15.716  1.2242  2.5551 -0.7347
 7860TIP3   OH244994   3.728   0.292  16.465 -0.0598 -0.9652 -0.6141
 7860TIP3    H144995   3.741   0.370  16.411 -0.3228 -0.1592  0.4460
 7860TIP3    H244996   3.632   0.282  16.469 -0.0328 -1.2065 -0.5516
 7861TIP3   OH244997   3.433   2.452  12.178  0.3123  0.9140  0.1958
 7861TIP3    H144998   3.343   2.479  12.196 -0.3604 -0.5461 -0.7597
 7861TIP3    H244999   3.448   2.478  12.087  1.2380  2.0685  0.6595
 7862TIP3   OH245000   5.364   6.137   2.493 -0.8751 -0.5762  0.2179
 7862TIP3    H145001   5.294   6.171   2.548 -0.8531 -0.7370  0.3448
 7862TIP3    H245002   5.437   6.123   2.553 -0.4413  0.4345 -0.0620
 7863TIP3   OH245003   5.428   2.688  11.594  0.5093  0.2537  0.0613
 7863TIP3    H145004   5.458   2.676  11.504  2.4376 -0.7503  0.7622
 7863TIP3    H245005   5.387   2.604  11.616  3.5037 -1.0495  1.2537
 7864TIP3   OH245006   0.064   4.769   2.197 -0.2626 -0.0412 -0.0061
 7864TIP3    H145007   0.085   4.844   2.141  0.9450 -1.2509 -1.2353
 7864TIP3    H245008   0.105   4.789   2.281 -0.4888  0.9525 -0.1256
 7865TIP3   OH245009   4.600   3.928  12.351  0.1019  0.2530  0.0859
 7865TIP3    H145010   4.627   4.018  12.334  1.1065 -0.1927 -0.7800
 7865TIP3    H245011   4.645   3.876  12.285 -1.8231 -0.7082 -0.5554
 7866TIP3   OH245012   4.712   4.425  10.289  0.4224  0.2378  0.0806
 7866TIP3    H145013   4.760   4.482  10.350  2.3583 -0.2482 -0.8877
 7866TIP3    H245014   4.758   4.437  10.206 -2.0088  0.7126 -1.2667
 7867TIP3   OH245015   2.212   5.747  15.530  0.3642  0.3223  0.0847
 7867TIP3    H145016   2.306   5.763  15.537  0.2408  0.5309  1.7958
 7867TIP3    H245017   2.200   5.659  15.567 -0.0440  0.0602 -0.6662
 7868TIP3   OH245018   4.902   3.715   1.768  0.0383 -0.3757  0.1525
 7868TIP3    H145019   4.815   3.750   1.790  0.1909  1.2666 -1.5739
 7868TIP3    H245020   4.890   3.620   1.767 -1.8184 -0.1748 -0.2775
 7869TIP3   OH245021   1.600   2.628  13.330  0.4164  0.1943  0.4291
 7869TIP3    H145022   1.543   2.625  13.253  0.1519  0.3671  0.6156
 7869TIP3    H245023   1.582   2.714  13.369 -0.5159 -0.4532  1.4824
 7870TIP3   OH245024   2.604   3.695   0.056  0.2907 -0.2456  0.3621
 7870TIP3    H145025   2.543   3.757   0.096  0.5136 -0.7457  1.5292
 7870TIP3    H245026   2.652   3.746  -0.008 -1.6376  0.0587 -0.9040
 7871TIP3   OH245027   1.064   4.591  14.597 -0.1705 -0.1812 -0.1673
 7871TIP3    H145028   1.072   4.556  14.685  0.9187 -0.0808 -0.2116
 7871TIP3    H245029   1.147   4.636  14.581 -0.3963 -0.0941 -1.1966
 7872TIP3   OH245030   0.647   5.563   4.825 -0.0148 -0.4208  0.1505
 7872TIP3    H145031   0.730   5.560   4.777 -0.2117 -3.4240 -0.2202
 7872TIP3    H245032   0.585   5.604   4.764  0.4118 -1.5346 -1.0903
 7873TIP3   OH245033   2.740   0.188  12.085 -0.4119  1.0563 -0.4818
 7873TIP3    H145034   2.796   0.110  12.092 -1.0377  0.7245  1.6837
 7873TIP3    H245035   2.784   0.254  12.137 -0.9383  1.4926 -0.5819
 7874TIP3   OH245036   0.954   6.245  14.905 -0.0407  0.4672 -0.0387
 7874TIP3    H145037   0.937   6.255  14.811 -2.2177  0.6959  0.3089
 7874TIP3    H245038   1.024   6.180  14.910 -0.7484 -0.5118 -1.8054
 7875TIP3   OH245039   1.054   4.679  16.006  0.3961  0.1843 -0.6409
 7875TIP3    H145040   1.092   4.761  16.039  0.9543 -0.2864 -0.0888
 7875TIP3    H245041   0.959   4.695  16.005  0.3880  0.3625  0.8342
 7876TIP3   OH245042   3.727   3.986  14.833 -0.8304 -0.4548  0.8947
 7876TIP3    H145043   3.739   4.078  14.809  1.2406 -0.6947  0.8421
 7876TIP3    H245044   3.671   3.989  14.911  0.1530  0.9296  1.5851
 7877TIP3   OH245045   4.087   4.970  16.142 -0.3166  0.2508 -0.0154
 7877TIP3    H145046   4.148   4.898  16.126  0.0032  0.0762  1.7594
 7877TIP3    H245047   4.020   4.933  16.199 -2.7547  0.1612 -2.7045
 7878TIP3   OH245048   2.516   6.570   3.355  0.2247  0.4394 -0.0219
 7878TIP3    H145049   2.568   6.578   3.276  0.9997  2.9733  0.6550
 7878TIP3    H245050   2.578   6.540   3.422 -0.1037 -0.2814 -0.0234
 7879TIP3   OH245051   2.124   3.590  15.925 -0.1779  0.3466  0.7206
 7879TIP3    H145052   2.218   3.594  15.907 -0.2435 -0.0314  0.2748
 7879TIP3    H245053   2.096   3.682  15.923  0.1618  0.4554  0.7716
 7880TIP3   OH245054   4.314   0.979  13.837  0.3058  0.0291 -0.7026
 7880TIP3    H145055   4.296   1.072  13.823  0.8747  0.0519 -1.3543
 7880TIP3    H245056   4.231   0.935  13.817 -0.7259  0.5504  1.9691
 7881TIP3   OH245057   0.679   2.512  12.778 -0.1773 -0.1389  0.2964
 7881TIP3    H145058   0.716   2.576  12.839 -2.1433  0.8525  0.5259
 7881TIP3    H245059   0.675   2.431  12.829 -0.4971  0.3271  1.0279
 7882TIP3   OH245060   3.302   1.175  10.207 -0.1726 -0.1170 -0.1958
 7882TIP3    H145061   3.225   1.130  10.241 -0.2448 -1.2722 -1.7941
 7882TIP3    H245062   3.278   1.200  10.118 -0.3840  3.7687  0.7696
 7883TIP3   OH245063   1.752   0.954  13.154  0.2073 -0.0484 -0.2635
 7883TIP3    H145064   1.825   1.007  13.185 -0.3047 -0.4782  1.8292
 7883TIP3    H245065   1.675   1.009  13.169 -0.2708 -1.1220  1.4308
 7884TIP3   OH245066   1.606   6.311   0.350 -0.7581 -0.4309  0.1580
 7884TIP3    H145067   1.618   6.242   0.415 -3.6956 -1.6442 -0.4372
 7884TIP3    H245068   1.511   6.319   0.340 -0.4645  0.3588 -3.3103
 7885TIP3   OH245069   1.246   1.784  14.328  0.0728  0.7850 -0.4266
 7885TIP3    H145070   1.215   1.766  14.239 -0.1638  1.2723 -0.4479
 7885TIP3    H245071   1.340   1.766  14.325  0.0291  0.6034 -0.7207
 7886TIP3   OH245072   4.511   4.392  15.888 -0.1846 -0.3092 -0.7794
 7886TIP3    H145073   4.486   4.458  15.952 -1.0697 -1.9535  0.6467
 7886TIP3    H245074   4.470   4.421  15.806 -1.2154  0.4839 -0.0064
 7887TIP3   OH245075   3.094   4.884  14.511 -0.0476  0.1302  0.6599
 7887TIP3    H145076   3.158   4.910  14.445  0.5394 -0.1323  1.1122
 7887TIP3    H245077   3.061   4.966  14.548 -1.2919  0.3308 -0.7830
 7888TIP3   OH245078   1.703   1.978  11.687 -0.1433  0.7023 -0.3878
 7888TIP3    H145079   1.702   1.996  11.781 -1.0125 -0.9995 -0.0251
 7888TIP3    H245080   1.780   2.024  11.655  0.9947  0.1854  1.4229
 7889TIP3   OH245081   0.373   6.342   5.442 -0.3755  0.3705  0.4608
 7889TIP3    H145082   0.395   6.254   5.414  0.6461  0.2762  1.4691
 7889TIP3    H245083   0.277   6.343   5.445 -0.4175 -0.4930 -0.1643
 7890TIP3   OH245084   1.960   4.295  15.098 -0.1616  0.3575  0.0250
 7890TIP3    H145085   2.013   4.241  15.157  0.2344 -0.4606 -1.0393
 7890TIP3    H245086   1.877   4.248  15.090 -0.5001  0.8642  0.5217
 7891TIP3   OH245087   4.084   0.429   5.192 -0.0712  0.1897 -0.0868
 7891TIP3    H145088   4.163   0.483   5.183 -0.9060  1.6437  0.9250
 7891TIP3    H245089   4.116   0.339   5.186  1.5953  0.7528 -0.2072
 7892TIP3   OH245090   2.864   4.284   2.132  0.5594 -0.4503 -0.0075
 7892TIP3    H145091   2.927   4.245   2.072 -1.2804 -1.3254 -1.4605
 7892TIP3    H245092   2.869   4.228   2.210  2.7602  0.5281  0.6401
 7893TIP3   OH245093   6.555   5.563   0.386  0.3850  0.9667 -0.6110
 7893TIP3    H145094   6.464   5.544   0.406  0.2238  0.7409 -1.5445
 7893TIP3    H245095   6.592   5.480   0.355  1.1766  0.8086  0.6689
 7894TIP3   OH245096   3.654   3.581  10.455 -0.3479 -0.0490  0.2513
 7894TIP3    H145097   3.692   3.559  10.540 -0.8949 -1.2514  0.2032
 7894TIP3    H245098   3.644   3.676  10.457  1.9100  0.2536  0.5787
 7895TIP3   OH245099   2.000   5.776  16.907  0.6192 -0.5796  0.0339
 7895TIP3    H145100   1.991   5.865  16.872 -2.2650 -0.8790 -0.2145
 7895TIP3    H245101   2.007   5.721  16.829  1.0859 -0.7038  0.1579
 7896TIP3   OH245102   6.769   4.838   4.175 -0.0441 -0.3058  0.4935
 7896TIP3    H145103   6.847   4.791   4.146  0.7615  1.1372  0.2336
 7896TIP3    H245104   6.790   4.868   4.263 -1.0510 -1.4895  1.1633
 7897TIP3   OH245105   3.932   2.736  14.680 -0.1121  0.2540 -0.0379
 7897TIP3    H145106   3.950   2.666  14.617  1.2813 -1.0360  1.6938
 7897TIP3    H245107   3.921   2.691  14.763  1.5816  2.1195  1.2948
 7898TIP3   OH245108   2.660   2.356   3.714  0.4174 -0.1553 -0.2638
 7898TIP3    H145109   2.621   2.292   3.654 -0.5855  0.9738 -0.8484
 7898TIP3    H245110   2.698   2.302   3.784 -2.1472 -1.3749  0.3254
 7899TIP3   OH245111   6.539   1.765  15.301 -0.0457  0.0196 -0.0805
 7899TIP3    H145112   6.615   1.819  15.322 -1.3987  1.6513  0.9503
 7899TIP3    H245113   6.464   1.822  15.318 -1.5928 -2.2583  1.3528
 7900TIP3   OH245114   5.830   4.773  14.366 -0.1571 -0.0484  0.5040
 7900TIP3    H145115   5.924   4.761  14.382 -0.0428  0.1804  0.0428
 7900TIP3    H245116   5.787   4.706  14.418  0.2201  0.3576  1.3626
 7901TIP3   OH245117   1.219   3.968   1.848 -0.1867 -0.0836  0.5943
 7901TIP3    H145118   1.194   3.966   1.756 -0.4863  0.4290  0.6584
 7901TIP3    H245119   1.277   4.044   1.856 -1.6111  0.9913  1.1673
 7902TIP3   OH245120   6.575   1.937   2.230  0.2988  0.0647 -0.7231
 7902TIP3    H145121   6.646   1.948   2.293  0.3184 -0.0387 -0.7272
 7902TIP3    H245122   6.528   2.020   2.231  0.0489 -0.0771 -0.2680
 7903TIP3   OH245123   2.439   1.922  13.201 -0.3305  0.0842  0.8074
 7903TIP3    H145124   2.396   1.993  13.154 -1.2335 -1.6331 -1.0999
 7903TIP3    H245125   2.378   1.899  13.270 -0.9541 -0.1356  0.1907
 7904TIP3   OH245126   3.682   5.002  16.053 -0.3035  0.4620  0.7245
 7904TIP3    H145127   3.595   4.974  16.082 -0.1644  0.2541  0.9474
 7904TIP3    H245128   3.726   5.032  16.133  0.8475 -2.1107  1.1825
 7905TIP3   OH245129   2.802   3.330  11.011 -0.1115 -0.4476  0.2769
 7905TIP3    H145130   2.783   3.360  10.922  0.6802  0.2859  0.3375
 7905TIP3    H245131   2.717   3.316  11.051 -0.4978  0.5494 -0.1667
 7906TIP3   OH245132   0.541   1.626   1.282 -0.3695  0.2960  0.0843
 7906TIP3    H145133   0.453   1.634   1.319 -0.2136 -0.0248  0.5292
 7906TIP3    H245134   0.600   1.632   1.357 -0.0505 -0.3964 -0.1011
 7907TIP3   OH245135   1.664   0.940   5.521  0.2311  0.5541 -0.3008
 7907TIP3    H145136   1.715   0.976   5.448 -1.1988 -0.2789 -1.8010
 7907TIP3    H245137   1.661   1.010   5.585  1.6227  1.2972 -0.9943
 7908TIP3   OH245138   6.146   0.391  15.354 -0.2092  0.1781  0.2174
 7908TIP3    H145139   6.159   0.312  15.406  1.0189  0.2249  0.0293
 7908TIP3    H245140   6.054   0.389  15.328 -0.6895 -0.1852  1.8188
 7909TIP3   OH245141   6.269   1.361  12.151  0.3008 -0.6623 -0.1242
 7909TIP3    H145142   6.216   1.438  12.173 -0.4464 -0.8274 -1.2407
 7909TIP3    H245143   6.272   1.361  12.055  0.7871 -1.6933 -0.1175
 7910TIP3   OH245144   3.907   6.005  11.014  0.3794  0.0421 -0.7081
 7910TIP3    H145145   3.887   6.095  11.037 -1.3944 -0.8960  1.7809
 7910TIP3    H245146   3.893   6.000  10.919  1.1087  2.4688 -0.9963
 7911TIP3   OH245147   2.522   1.548  16.377  0.2609  0.3988 -0.2385
 7911TIP3    H145148   2.527   1.452  16.378 -0.0455  0.3808  1.6512
 7911TIP3    H245149   2.552   1.575  16.464  0.0712  2.0152 -0.6439
 7912TIP3   OH245150   1.125   1.552  14.185 -0.1887 -0.0106 -0.0414
 7912TIP3    H145151   1.148   1.515  14.270  0.4312 -0.6169 -0.4556
 7912TIP3    H245152   1.045   1.506  14.160 -0.2357 -0.0104  0.1079
 7913TIP3   OH245153   2.132   5.760  12.498 -0.5739 -0.4691  0.2285
 7913TIP3    H145154   2.109   5.687  12.556  0.0199 -0.2145  0.8009
 7913TIP3    H245155   2.166   5.827  12.557  0.9114 -0.5421 -0.4842
 7914TIP3   OH245156   1.202   1.973  12.502 -0.4794  0.1089 -0.4111
 7914TIP3    H145157   1.225   2.044  12.563  0.7125 -0.9670  0.4618
 7914TIP3    H245158   1.257   1.990  12.425  2.3450 -1.5727  1.0573
 7915TIP3   OH245159   4.828   2.013  11.230 -0.3251  0.2078 -0.1102
 7915TIP3    H145160   4.918   2.015  11.199 -0.0509  1.9235  0.6848
 7915TIP3    H245161   4.796   1.926  11.206  2.0182 -1.0305  0.9562
 7916TIP3   OH245162   1.116   0.825  14.266 -0.3456 -0.4142 -0.3306
 7916TIP3    H145163   1.111   0.920  14.278 -0.6515 -0.5686  0.8764
 7916TIP3    H245164   1.035   0.803  14.220 -0.5813 -0.1651 -0.0453
 7917TIP3   OH245165   5.804   5.394   2.946  0.0603  0.2163  0.0629
 7917TIP3    H145166   5.879   5.387   3.005  0.3037 -1.1041 -0.3818
 7917TIP3    H245167   5.815   5.479   2.903  1.5679 -0.1680 -0.3520
 7918TIP3   OH245168   4.147   3.920  14.854  0.2754  0.1042  0.1890
 7918TIP3    H145169   4.108   3.833  14.849  0.6668 -0.0676  0.0728
 7918TIP3    H245170   4.119   3.963  14.773  1.8250 -0.6591 -0.7967
 7919TIP3   OH245171   6.294   5.995   4.733 -0.3100  0.4740  0.0428
 7919TIP3    H145172   6.319   6.085   4.710  0.5661  0.5884  1.3258
 7919TIP3    H245173   6.303   5.946   4.652  1.0205  1.1830 -0.2701
 7920TIP3   OH245174   4.886   0.811   0.162  0.2250 -0.2209 -0.2111
 7920TIP3    H145175   4.803   0.788   0.120 -1.2881  2.3829  1.0690
 7920TIP3    H245176   4.925   0.876   0.104  0.9065 -0.7146 -0.3184
 7921TIP3   OH245177   3.399   4.937  15.473  0.0622 -0.1964  0.4248
 7921TIP3    H145178   3.432   5.013  15.425 -0.2965 -0.0710  0.3734
 7921TIP3    H245179   3.337   4.896  15.413  1.7320 -1.7152 -0.3742
 7922TIP3   OH245180   2.630   2.711   1.787 -0.5666 -0.0030  0.2730
 7922TIP3    H145181   2.583   2.762   1.853 -0.1611 -0.9795  1.3498
 7922TIP3    H245182   2.589   2.624   1.790 -0.2069 -0.2053 -0.4047
 7923TIP3   OH245183   3.347   3.888   0.486 -0.1983  0.1488 -0.3735
 7923TIP3    H145184   3.437   3.910   0.463  0.7371 -1.8050  1.1243
 7923TIP3    H245185   3.327   3.944   0.561  0.0172  0.1065 -0.2850
 7924TIP3   OH245186   1.379   1.802  15.167 -0.5010  0.0679  0.2675
 7924TIP3    H145187   1.378   1.867  15.237 -0.7472  0.6158 -0.2397
 7924TIP3    H245188   1.292   1.762  15.170 -0.2722 -0.4072  0.7285
 7925TIP3   OH245189   0.937   6.441  11.586  0.0164 -0.2827 -0.1770
 7925TIP3    H145190   0.843   6.428  11.573 -0.0775 -0.4016  0.5683
 7925TIP3    H245191   0.972   6.352  11.592 -0.1438 -0.2573  1.6529
 7926TIP3   OH245192   0.938   5.503   2.577  0.2316  0.3113  0.3618
 7926TIP3    H145193   0.906   5.441   2.643 -1.6760 -1.0588 -1.6603
 7926TIP3    H245194   0.995   5.563   2.624 -0.4658 -1.0213  3.0653
 7927TIP3   OH245195   5.225   5.613   3.373  0.4455  0.2974 -0.3883
 7927TIP3    H145196   5.224   5.675   3.446 -0.1484  0.8110 -0.8257
 7927TIP3    H245197   5.164   5.544   3.398  2.9583 -1.5054  1.2488
 7928TIP3   OH245198   3.136   5.500   3.477 -0.1574 -0.4834  0.0659
 7928TIP3    H145199   3.177   5.578   3.439  0.1477 -0.8996 -0.4709
 7928TIP3    H245200   3.083   5.534   3.549 -0.2627  0.2552 -0.3485
 7929TIP3   OH245201   2.594   0.256  10.941  0.5394  0.1413 -0.2017
 7929TIP3    H145202   2.537   0.295  11.006  0.4685  0.0845 -0.2292
 7929TIP3    H245203   2.615   0.169  10.976  0.9719  0.3349  0.0200
 7930TIP3   OH245204   3.600   0.277   1.134 -0.2653 -0.3176 -0.2761
 7930TIP3    H145205   3.677   0.248   1.183 -1.0991  0.4683  1.5711
 7930TIP3    H245206   3.583   0.366   1.164 -2.4539 -0.7965  0.1025
 7931TIP3   OH245207   0.359   1.804  12.073  0.3546 -0.0221 -0.5555
 7931TIP3    H145208   0.380   1.889  12.034 -0.3291 -0.2599 -1.4616
 7931TIP3    H245209   0.407   1.740  12.020 -0.1494 -0.3005 -0.6913
 7932TIP3   OH245210   4.368   1.124  15.146  0.5936  0.7171 -0.4444
 7932TIP3    H145211   4.394   1.100  15.235  3.0489 -2.4063 -1.8117
 7932TIP3    H245212   4.277   1.096  15.139  1.5081 -2.8211  0.0022
 7933TIP3   OH245213   0.094   5.515   1.331 -0.0130  0.8838  0.0373
 7933TIP3    H145214   0.055   5.512   1.418  0.4631 -1.2398  0.2361
 7933TIP3    H245215   0.184   5.486   1.344  0.2606  1.1676 -1.0798
 7934TIP3   OH245216   3.154   6.340  13.231 -0.5225 -0.0936 -0.6266
 7934TIP3    H145217   3.069   6.380  13.213 -0.5192  0.1034 -0.2137
 7934TIP3    H245218   3.210   6.372  13.161 -1.1553 -1.4230 -1.7790
 7935TIP3   OH245219   0.703   1.239   1.030 -0.3692 -0.3444  0.2585
 7935TIP3    H145220   0.730   1.282   0.949 -0.3183  0.1524  0.5424
 7935TIP3    H245221   0.676   1.310   1.088 -2.5123 -0.8122 -0.0895
 7936TIP3   OH245222   4.265   2.408   5.396  0.2854  0.4951  0.5997
 7936TIP3    H145223   4.189   2.428   5.449  0.4902  1.1536  0.6547
 7936TIP3    H245224   4.340   2.431   5.451  0.5546 -0.8342  0.8274
 7937TIP3   OH245225   1.187   0.585  15.595  0.2698 -0.0091  0.0272
 7937TIP3    H145226   1.162   0.571  15.503 -4.0300  0.1216  0.9978
 7937TIP3    H245227   1.191   0.681  15.604 -1.1894  0.0351  0.3568
 7938TIP3   OH245228   2.211   6.789   2.637 -0.2618 -0.3454  0.2781
 7938TIP3    H145229   2.301   6.772   2.609 -0.2325 -0.6123  0.5308
 7938TIP3    H245230   2.163   6.806   2.556  0.2572  0.9706  0.2245
 7939TIP3   OH245231   5.716   1.912  12.171 -0.2512 -0.9375  0.5195
 7939TIP3    H145232   5.704   1.921  12.266 -1.8108  0.7391  0.2299
 7939TIP3    H245233   5.743   2.000  12.142  0.3627 -1.4717 -0.5820
 7940TIP3   OH245234   3.355   4.990   2.207 -0.1686  0.4551  0.0024
 7940TIP3    H145235   3.413   4.936   2.153 -0.4564  0.4500 -0.3074
 7940TIP3    H245236   3.411   5.025   2.276  0.5037  1.5872 -1.0911
 7941TIP3   OH245237   0.841   3.888   3.201  0.0870  0.4695  0.0912
 7941TIP3    H145238   0.766   3.945   3.216 -0.6015 -0.0342 -1.3423
 7941TIP3    H245239   0.916   3.948   3.198 -0.2981  1.0255  0.9674
 7942TIP3   OH245240   4.737   1.801  16.736 -1.0693 -0.3748  0.1621
 7942TIP3    H145241   4.807   1.743  16.768 -0.8602  0.9000  2.1880
 7942TIP3    H245242   4.669   1.796  16.803 -1.8985  0.2355 -0.6159
 7943TIP3   OH245243   3.658   2.776   5.401 -0.3102 -0.0960 -0.6944
 7943TIP3    H145244   3.643   2.749   5.492 -2.9450 -1.9407 -1.5415
 7943TIP3    H245245   3.686   2.867   5.407  0.6758 -0.4778  1.9749
 7944TIP3   OH245246   1.548   4.789   3.163  0.2450 -0.5372  0.1564
 7944TIP3    H145247   1.475   4.778   3.102 -1.8269 -0.3760  2.4616
 7944TIP3    H245248   1.610   4.844   3.115 -2.3472  1.6153 -1.0214
 7945TIP3   OH245249   2.182   0.852  12.242 -0.3795  0.2304 -0.2460
 7945TIP3    H145250   2.242   0.916  12.206  0.1205  0.1600  0.4568
 7945TIP3    H245251   2.217   0.767  12.213  0.3800  0.1354  0.9072
 7946TIP3   OH245252   0.492   0.621  12.061 -0.2459 -0.1932 -0.5580
 7946TIP3    H145253   0.520   0.664  12.142  0.8213  0.1513 -1.1025
 7946TIP3    H245254   0.502   0.688  11.993 -0.3805 -0.7265 -1.1110
 7947TIP3   OH245255   6.285   0.160   4.336  0.0232  0.6608  0.4031
 7947TIP3    H145256   6.316   0.070   4.334  1.8923  1.2689 -1.0811
 7947TIP3    H245257   6.354   0.210   4.291 -1.5220  2.6539  0.1186
 7948TIP3   OH245258   0.987   4.953   3.319  0.3556 -0.3662 -0.4913
 7948TIP3    H145259   1.068   5.005   3.319  1.0154 -1.3584 -0.2950
 7948TIP3    H245260   0.949   4.967   3.406  2.7359 -3.4473  1.2509
 7949TIP3   OH245261   3.681   5.727  14.319  0.9021 -0.0691  0.7429
 7949TIP3    H145262   3.632   5.743  14.399 -1.7477 -0.1597 -0.7221
 7949TIP3    H245263   3.622   5.673  14.265  2.3117  0.4506 -1.4799
 7950TIP3   OH245264   3.124   2.738  12.350  0.5434 -0.3015 -0.4842
 7950TIP3    H145265   3.175   2.716  12.428 -0.5612 -1.4104 -0.0479
 7950TIP3    H245266   3.120   2.834  12.351  0.1306 -0.3180  1.0978
 7951TIP3   OH245267   6.096   2.106   5.188  0.5318  1.0383 -0.7715
 7951TIP3    H145268   6.099   2.195   5.224 -0.0673  0.3549  1.1109
 7951TIP3    H245269   6.032   2.111   5.117 -0.6448  1.8009  0.2962
 7952TIP3   OH245270   2.123   5.218   2.846 -0.2350  0.1343 -0.2784
 7952TIP3    H145271   2.190   5.286   2.837 -0.8486  0.7471 -0.3189
 7952TIP3    H245272   2.132   5.165   2.767  1.4366 -0.9403  0.5902
 7953TIP3   OH245273   4.364   5.577   1.789 -0.5064 -0.2422 -0.3561
 7953TIP3    H145274   4.268   5.571   1.791 -0.5378 -0.0448 -1.0297
 7953TIP3    H245275   4.385   5.589   1.696  0.1091  0.7147 -0.1073
 7954TIP3   OH245276   0.557   2.250  11.180 -0.4308  0.0817  0.3626
 7954TIP3    H145277   0.510   2.308  11.119  0.6046  0.5104 -0.0507
 7954TIP3    H245278   0.649   2.263  11.158 -0.0421  0.1804  1.9929
 7955TIP3   OH245279   0.226   3.633   4.575 -0.4391  0.3438  0.0693
 7955TIP3    H145280   0.266   3.681   4.647 -0.8860  0.2465  0.3888
 7955TIP3    H245281   0.246   3.686   4.497  2.1989 -0.8183 -0.1523
 7956TIP3   OH245282   0.717   0.476   1.149 -0.5948 -0.0966 -0.0514
 7956TIP3    H145283   0.697   0.555   1.199  0.0402 -0.5981  1.0433
 7956TIP3    H245284   0.772   0.424   1.208  0.3431 -0.6318 -1.3571
 7957TIP3   OH245285   2.293   0.054  16.489  0.2364 -0.2008  0.4429
 7957TIP3    H145286   2.369   0.049  16.547  0.4757 -1.9153  0.0347
 7957TIP3    H245287   2.330   0.049  16.401 -0.3801 -2.7720  0.2569
 7958TIP3   OH245288   4.148   6.389   3.944 -0.3910 -0.1464 -0.4585
 7958TIP3    H145289   4.196   6.337   4.008 -1.9371 -0.3931  0.5793
 7958TIP3    H245290   4.197   6.471   3.939  0.2885 -0.4816  0.3402
 7959TIP3   OH245291   5.212   5.508   2.386 -0.5215 -0.1136 -0.1149
 7959TIP3    H145292   5.160   5.586   2.365  1.7319  1.7990  1.0125
 7959TIP3    H245293   5.169   5.472   2.464 -0.3947  1.2819  0.6397
 7960TIP3   OH245294   1.333   5.055   1.447 -0.8530 -0.3675 -1.1445
 7960TIP3    H145295   1.380   4.972   1.441 -0.5368 -0.2050 -0.9275
 7960TIP3    H245296   1.299   5.058   1.537  1.4347  0.9528 -0.2366
 7961TIP3   OH245297   2.941   3.836  13.565  0.6586 -0.6868 -0.2693
 7961TIP3    H145298   3.033   3.819  13.585  0.9874 -0.9102 -1.7959
 7961TIP3    H245299   2.922   3.777  13.492 -0.0612  0.8664 -1.3905
 7962TIP3   OH245300   3.127   0.036   4.548  0.4520  0.2944 -0.5314
 7962TIP3    H145301   3.145   0.020   4.641 -2.8933 -1.4330 -0.0490
 7962TIP3    H245302   3.040   0.075   4.546  0.8365  1.1914 -2.9235
 7963TIP3   OH245303   2.828   5.182  12.980  0.1536 -0.2719  0.3607
 7963TIP3    H145304   2.778   5.198  13.060  0.3656 -3.9141  1.3896
 7963TIP3    H245305   2.916   5.214  13.000 -0.3384  0.9727  0.6401
 7964TIP3   OH245306   1.991   4.595  15.386  0.0729 -0.4527  0.1452
 7964TIP3    H145307   2.082   4.566  15.385  0.3885  0.4705  0.9112
 7964TIP3    H245308   1.988   4.664  15.452 -1.3865 -1.1249  0.8339
 7965TIP3   OH245309   4.466   4.344  11.117  0.6760  0.6796 -0.0031
 7965TIP3    H145310   4.372   4.354  11.130  0.5443  0.5253 -0.7447
 7965TIP3    H245311   4.484   4.253  11.142  0.9915  1.2466  1.9959
 7966TIP3   OH245312   0.273   3.183  12.243  1.2602 -0.3731  0.1597
 7966TIP3    H145313   0.276   3.144  12.156 -0.9040 -2.2629  0.8310
 7966TIP3    H245314   0.181   3.209  12.254  1.9943  2.2770  0.9386
 7967TIP3   OH245315   2.916   1.553   1.902 -0.7800  0.0711  0.0623
 7967TIP3    H145316   2.926   1.547   1.807  2.2450  2.1216  0.1090
 7967TIP3    H245317   2.949   1.470   1.935  2.3432  0.9243 -0.6197
 7968TIP3   OH245318   0.107   6.126  11.438  0.1059  0.6840  1.1313
 7968TIP3    H145319   0.042   6.098  11.503 -0.0053 -0.3104  0.5993
 7968TIP3    H245320   0.161   6.049  11.423  1.3352  1.4424  1.4399
 7969TIP3   OH245321   3.361   3.881  12.080  0.4590  0.0280  0.2268
 7969TIP3    H145322   3.388   3.951  12.140  2.4701  0.3053 -0.9182
 7969TIP3    H245323   3.374   3.801  12.131 -0.2530  0.3807  0.9870
 7970TIP3   OH245324   2.008   5.413  11.965 -0.4881  0.5576  0.3903
 7970TIP3    H145325   1.931   5.418  11.907 -0.7205 -0.6015  0.5802
 7970TIP3    H245326   2.082   5.408  11.905 -0.6534  0.4380  0.1918
 7971TIP3   OH245327   1.497   3.563  11.344  0.0596 -0.4098 -0.4961
 7971TIP3    H145328   1.561   3.628  11.373 -0.2617  0.4040 -1.5285
 7971TIP3    H245329   1.496   3.497  11.414  1.1769  0.1422  0.0709
 7972TIP3   OH245330   5.933   3.365   5.041  0.8319 -0.2426 -0.1083
 7972TIP3    H145331   5.978   3.449   5.056  2.6116 -1.2478  0.5273
 7972TIP3    H245332   5.939   3.351   4.946  0.9436  0.1319 -0.1587
 7973TIP3   OH245333   0.481   4.505   1.591  0.3785  0.1011 -0.3717
 7973TIP3    H145334   0.491   4.590   1.550 -1.1589  0.1912 -0.6455
 7973TIP3    H245335   0.456   4.524   1.682 -0.4741 -0.0218 -0.5660
 7974TIP3   OH245336   0.728   6.392   4.155 -0.3146 -0.5302  0.3915
 7974TIP3    H145337   0.693   6.388   4.066 -0.3922 -0.3384  0.4127
 7974TIP3    H245338   0.769   6.479   4.162 -0.4293 -0.4891  0.5854
 7975TIP3   OH245339   2.495   2.192   4.026 -0.7627  0.2496  0.1474
 7975TIP3    H145340   2.590   2.189   4.039 -0.7083  1.5261  0.1996
 7975TIP3    H245341   2.470   2.102   4.008  0.1579 -0.5031  2.3141
 7976TIP3   OH245342   4.085   0.531   2.743 -0.2530  0.2290 -0.3141
 7976TIP3    H145343   4.100   0.469   2.672  0.5073 -0.6059  0.5617
 7976TIP3    H245344   4.168   0.578   2.753 -0.4046  0.4531 -0.0820
 7977TIP3   OH245345   6.033   5.081  10.798 -0.1590  0.5137 -0.2828
 7977TIP3    H145346   6.010   5.174  10.795 -0.6894  0.3854 -0.3293
 7977TIP3    H245347   6.022   5.051  10.708  1.3797  0.7165 -0.5663
 7978TIP3   OH245348   3.733   2.983   5.833  0.0519  0.2648  0.2486
 7978TIP3    H145349   3.652   2.943   5.866  0.1165 -1.0516 -1.0990
 7978TIP3    H245350   3.802   2.945   5.887 -0.1746  1.2574  1.2847
 7979TIP3   OH245351   4.404   3.983   5.792 -0.3111 -0.1240  0.1451
 7979TIP3    H145352   4.456   3.994   5.872  2.2056  0.7288 -1.4884
 7979TIP3    H245353   4.354   3.903   5.806  1.8418 -1.2653  1.6687
 7980TIP3   OH245354   1.691   1.782  16.916  0.1696 -0.2632  1.1339
 7980TIP3    H145355   1.756   1.838  16.875 -0.2349 -0.7376 -0.2291
 7980TIP3    H245356   1.607   1.823  16.894 -0.3472 -2.6836 -2.2730
 7981TIP3   OH245357   6.748   3.075  15.014  0.1644 -0.4159  0.4893
 7981TIP3    H145358   6.671   3.018  15.026  0.7765 -1.4204 -0.2456
 7981TIP3    H245359   6.779   3.092  15.103  0.9470 -2.6358  0.6967
 7982TIP3   OH245360   6.135   6.722   0.745  0.2296  0.1959  0.0516
 7982TIP3    H145361   6.102   6.651   0.691  0.8161  2.0923 -3.0566
 7982TIP3    H245362   6.062   6.782   0.754  0.3464  0.2351  0.8380
 7983TIP3   OH245363   2.919   0.739   0.724 -0.6297  0.5741  0.4788
 7983TIP3    H145364   2.871   0.750   0.806  0.9080 -0.1356  1.5306
 7983TIP3    H245365   3.011   0.750   0.749 -0.1705  1.0242 -1.2939
 7984TIP3   OH245366   5.709   4.740   4.757 -0.2640 -0.3355  0.5081
 7984TIP3    H145367   5.690   4.750   4.850 -1.6347  0.1088  0.1981
 7984TIP3    H245368   5.649   4.672   4.727  1.1210 -1.4847  0.2014
 7985TIP3   OH245369   6.393   6.636  12.001  0.2437  0.0236  0.6259
 7985TIP3    H145370   6.316   6.590  11.967  0.2823 -1.1915  2.0902
 7985TIP3    H245371   6.391   6.722  11.957 -1.0622 -0.5516 -0.5130
 7986TIP3   OH245372   3.048   2.693  10.594  1.1923 -0.1400  0.2879
 7986TIP3    H145373   3.006   2.637  10.660  1.9072 -2.5277 -1.1711
 7986TIP3    H245374   2.985   2.764  10.580 -2.0131 -2.9275 -0.9809
 7987TIP3   OH245375   4.406   1.818   3.662  0.4967  0.0671  0.0367
 7987TIP3    H145376   4.419   1.724   3.677 -0.9340 -0.1647 -0.0576
 7987TIP3    H245377   4.331   1.841   3.715  1.5819  1.4645  1.0323
 7988TIP3   OH245378   0.477   4.577  11.831 -0.3913  0.0708 -0.4364
 7988TIP3    H145379   0.445   4.501  11.782 -1.5685 -1.0169  1.8729
 7988TIP3    H245380   0.398   4.617  11.868  0.2751  2.0688 -1.0059
 7989TIP3   OH245381   3.625   3.628  11.293  0.3327  0.0585 -0.2233
 7989TIP3    H145382   3.559   3.559  11.281  0.2201  0.1112  0.0733
 7989TIP3    H245383   3.686   3.616  11.220  0.1968 -0.2205 -0.2938
 7990TIP3   OH245384   1.189   6.462  14.858 -0.2970  0.1161  0.4406
 7990TIP3    H145385   1.098   6.491  14.848 -0.5176 -1.1368 -2.2597
 7990TIP3    H245386   1.186   6.395  14.927 -1.6312 -0.5284 -0.1995
 7991TIP3   OH245387   5.093   2.748   2.529  0.4406  0.9173  0.0547
 7991TIP3    H145388   5.145   2.785   2.601  1.5360  0.0294 -0.2414
 7991TIP3    H245389   5.027   2.695   2.573  0.0927  1.6484  0.4329
 7992TIP3   OH245390   4.294   3.503   4.593 -0.3743 -0.3256 -0.2057
 7992TIP3    H145391   4.235   3.429   4.606 -1.3162  0.3195 -0.6345
 7992TIP3    H245392   4.374   3.465   4.557 -0.0682 -1.3611  1.5143
 7993TIP3   OH245393   0.376   3.299  14.547 -0.0734 -0.5396  0.6133
 7993TIP3    H145394   0.315   3.238  14.504  0.5637 -0.7792  0.0342
 7993TIP3    H245395   0.446   3.243  14.580 -0.0075 -0.2279  1.0072
 7994TIP3   OH245396   2.706   5.019   3.098 -0.3687 -0.3578 -0.2199
 7994TIP3    H145397   2.614   5.043   3.100 -0.3759 -0.4060  1.1393
 7994TIP3    H245398   2.727   4.997   3.189  0.9774 -0.3592 -0.5056
 7995TIP3   OH245399   0.027   4.056  16.200 -0.3549  0.3528 -0.0056
 7995TIP3    H145400  -0.006   4.146  16.199  0.0155  0.5160  1.3183
 7995TIP3    H245401   0.118   4.063  16.170 -0.4000  0.3798 -0.1377
 7996TIP3   OH245402   1.715   2.075  15.940 -0.1654  0.0624  0.0603
 7996TIP3    H145403   1.628   2.102  15.969 -0.0471 -1.3944  1.9997
 7996TIP3    H245404   1.700   2.031  15.856 -0.9372  1.8700 -0.7960
 7997TIP3   OH245405   4.257   6.494   4.500  0.1592  0.2390  0.8199
 7997TIP3    H145406   4.235   6.406   4.471  2.3594  0.3033 -1.2819
 7997TIP3    H245407   4.225   6.498   4.590  0.2406 -2.7955  1.0695
 7998TIP3   OH245408   5.912   2.192   4.983  0.0669  0.1100 -0.3813
 7998TIP3    H145409   5.956   2.277   4.982 -2.2897  1.4444  0.5426
 7998TIP3    H245410   5.819   2.213   4.979 -0.5850 -2.5013 -1.0629
 7999TIP3   OH245411   0.444   5.232   1.021  0.3488 -0.0843  0.0569
 7999TIP3    H145412   0.523   5.272   1.057  2.0929 -1.0604 -2.4330
 7999TIP3    H245413   0.435   5.149   1.068 -0.1346  0.6824  1.3915
 8000TIP3   OH245414   3.405   1.354  16.799  0.1805  0.2124  0.2516
 8000TIP3    H145415   3.488   1.349  16.751 -0.6950  0.1267 -1.3360
 8000TIP3    H245416   3.428   1.331  16.889  1.6240 -1.3688 -0.4579
 8001TIP3   OH245417   4.996   6.637  11.727  0.0987 -0.1868  0.2835
 8001TIP3    H145418   5.087   6.665  11.715 -0.5006  1.5879 -0.2885
 8001TIP3    H245419   4.943   6.711  11.698 -1.5634 -1.5311 -0.2809
 8002TIP3   OH245420   3.974   6.480   2.283  0.4748  0.5362 -0.3189
 8002TIP3    H145421   3.893   6.448   2.244  0.3375  0.8929 -0.3337
 8002TIP3    H245422   4.004   6.550   2.224 -0.2003  1.6801  0.6374
 8003TIP3   OH245423   1.243   0.203   4.472 -0.8724  0.3101 -0.7306
 8003TIP3    H145424   1.236   0.115   4.508 -1.0077 -0.4523 -2.5088
 8003TIP3    H245425   1.285   0.254   4.541  1.5357 -1.7038 -0.5805
 8004TIP3   OH245426   2.147   6.818   0.004  0.1844 -0.1349 -0.3407
 8004TIP3    H145427   2.225   6.767   0.030 -1.4956 -1.6718  2.1699
 8004TIP3    H245428   2.078   6.752  -0.006 -1.1710  1.3272 -0.9089
 8005TIP3   OH245429   5.941   6.487   2.476 -0.1764 -0.3816  0.4267
 8005TIP3    H145430   5.989   6.544   2.415 -1.3097 -0.5650 -0.6783
 8005TIP3    H245431   5.991   6.405   2.476  1.4772  0.5482  2.0448
 8006TIP3   OH245432   5.295   5.872  15.851 -0.4637  0.6058 -0.1186
 8006TIP3    H145433   5.247   5.872  15.768  1.1857 -0.9746 -1.1527
 8006TIP3    H245434   5.380   5.834  15.829  0.6145  1.6309  1.9941
 8007TIP3   OH245435   3.576   1.399   3.698  0.3106  0.3093  0.5506
 8007TIP3    H145436   3.605   1.458   3.629 -1.2633  0.8893  0.3632
 8007TIP3    H245437   3.502   1.444   3.739 -3.4882 -2.9298 -1.9773
 8008TIP3   OH245438   6.474   3.151   5.677 -0.6766 -0.0011  0.8279
 8008TIP3    H145439   6.477   3.229   5.621 -1.0971 -0.5684 -0.0062
 8008TIP3    H245440   6.562   3.145   5.714  0.5068 -1.1236 -1.8907
 8009TIP3   OH245441   1.659   0.132  15.136  0.0213 -0.5115 -0.0006
 8009TIP3    H145442   1.724   0.103  15.201 -0.5796 -0.2754  0.7144
 8009TIP3    H245443   1.682   0.223  15.119  1.4031 -1.1080 -1.6348
 8010TIP3   OH245444   4.831   5.538  14.272  0.1542 -0.5108  0.2521
 8010TIP3    H145445   4.835   5.459  14.326  0.6349  0.3251  1.5026
 8010TIP3    H245446   4.919   5.546  14.234  0.2516 -0.3597  0.4976
 8011TIP3   OH245447   5.775   5.186  16.972  0.1307  0.1972 -0.4454
 8011TIP3    H145448   5.791   5.203  17.064  0.2567 -1.6972 -0.0665
 8011TIP3    H245449   5.840   5.239  16.926 -0.0740  1.3268  0.5235
 8012TIP3   OH245450   5.243   2.539  14.474  0.0479  0.0194 -0.5311
 8012TIP3    H145451   5.163   2.486  14.476  0.0510  0.0324  0.2371
 8012TIP3    H245452   5.278   2.533  14.563  0.8549  0.0938 -0.8322
 8013TIP3   OH245453   3.002   5.280  12.665 -0.3120 -0.1661  0.7609
 8013TIP3    H145454   3.091   5.315  12.661  0.4523 -2.1626 -1.1052
 8013TIP3    H245455   2.959   5.334  12.732  1.1526  3.3376 -0.8717
 8014TIP3   OH245456   4.640   2.336   1.401  0.1546 -0.4828 -0.4175
 8014TIP3    H145457   4.620   2.254   1.447  0.2428 -0.5360 -0.4719
 8014TIP3    H245458   4.731   2.325   1.372 -0.7439 -1.6659 -3.1344
 8015TIP3   OH245459   2.753   2.583  12.898  0.2759 -0.2120  0.6799
 8015TIP3    H145460   2.704   2.591  12.816  0.5962 -0.6321  0.4390
 8015TIP3    H245461   2.686   2.575  12.966 -0.0191  1.5034  0.6301
 8016TIP3   OH245462   4.649   4.452  11.904 -0.2350 -0.0084  0.8665
 8016TIP3    H145463   4.685   4.495  11.827  1.1800 -1.9142  0.3712
 8016TIP3    H245464   4.575   4.402  11.870  0.7332 -1.3019  0.5724
 8017TIP3   OH245465   3.976   3.221  16.930  0.8149  0.0218  0.4312
 8017TIP3    H145466   3.999   3.139  16.887 -0.8873 -0.3727  0.1703
 8017TIP3    H245467   4.042   3.283  16.901  1.4284 -0.9642 -0.3523
 8018TIP3   OH245468   3.215   2.533   1.431  0.2857  0.6178  0.4244
 8018TIP3    H145469   3.198   2.483   1.352  2.7292  0.3082  0.0048
 8018TIP3    H245470   3.282   2.597   1.406  1.9376 -0.1936  2.4247
 8019TIP3   OH245471   1.497   5.661   4.153 -0.0148  0.0028  0.6026
 8019TIP3    H145472   1.536   5.596   4.211  0.9904 -1.1946 -1.2788
 8019TIP3    H245473   1.515   5.745   4.194 -1.5598 -0.8226  3.2492
 8020TIP3   OH245474   3.321   3.549  13.302 -0.1355  0.8389 -0.1719
 8020TIP3    H145475   3.303   3.642  13.312  1.1278  0.9950  0.8808
 8020TIP3    H245476   3.412   3.545  13.272  0.0579 -0.0688  0.4907
 8021TIP3   OH245477   5.158   4.821  15.718 -0.0074  0.0440 -1.0453
 8021TIP3    H145478   5.129   4.912  15.710  0.6701  0.5103  1.1829
 8021TIP3    H245479   5.081   4.769  15.692 -1.5188  1.2714  0.6865
 8022TIP3   OH245480   3.727   4.557  11.012  0.4301 -0.3925  0.1350
 8022TIP3    H145481   3.739   4.464  11.032 -0.8181 -0.6737 -0.3793
 8022TIP3    H245482   3.706   4.559  10.918  3.6413  0.6911 -0.7049
 8023TIP3   OH245483   5.435   5.234   3.923 -0.3878  0.0484 -0.5438
 8023TIP3    H145484   5.497   5.301   3.894  2.0210 -0.7540  2.2447
 8023TIP3    H245485   5.470   5.152   3.887 -0.8747 -0.2125 -0.4265
 8024TIP3   OH245486   1.170   0.584  11.910 -0.1043  0.2132  0.1070
 8024TIP3    H145487   1.128   0.531  11.842  0.8764 -0.3644 -0.0701
 8024TIP3    H245488   1.226   0.645  11.862  0.6952 -0.2860  0.3819
 8025TIP3   OH245489   6.784   5.539  11.454 -0.2328  0.1378 -0.3327
 8025TIP3    H145490   6.752   5.532  11.544 -1.4256 -0.2889 -0.7639
 8025TIP3    H245491   6.713   5.583  11.407 -0.1781 -0.7979 -1.3272
 8026TIP3   OH245492   0.675   3.265  12.284 -0.1869 -0.1016 -0.3643
 8026TIP3    H145493   0.661   3.320  12.207 -0.3610 -1.5745 -1.4457
 8026TIP3    H245494   0.735   3.196  12.254  0.5385 -0.1643  1.1092
 8027TIP3   OH245495   6.189   2.245  14.819  0.0655  0.1696  0.2178
 8027TIP3    H145496   6.105   2.256  14.865  0.7988 -0.2180  1.7036
 8027TIP3    H245497   6.185   2.157  14.782 -0.3331  0.2943 -0.0422
 8028TIP3   OH245498   0.925   2.648  11.599  0.2796 -0.3769 -0.6316
 8028TIP3    H145499   0.975   2.728  11.582 -0.3713  0.0924 -0.4144
 8028TIP3    H245500   0.988   2.587  11.636  0.7019  0.1801 -0.4123
 8029TIP3   OH245501   3.869   5.051   2.618  1.1652  0.1159  0.1607
 8029TIP3    H145502   3.810   4.989   2.576 -0.5336  0.6347  1.6454
 8029TIP3    H245503   3.939   4.996   2.655  0.3137 -0.7936  0.4607
 8030TIP3   OH245504   3.563   0.532  13.409  0.2661 -0.1803  0.5392
 8030TIP3    H145505   3.491   0.470  13.397  0.1108 -0.0611  0.8406
 8030TIP3    H245506   3.619   0.490  13.475  1.3537 -1.0489 -0.8753
 8031TIP3   OH245507   3.942   1.937   3.863  0.3506  0.0631 -0.3818
 8031TIP3    H145508   3.895   2.004   3.813 -0.6634 -1.0384 -0.9765
 8031TIP3    H245509   3.908   1.946   3.952  0.4527  0.5364 -0.3870
 8032TIP3   OH245510   3.180   5.580   1.112 -0.2806 -0.2134  0.1324
 8032TIP3    H145511   3.125   5.507   1.141 -0.3703  0.2205  1.0767
 8032TIP3    H245512   3.150   5.598   1.023 -1.9648  0.2933  0.7813
 8033TIP3   OH245513   1.774   4.152  15.415  0.0247  0.8498 -0.0903
 8033TIP3    H145514   1.774   4.246  15.397 -0.5890  0.8817  0.0664
 8033TIP3    H245515   1.776   4.145  15.510 -1.6018  0.7298 -0.0423
 8034TIP3   OH245516   0.389   0.658   5.963 -0.8461  0.6396  0.3531
 8034TIP3    H145517   0.448   0.734   5.955  0.2810 -0.1962  0.4048
 8034TIP3    H245518   0.353   0.666   6.051  1.8347 -0.5792  1.7097
 8035TIP3   OH245519   5.415   6.410  12.903 -0.2666  0.3665  0.4097
 8035TIP3    H145520   5.407   6.465  12.981 -2.0989  1.2593 -0.3555
 8035TIP3    H245521   5.354   6.448  12.840  1.1273 -0.3532 -1.4721
 8036TIP3   OH245522   4.008   4.832  13.459 -0.0375 -0.1062  0.2583
 8036TIP3    H145523   3.939   4.878  13.507 -1.3428 -0.4730 -1.1803
 8036TIP3    H245524   4.008   4.873  13.372  3.5692  1.8693  0.9832
 8037TIP3   OH245525   4.583   2.967   3.523 -0.1428 -0.4070 -0.4088
 8037TIP3    H145526   4.536   2.885   3.534  0.9419 -0.9120  0.7399
 8037TIP3    H245527   4.597   2.999   3.612  1.0223  0.0882 -0.7516
 8038TIP3   OH245528   0.424   3.870  12.448 -0.6362 -0.4235 -0.0482
 8038TIP3    H145529   0.339   3.831  12.427 -0.9461 -0.3810  1.0522
 8038TIP3    H245530   0.412   3.964  12.430 -0.3073 -0.6153 -1.4094
 8039TIP3   OH245531   2.003   0.721  16.591 -0.1164  0.7359 -0.0662
 8039TIP3    H145532   1.938   0.738  16.523  0.8317  1.0944 -0.9003
 8039TIP3    H245533   2.083   0.700  16.543  0.0316 -1.1998  0.9309
 8040TIP3   OH245534   6.668   1.193   0.765 -0.5440  0.0338 -0.2937
 8040TIP3    H145535   6.702   1.251   0.834  0.3304  0.8445 -1.3790
 8040TIP3    H245536   6.707   1.108   0.785 -1.0605  0.0254  0.7530
 8041TIP3   OH245537   4.946   2.871  16.269  0.5012 -0.3259  0.8241
 8041TIP3    H145538   4.981   2.891  16.182  0.7645 -0.5913  0.8707
 8041TIP3    H245539   4.857   2.906  16.267  0.6526  0.0551  0.5947
 8042TIP3   OH245540   0.636   3.464   3.269 -0.3674 -0.0332 -0.6354
 8042TIP3    H145541   0.708   3.526   3.259  0.0989 -0.6412 -1.1315
 8042TIP3    H245542   0.671   3.397   3.328 -0.3852 -0.5340 -1.1888
 8043TIP3   OH245543   2.867   5.706   5.959 -0.1118 -0.3375 -0.4204
 8043TIP3    H145544   2.792   5.661   5.998  1.4127 -2.4083  0.3025
 8043TIP3    H245545   2.898   5.765   6.028  1.0868 -2.1905  0.7172
 8044TIP3   OH245546   0.998   6.301  12.447  0.2066 -0.1590  0.1827
 8044TIP3    H145547   0.953   6.350  12.378  1.9951  1.1825 -0.1092
 8044TIP3    H245548   0.929   6.276  12.508 -1.0512  1.0537 -0.6854
 8045TIP3   OH245549   6.563   2.884   4.520  0.1521  0.0563  0.1352
 8045TIP3    H145550   6.617   2.950   4.477 -0.7140  1.9783  1.8343
 8045TIP3    H245551   6.575   2.900   4.614  1.5841 -3.6209  0.7587
 8046TIP3   OH245552   3.794   0.148   4.734  0.1871 -0.2132  0.0792
 8046TIP3    H145553   3.771   0.182   4.820  0.8038 -1.1329  0.6185
 8046TIP3    H245554   3.882   0.181   4.716  0.2032 -0.3164 -0.0407
 8047TIP3   OH245555   2.862   0.086   4.475  0.1866 -0.4229  0.2236
 8047TIP3    H145556   2.819   0.130   4.548  1.1738  1.8156 -0.4422
 8047TIP3    H245557   2.871   0.154   4.408  0.2494 -2.1311 -1.5811
 8048TIP3   OH245558   1.819   0.584   4.946 -0.1896  0.0324 -0.5117
 8048TIP3    H145559   1.773   0.666   4.961 -1.1582 -0.8447  1.7276
 8048TIP3    H245560   1.908   0.610   4.923 -0.8404  1.7105 -1.2446
 8049TIP3   OH245561   1.576   0.227   5.173  0.0986  0.3830  0.5477
 8049TIP3    H145562   1.501   0.227   5.113  1.4607 -0.8336 -1.2248
 8049TIP3    H245563   1.578   0.317   5.206 -1.8816  0.5639  0.3479
 8050TIP3   OH245564   5.029   0.323   1.632  0.0319  0.3345 -0.3764
 8050TIP3    H145565   5.092   0.380   1.677 -0.1677 -0.1934  0.6201
 8050TIP3    H245566   5.016   0.250   1.693 -1.0455  0.1038 -0.8638
 8051TIP3   OH245567   5.397   4.111  15.339  0.2056  0.4440  0.6614
 8051TIP3    H145568   5.446   4.052  15.397  1.3324 -0.1890 -0.8724
 8051TIP3    H245569   5.387   4.061  15.258 -0.2371  1.7765 -0.1279
 8052TIP3   OH245570   5.072   6.786  14.231 -0.7557 -0.0926 -0.2446
 8052TIP3    H145571   5.131   6.838  14.286 -0.2403 -0.7673 -0.1542
 8052TIP3    H245572   4.993   6.840  14.224 -0.3103  0.6090  0.0212
 8053TIP3   OH245573   5.914   2.473  13.100  0.0734 -0.5455 -0.7528
 8053TIP3    H145574   5.999   2.514  13.115 -0.1717 -0.3758  0.2009
 8053TIP3    H245575   5.877   2.521  13.026  0.5404 -0.2186 -0.7782
 8054TIP3   OH245576   2.818   3.689  10.786  0.3848  0.2808 -0.1199
 8054TIP3    H145577   2.912   3.705  10.783  0.2459  1.3133  0.6469
 8054TIP3    H245578   2.809   3.596  10.764  1.5663  0.2057 -0.3420
 8055TIP3   OH245579   1.166   1.650  12.329 -0.1844  0.6663 -0.1757
 8055TIP3    H145580   1.237   1.651  12.394 -0.1490 -0.2501 -0.1964
 8055TIP3    H245581   1.149   1.743  12.312  1.5759  0.9120 -0.7928
 8056TIP3   OH245582   2.408   5.590   0.519 -0.1703  0.5852 -0.2827
 8056TIP3    H145583   2.401   5.503   0.480  1.5187  1.2841 -2.3236
 8056TIP3    H245584   2.322   5.630   0.502 -0.6984 -0.3938 -0.0040
 8057TIP3   OH245585   5.924   4.694  16.366 -0.0122  0.1764  0.5060
 8057TIP3    H145586   5.842   4.669  16.408  0.1633  1.3226  1.5859
 8057TIP3    H245587   5.908   4.782  16.332  0.7672  0.4093  0.7214
 8058TIP3   OH245588   0.398   5.086   1.593  0.0987  0.2901 -0.4396
 8058TIP3    H145589   0.317   5.085   1.643 -0.5896 -0.7186 -1.5208
 8058TIP3    H245590   0.459   5.138   1.646 -1.6096  2.1835 -0.2068
 8059TIP3   OH245591   3.290   2.088   4.332  0.0893 -0.1030 -0.5351
 8059TIP3    H145592   3.271   2.032   4.408 -0.0259 -0.4989 -0.8494
 8059TIP3    H245593   3.227   2.159   4.338  1.3481  0.9639  0.8370
 8060TIP3   OH245594   2.389   5.794   5.290  0.3637 -0.3134 -0.6993
 8060TIP3    H145595   2.474   5.799   5.334  0.7437 -1.2967 -1.2740
 8060TIP3    H245596   2.342   5.724   5.335  0.4033 -0.7043 -1.2500
 8061TIP3   OH245597   3.310   6.622  15.309  0.1533 -0.3007  0.1757
 8061TIP3    H145598   3.352   6.670  15.381  1.1617 -2.6518  1.2717
 8061TIP3    H245599   3.329   6.675  15.231 -0.5910  2.1119  1.5097
 8062TIP3   OH245600   6.419   4.593   1.325  0.0454 -0.2041 -0.4974
 8062TIP3    H145601   6.438   4.575   1.417 -1.1658  0.7712 -0.0261
 8062TIP3    H245602   6.434   4.509   1.281 -0.2866 -0.9437  0.7450
 8063TIP3   OH245603   4.143   3.103  14.271  0.0882 -0.5632 -0.0521
 8063TIP3    H145604   4.171   3.011  14.269  1.6363 -0.1050 -1.2454
 8063TIP3    H245605   4.218   3.152  14.237 -0.6656  1.1700  0.6639
 8064TIP3   OH245606   3.404   1.191   0.210  0.1962 -0.4591  1.0659
 8064TIP3    H145607   3.427   1.258   0.146 -0.2535  0.0545  1.4311
 8064TIP3    H245608   3.381   1.240   0.289  0.5471 -1.0761  1.5574
 8065TIP3   OH245609   0.563   0.144  12.030  0.2754  0.4384 -0.1232
 8065TIP3    H145610   0.624   0.127  11.958 -0.1690  0.3491 -0.4876
 8065TIP3    H245611   0.543   0.057  12.065  0.1467  0.4430 -0.1839
 8066TIP3   OH245612   2.903   0.175   2.573  0.4658  0.0270 -0.0854
 8066TIP3    H145613   2.983   0.134   2.540  1.0600 -0.6585  2.0513
 8066TIP3    H245614   2.933   0.235   2.641 -0.8252 -0.1938  0.7098
 8067TIP3   OH245615   5.088   2.065  11.135  0.4411 -0.2233  0.1413
 8067TIP3    H145616   5.136   2.021  11.205 -0.6603  0.2784  1.2274
 8067TIP3    H245617   5.091   2.158  11.158  2.2972  0.3097 -1.8617
 8068TIP3   OH245618   0.030   3.575   2.738  0.2283 -0.4282  0.4253
 8068TIP3    H145619   0.030   3.503   2.675 -0.2200 -0.7757  0.8200
 8068TIP3    H245620  -0.042   3.555   2.798 -1.5936  1.6332 -0.9158
 8069TIP3   OH245621   0.484   0.589  12.469 -0.6362 -0.4422  0.6280
 8069TIP3    H145622   0.402   0.542  12.452 -1.4159  0.1950  2.3404
 8069TIP3    H245623   0.550   0.521  12.479 -1.5654 -1.1604  2.1529
 8070TIP3   OH245624   3.064   4.775  12.822 -0.5109  0.4505  0.1421
 8070TIP3    H145625   3.098   4.862  12.801  1.3629  0.8652  3.9520
 8070TIP3    H245626   3.112   4.715  12.763  1.3410  1.6969  0.2973
 8071TIP3   OH245627   5.475   1.273  12.266  0.2670  0.4671 -0.8866
 8071TIP3    H145628   5.515   1.336  12.206  0.5248  0.1350 -1.0640
 8071TIP3    H245629   5.459   1.195  12.212 -0.6192  0.5976 -0.8193
 8072TIP3   OH245630   5.060   2.067  12.156  0.3491  0.1604 -0.0888
 8072TIP3    H145631   5.128   2.000  12.150  1.0680  1.0076 -3.1224
 8072TIP3    H245632   4.978   2.017  12.162  0.9590 -0.9468 -0.6577
 8073TIP3   OH245633   5.580   4.111  13.878 -0.3245 -0.0777 -0.7256
 8073TIP3    H145634   5.654   4.167  13.901 -0.1360 -0.8328  0.5882
 8073TIP3    H245635   5.523   4.113  13.955 -0.8510 -0.8101 -1.0788
 8074TIP3   OH245636   4.006   4.036   2.274 -0.0898  0.3064 -0.2625
 8074TIP3    H145637   3.924   4.081   2.292 -0.7382 -0.2107 -1.7497
 8074TIP3    H245638   4.024   4.054   2.182  0.5713 -0.9713 -0.4119
 8075TIP3   OH245639   0.939   1.743   4.738 -0.2707 -0.1777 -0.0838
 8075TIP3    H145640   0.928   1.648   4.736 -2.0006 -0.0053 -0.9818
 8075TIP3    H245641   1.021   1.759   4.692  0.2825 -1.2444  0.4870
 8076TIP3   OH245642   5.221   6.091  14.331 -0.0191 -0.0846  0.0586
 8076TIP3    H145643   5.175   6.163  14.373 -0.9043 -0.4068 -0.3290
 8076TIP3    H245644   5.312   6.100  14.360 -0.1776  0.9945  0.2518
 8077TIP3   OH245645   5.754   6.384  12.928 -0.1636 -0.5597  0.6457
 8077TIP3    H145646   5.698   6.435  12.868  0.2002  0.2697  1.0021
 8077TIP3    H245647   5.717   6.400  13.015 -0.3115 -1.2729  0.7258
 8078TIP3   OH245648   3.756   0.519   2.627 -0.0928 -0.2023  0.0000
 8078TIP3    H145649   3.669   0.523   2.586  0.0817 -0.4998 -0.4011
 8078TIP3    H245650   3.808   0.583   2.578  0.1228 -0.5766 -0.2641
 8079TIP3   OH245651   2.797   4.439   1.685 -0.2933 -0.4865 -0.2982
 8079TIP3    H145652   2.747   4.496   1.743  0.6732  1.5909 -1.3857
 8079TIP3    H245653   2.886   4.441   1.721 -0.1776 -1.0433 -0.5442
 8080TIP3   OH245654   2.534   3.044  13.751  0.4443  0.2254 -0.0701
 8080TIP3    H145655   2.609   3.068  13.697  0.9087 -0.5819  0.1988
 8080TIP3    H245656   2.524   2.949  13.739 -1.9540  0.5938 -1.8946
 8081TIP3   OH245657   6.648   6.702   0.779  0.3833  0.0395 -0.2449
 8081TIP3    H145658   6.591   6.746   0.717  0.9434  2.2473  0.7093
 8081TIP3    H245659   6.589   6.657   0.839 -0.4098  1.8198  0.3919
 8082TIP3   OH245660   5.525   1.212  11.662 -0.4078 -0.5858  0.7940
 8082TIP3    H145661   5.520   1.119  11.682 -1.4713 -0.6700  0.2439
 8082TIP3    H245662   5.604   1.222  11.609 -0.2542 -1.1591  0.9095
 8083TIP3   OH245663   2.290   0.023  12.203  0.4945 -0.2252  0.4229
 8083TIP3    H145664   2.287   0.090  12.134  0.6699 -1.4021 -0.7777
 8083TIP3    H245665   2.205   0.029  12.247  0.9482  1.5607  1.1400
 8084TIP3   OH245666   4.408   1.566  15.607 -0.2697  0.2748  0.0455
 8084TIP3    H145667   4.407   1.487  15.553  0.3344  0.9544 -0.9866
 8084TIP3    H245668   4.357   1.542  15.685  0.5490 -1.3735  0.1214
 8085TIP3   OH245669   4.392   6.289  11.855  0.0987  0.1685  0.6638
 8085TIP3    H145670   4.426   6.284  11.766  0.4091  0.5353  0.7592
 8085TIP3    H245671   4.420   6.375  11.887 -0.2150  0.1378  1.0332
 8086TIP3   OH245672   3.490   3.313   3.126  0.2293 -0.5786  0.1017
 8086TIP3    H145673   3.485   3.229   3.171 -2.4252 -0.6374 -0.1454
 8086TIP3    H245674   3.463   3.294   3.036 -0.5423  0.5157  0.0770
 8087TIP3   OH245675   5.083   1.022   1.268 -0.1600 -0.4846 -0.1875
 8087TIP3    H145676   5.153   0.956   1.274 -0.1771 -0.6564 -1.6337
 8087TIP3    H245677   5.121   1.100   1.309  1.0666 -0.4380 -1.3572
 8088TIP3   OH245678   4.829   5.518  16.304  0.5353  0.0152  0.3817
 8088TIP3    H145679   4.789   5.443  16.261  0.8803  0.0085  0.0641
 8088TIP3    H245680   4.813   5.591  16.244  1.4155 -0.0818  0.0083
 8089TIP3   OH245681   2.107   0.015   0.700  0.3968  0.4349  0.1808
 8089TIP3    H145682   2.046  -0.026   0.640  0.0360 -0.2118  0.9739
 8089TIP3    H245683   2.127  -0.052   0.765  3.4148 -0.0248 -1.0514
 8090TIP3   OH245684   3.608   5.250   6.428 -0.0634 -0.6144 -0.2684
 8090TIP3    H145685   3.688   5.303   6.436  0.6123 -1.8762  2.4185
 8090TIP3    H245686   3.639   5.165   6.397 -0.5812 -0.6388 -0.7207
 8091TIP3   OH245687   4.455   2.888   3.995 -0.0690 -0.4983  0.2580
 8091TIP3    H145688   4.422   2.847   3.916 -1.5224  1.0111  0.0321
 8091TIP3    H245689   4.482   2.815   4.051  0.1671 -1.6175 -1.2528
 8092TIP3   OH245690   4.268   3.138   0.679 -0.6552  1.0889 -0.3581
 8092TIP3    H145691   4.282   3.160   0.587  0.2387  1.1313 -0.2193
 8092TIP3    H245692   4.291   3.218   0.726  0.2615  0.6361 -0.0099
 8093TIP3   OH245693   0.460   4.311  14.092 -0.0957 -0.2581 -0.3002
 8093TIP3    H145694   0.369   4.331  14.116  0.1804  0.8841 -0.1296
 8093TIP3    H245695   0.453   4.237  14.032 -1.1042 -0.4867  0.0648
 8094TIP3   OH245696   2.632   0.626   4.983  0.1282 -0.3010  0.8128
 8094TIP3    H145697   2.680   0.686   4.925 -0.3499  0.3133  1.0477
 8094TIP3    H245698   2.558   0.597   4.930  0.7330 -1.2429  0.4540
 8095TIP3   OH245699   6.790   0.687  11.557 -0.0725  0.1073  0.5922
 8095TIP3    H145700   6.801   0.594  11.537 -2.2830 -0.1778  0.4604
 8095TIP3    H245701   6.865   0.729  11.516  2.5395 -1.8508  2.9360
 8096TIP3   OH245702   0.777   5.146   6.561 -0.0392 -0.8295  0.0052
 8096TIP3    H145703   0.862   5.131   6.520 -0.2328  0.9721 -1.1348
 8096TIP3    H245704   0.798   5.186   6.645  0.2815  1.5487 -1.1172
 8097TIP3   OH245705   5.949   6.054  15.415 -0.1554  0.0977 -0.1724
 8097TIP3    H145706   5.856   6.040  15.396 -0.3413  1.7075 -0.6394
 8097TIP3    H245707   5.952   6.083  15.506  0.1474 -2.0147  0.5468
 8098TIP3   OH245708   2.658   6.539  13.736 -0.3842 -0.1115  0.6480
 8098TIP3    H145709   2.730   6.477  13.746  0.1818  0.5747  0.8896
 8098TIP3    H245710   2.665   6.597  13.811 -1.9421 -0.7705  1.3437
 8099TIP3   OH245711   1.082   0.490  12.565  0.0914  0.1914  0.3545
 8099TIP3    H145712   1.068   0.515  12.473  2.3302 -1.3734 -0.5053
 8099TIP3    H245713   1.073   0.394  12.565  0.4374  0.1449  1.7016
 8100TIP3   OH245714   2.444   6.565  13.189  0.1901  0.0740  0.1553
 8100TIP3    H145715   2.380   6.509  13.145  0.0816  0.3190 -0.0017
 8100TIP3    H245716   2.393   6.613  13.254 -0.3300  2.2182 -1.7113
 8101TIP3   OH245717   1.891   4.132   2.674  0.2212 -0.1945 -0.1409
 8101TIP3    H145718   1.874   4.044   2.707  0.5301  0.2463  1.2649
 8101TIP3    H245719   1.811   4.181   2.694 -1.1794 -0.7992 -3.5600
 8102TIP3   OH245720   4.774   4.964  13.204 -0.2345 -0.4684 -0.2674
 8102TIP3    H145721   4.866   4.936  13.207 -0.0187  0.2991  1.4876
 8102TIP3    H245722   4.765   5.007  13.119  1.6480  1.3722  0.3909
 8103TIP3   OH245723   3.775   4.768  14.026  0.4638 -0.5745  0.2532
 8103TIP3    H145724   3.717   4.750  14.100  0.9719 -1.7535  0.3804
 8103TIP3    H245725   3.787   4.683  13.984  0.8974 -0.0731 -0.6646
 8104TIP3   OH245726   3.096   1.526   5.798 -0.4841  0.9666 -0.4042
 8104TIP3    H145727   3.042   1.578   5.738 -1.7994 -1.3355 -1.3658
 8104TIP3    H245728   3.082   1.566   5.884 -2.3696  1.5070 -0.9085
 8105TIP3   OH245729   2.693   2.142   5.446  0.2632  0.0075 -0.1656
 8105TIP3    H145730   2.617   2.122   5.501 -0.3064  1.2477 -0.4687
 8105TIP3    H245731   2.734   2.058   5.430 -1.2588 -0.7353 -0.3002
 8106TIP3   OH245732   4.304   6.430  14.653 -0.0988  0.4057 -0.2824
 8106TIP3    H145733   4.384   6.462  14.612 -0.1752  0.6969 -0.2061
 8106TIP3    H245734   4.332   6.401  14.740  0.2075 -0.9269 -0.7961
 8107TIP3   OH245735   3.745   2.420  10.575 -0.2748 -0.4607 -0.6834
 8107TIP3    H145736   3.710   2.395  10.490 -2.3953 -1.2875  0.3476
 8107TIP3    H245737   3.715   2.350  10.634  1.7859 -0.3182  0.6287
 8108TIP3   OH245738   4.601   4.202  16.330  0.0676  0.4222 -0.1641
 8108TIP3    H145739   4.578   4.202  16.237  1.4641 -0.5891 -0.5450
 8108TIP3    H245740   4.567   4.119  16.363  2.3926 -0.7932 -0.5875
 8109TIP3   OH245741   1.981   1.263  14.491  0.2463  0.0281  0.0773
 8109TIP3    H145742   2.024   1.188  14.450  1.5417  1.6551 -1.6925
 8109TIP3    H245743   2.024   1.271  14.576 -0.7969 -1.9349  0.8682
 8110TIP3   OH245744   1.356   0.459  11.605 -0.1451 -0.1660  0.0446
 8110TIP3    H145745   1.376   0.369  11.631 -0.6832 -1.3628 -3.1956
 8110TIP3    H245746   1.265   0.471  11.629  0.1113 -0.2286  1.0824
 8111TIP3   OH245747   4.797   0.983  13.515  0.2148  0.2880 -0.5290
 8111TIP3    H145748   4.799   0.925  13.438  0.3912  0.7344 -0.8677
 8111TIP3    H245749   4.887   1.016  13.522  0.4398 -0.4753  0.4379
 8112TIP3   OH245750   0.778   3.443  12.490 -0.1396  0.1517 -0.1647
 8112TIP3    H145751   0.757   3.506  12.420 -0.4542 -0.1779 -0.3689
 8112TIP3    H245752   0.725   3.366  12.469  0.4322 -0.2748 -0.0494
 8113TIP3   OH245753   4.791   5.172  14.737  0.0109  0.2495  0.3454
 8113TIP3    H145754   4.714   5.135  14.781  0.6258 -0.7778  0.5864
 8113TIP3    H245755   4.792   5.131  14.651  0.8887 -0.5735  0.7363
 8114TIP3   OH245756   2.749   3.765  10.503  0.0147  0.0259 -0.2519
 8114TIP3    H145757   2.824   3.739  10.557 -0.4247 -0.2747  0.2245
 8114TIP3    H245758   2.775   3.849  10.465  0.6892 -0.1867 -0.2928
 8115TIP3   OH245759   0.011   5.354  13.471  0.4068 -0.4316 -0.5376
 8115TIP3    H145760   0.000   5.278  13.414 -0.6323 -0.1413 -0.7485
 8115TIP3    H245761   0.050   5.421  13.416  0.0101 -0.3602 -0.7318
 8116TIP3   OH245762   5.741   5.159   0.665  0.1173 -0.4255  0.0999
 8116TIP3    H145763   5.691   5.239   0.680 -1.1847 -1.2782  0.5147
 8116TIP3    H245764   5.745   5.149   0.570 -2.2123 -1.3198  0.0343
 8117TIP3   OH245765   1.010   6.550  14.040  0.0050  0.2840 -0.0136
 8117TIP3    H145766   0.967   6.480  13.991  0.1644  1.9109 -2.6785
 8117TIP3    H245767   1.099   6.554  14.005  0.1513  1.5106  0.4266
 8118TIP3   OH245768   0.258   1.067  12.250  0.0718  0.4688  0.6206
 8118TIP3    H145769   0.185   1.128  12.260 -0.5554 -0.6407  3.6633
 8118TIP3    H245770   0.218   0.980  12.248  1.1295 -0.0592 -1.3733
 8119TIP3   OH245771   4.035   3.414  12.293  0.0962 -0.1273  0.1643
 8119TIP3    H145772   3.980   3.424  12.216  0.8405  1.9601 -0.1783
 8119TIP3    H245773   4.094   3.342  12.272 -1.1997 -1.1169 -0.2328
 8120TIP3   OH245774   0.118   4.478  15.392  0.2431  0.1861  0.3390
 8120TIP3    H145775   0.071   4.513  15.316 -2.7548 -0.1477  1.9163
 8120TIP3    H245776   0.147   4.556  15.439 -0.1162  0.4258  0.1694
 8121TIP3   OH245777   5.452   1.999   3.339  1.0566 -0.8751 -0.2733
 8121TIP3    H145778   5.455   1.920   3.285  0.7069 -0.8385 -0.3531
 8121TIP3    H245779   5.445   1.966   3.429 -0.8388 -0.9676 -0.4071
 8122TIP3   OH245780   2.495   4.268  10.978  0.4667 -0.1525  0.6119
 8122TIP3    H145781   2.422   4.222  10.936 -0.1039 -0.4108  1.8215
 8122TIP3    H245782   2.555   4.288  10.907  0.0813 -1.5767 -0.1563
 8123TIP3   OH245783   3.716   1.166   2.976 -0.0660 -0.5788  0.3195
 8123TIP3    H145784   3.736   1.101   3.043 -0.0667  1.0132  1.9568
 8123TIP3    H245785   3.712   1.249   3.024  0.0428  0.6551 -1.6868
 8124TIP3   OH245786   6.148   4.744   0.173  0.0710  0.2082  0.0292
 8124TIP3    H145787   6.203   4.671   0.202  0.1806  1.0595  2.1400
 8124TIP3    H245788   6.208   4.818   0.166 -0.1547  0.2778 -1.4896
 8125TIP3   OH245789   1.995   2.469  15.035  0.3635 -0.0926 -0.2518
 8125TIP3    H145790   1.925   2.434  15.090  2.5443 -0.5390  2.4502
 8125TIP3    H245791   1.998   2.562  15.057 -0.1363  0.2013 -1.3288
 8126TIP3   OH245792   2.318   0.032   3.748  0.5138  0.5056  0.1101
 8126TIP3    H145793   2.303  -0.036   3.682  0.5070 -0.4102  1.0248
 8126TIP3    H245794   2.412   0.028   3.766  0.4617  0.5348  0.3904
 8127TIP3   OH245795   2.185   1.086  16.651 -0.3235  0.6203  0.4668
 8127TIP3    H145796   2.109   1.116  16.600  0.8719 -0.9197 -2.4507
 8127TIP3    H245797   2.149   1.019  16.710 -1.1590 -1.1612 -1.8839
 8128TIP3   OH245798   5.243   1.074  11.150 -0.7195  0.0698 -0.7707
 8128TIP3    H145799   5.169   1.016  11.134 -1.1196  0.1667  0.5705
 8128TIP3    H245800   5.244   1.134  11.076 -1.2910 -0.6388 -1.3617
 8129TIP3   OH245801   2.283   4.740   2.733  0.9320 -0.6569  0.7775
 8129TIP3    H145802   2.367   4.725   2.776  2.5575  0.0547 -1.8730
 8129TIP3    H245803   2.272   4.664   2.676 -1.0804 -1.5201  2.2288
 8130TIP3   OH245804   2.152   5.176   4.913  0.0646 -0.0531  0.3727
 8130TIP3    H145805   2.130   5.148   5.002  0.9771 -1.0429  0.3044
 8130TIP3    H245806   2.205   5.104   4.878  0.2797  0.6294 -0.7375
 8131TIP3   OH245807   2.663   4.081  11.767 -0.2864  0.5521 -0.1140
 8131TIP3    H145808   2.663   4.078  11.671  0.6081 -0.5464 -0.1006
 8131TIP3    H245809   2.693   4.170  11.788 -1.3021  1.0895 -0.8310
 8132TIP3   OH245810   5.436   2.705  10.900 -0.1199  0.2236  0.0635
 8132TIP3    H145811   5.374   2.693  10.827  0.8928 -1.9325 -0.5227
 8132TIP3    H245812   5.504   2.761  10.864 -0.2471  0.1897 -0.2348
 8133TIP3   OH245813   1.946   4.935  13.482 -0.2839 -0.2739  0.1144
 8133TIP3    H145814   1.856   4.945  13.451  0.2524  0.0143 -1.4235
 8133TIP3    H245815   1.961   5.011  13.538 -0.6690  0.2047 -0.4344
 8134TIP3   OH245816   5.260   1.970   6.527 -0.3563 -0.7447  0.0382
 8134TIP3    H145817   5.270   1.875   6.530 -2.0605 -1.0167 -1.5942
 8134TIP3    H245818   5.166   1.985   6.533 -0.1869  0.7889 -0.6710
 8135TIP3   OH245819   0.364   4.697  12.313 -0.0900  0.2230  0.4455
 8135TIP3    H145820   0.449   4.669  12.347  0.1533  1.0247  0.5330
 8135TIP3    H245821   0.356   4.788  12.343  0.3065  1.1103 -1.9724
 8136TIP3   OH245822   4.391   0.606  16.846 -0.0802 -0.1811  0.9295
 8136TIP3    H145823   4.381   0.574  16.935 -0.1285 -1.0211  0.6348
 8136TIP3    H245824   4.302   0.614  16.813 -0.0340 -1.7303  0.3383
 8137TIP3   OH245825   3.321   3.157   0.499  0.0285 -0.3899  0.0038
 8137TIP3    H145826   3.403   3.156   0.450 -0.2251 -0.2578 -0.4374
 8137TIP3    H245827   3.271   3.084   0.463 -0.4353  0.1304 -0.4293
 8138TIP3   OH245828   2.385   5.159  12.841  0.1172  0.2568  0.4698
 8138TIP3    H145829   2.428   5.117  12.766 -1.5560  0.9253 -0.9191
 8138TIP3    H245830   2.427   5.245  12.847  0.0558  0.3137  0.1145
 8139TIP3   OH245831   2.108   1.951   5.462  0.2513 -0.0817  0.2764
 8139TIP3    H145832   2.044   1.958   5.533  0.5925  0.2303  0.5593
 8139TIP3    H245833   2.137   2.041   5.448  0.5238 -0.2032  0.0564
 8140TIP3   OH245834   6.550   2.395   1.110 -0.1713 -0.2305 -0.3998
 8140TIP3    H145835   6.510   2.448   1.041 -0.7049 -0.3138 -0.1561
 8140TIP3    H245836   6.486   2.327   1.128 -0.5415  0.4587  0.9831
 8141TIP3   OH245837   4.857   0.821   5.326  0.6922 -0.2472 -0.5795
 8141TIP3    H145838   4.773   0.801   5.368  0.6247  0.8013 -0.2019
 8141TIP3    H245839   4.856   0.770   5.245 -0.1164 -0.5859 -0.3645
 8142TIP3   OH245840   2.206   2.411  10.956  0.4309  0.8971 -0.1537
 8142TIP3    H145841   2.252   2.485  10.918  0.7209  1.6068  1.4913
 8142TIP3    H245842   2.118   2.415  10.919  0.4038  2.1607  0.0294
 8143TIP3   OH245843   2.062   3.126  15.382 -0.1523  0.1169 -0.4874
 8143TIP3    H145844   2.023   3.180  15.313  1.8512  2.0352 -0.2144
 8143TIP3    H245845   2.047   3.175  15.463 -1.7477 -1.7137  0.4042
 8144TIP3   OH245846   0.716   3.641  12.315 -0.2068 -0.3945 -0.2873
 8144TIP3    H145847   0.790   3.701  12.329 -0.1751 -0.1148 -1.5425
 8144TIP3    H245848   0.658   3.688  12.256 -0.7309 -1.1564 -0.3910
 8145TIP3   OH245849   1.128   5.807   3.267  0.3806  0.0494 -0.3456
 8145TIP3    H145850   1.111   5.732   3.325 -0.3229  0.4012 -0.0871
 8145TIP3    H245851   1.082   5.785   3.186  1.1902 -0.3474 -0.7001
 8146TIP3   OH245852   5.042   0.100  16.420 -0.6612  0.0581  0.0078
 8146TIP3    H145853   5.019   0.111  16.513  1.4131  3.0759  0.3326
 8146TIP3    H245854   5.068   0.008  16.412  0.1605 -0.0363  2.7350
 8147TIP3   OH245855   5.630   3.655   4.080 -0.3736  0.4243  0.4594
 8147TIP3    H145856   5.635   3.743   4.042 -2.0984 -0.3903 -1.8541
 8147TIP3    H245857   5.721   3.624   4.080  0.0870  1.7097  0.1017
 8148TIP3   OH245858   2.054   3.570   2.080  0.4426  0.3735 -0.2719
 8148TIP3    H145859   2.115   3.587   2.152 -0.8340  0.2451  0.8692
 8148TIP3    H245860   2.047   3.475   2.077  0.5096  0.3773 -0.6007
 8149TIP3   OH245861   0.682   2.504  11.609 -0.3919  0.0888  0.3195
 8149TIP3    H145862   0.768   2.545  11.606  0.1831 -1.0926 -0.1715
 8149TIP3    H245863   0.620   2.576  11.594  0.5762  0.7407 -0.7286
 8150TIP3   OH245864   1.974   2.848  14.561  0.0206  0.8521  0.1788
 8150TIP3    H145865   2.050   2.855  14.503  0.3775  0.9417  0.6542
 8150TIP3    H245866   1.899   2.867  14.505  0.4986  2.7959  0.1389
 8151TIP3   OH245867   1.867   6.475   1.750 -0.4302 -0.2537  0.0756
 8151TIP3    H145868   1.823   6.416   1.811 -0.8622  0.2262  0.2357
 8151TIP3    H245869   1.817   6.556   1.755 -1.0856 -0.5036 -1.6537
 8152TIP3   OH245870   3.406   1.776  14.028  0.1011 -0.1254 -0.0770
 8152TIP3    H145871   3.500   1.766  14.013 -0.1011  1.3351 -2.8303
 8152TIP3    H245872   3.371   1.687  14.020  1.0967 -0.5113 -0.2453
 8153TIP3   OH245873   5.913   5.585   2.454 -0.1713  0.2326  0.5356
 8153TIP3    H145874   5.940   5.646   2.386 -0.4419  0.9763  1.0705
 8153TIP3    H245875   5.904   5.501   2.410 -4.0098  1.3352 -1.2536
 8154TIP3   OH245876   5.875   4.912  14.691 -0.1951 -0.7141 -0.0364
 8154TIP3    H145877   5.958   4.931  14.735 -0.1372 -1.7164  0.3078
 8154TIP3    H245878   5.891   4.937  14.600  1.1390 -2.5917 -0.3824
 8155TIP3   OH245879   0.173   2.562   1.496  0.3765  0.7079  0.5160
 8155TIP3    H145880   0.141   2.517   1.574 -1.6941  1.0053 -0.1175
 8155TIP3    H245881   0.136   2.513   1.423  2.4544  0.3054 -0.3534
 8156TIP3   OH245882   1.933   2.421   1.674 -0.2812  0.1506 -0.3318
 8156TIP3    H145883   2.004   2.463   1.625 -0.3031  0.5754 -0.0037
 8156TIP3    H245884   1.853   2.459   1.638 -0.3172  0.1197 -0.2840
 8157TIP3   OH245885   1.855   1.944   4.744 -0.0403 -0.4935 -0.1377
 8157TIP3    H145886   1.861   1.868   4.687  0.0847 -0.4728 -0.1523
 8157TIP3    H245887   1.762   1.951   4.765 -0.0293 -0.7538  0.0041
 8158TIP3   OH245888   0.380   0.693   0.266 -0.7720 -0.4682 -0.1027
 8158TIP3    H145889   0.431   0.632   0.214 -0.7388 -0.0968 -0.5085
 8158TIP3    H245890   0.416   0.686   0.354 -1.6429 -2.0214  0.1709
 8159TIP3   OH245891   1.232   5.028   3.833 -0.0798 -0.0827 -0.5129
 8159TIP3    H145892   1.170   5.045   3.905  1.0590 -0.3866  0.5732
 8159TIP3    H245893   1.195   4.952   3.788 -1.4617  0.8537 -1.0479
 8160TIP3   OH245894   6.168   2.295  12.478 -0.0042 -0.3342 -0.1162
 8160TIP3    H145895   6.242   2.260  12.428  0.3400 -0.1620  0.2669
 8160TIP3    H245896   6.100   2.229  12.468 -0.0384 -0.1731 -1.0395
 8161TIP3   OH245897   1.819   1.494  11.758  0.1162  1.2852  0.1804
 8161TIP3    H145898   1.755   1.483  11.829 -0.0022 -0.8031 -0.1654
 8161TIP3    H245899   1.902   1.464  11.797 -0.4972 -2.9502 -1.2857
 8162TIP3   OH245900   0.821   6.642  13.692 -0.3004  0.6105  0.5891
 8162TIP3    H145901   0.820   6.724  13.741  0.8230  0.6880  0.5029
 8162TIP3    H245902   0.855   6.577  13.754  0.2365  0.5203  0.2086
 8163TIP3   OH245903   6.010   2.862  16.314 -0.3004  0.1948  0.0265
 8163TIP3    H145904   5.915   2.850  16.310 -0.0527 -1.8997 -0.7682
 8163TIP3    H245905   6.039   2.798  16.380  0.6039  0.5369 -0.0243
 8164TIP3   OH245906   5.456   1.348   1.996  0.2017 -0.1826 -0.2398
 8164TIP3    H145907   5.510   1.345   1.917  0.0349 -0.2012 -0.3516
 8164TIP3    H245908   5.520   1.351   2.068  0.3538  0.0804 -0.3846
 8165TIP3   OH245909   5.277   4.742  11.439  0.4341  0.1260 -0.1441
 8165TIP3    H145910   5.286   4.668  11.379 -2.3388 -0.8764  0.5382
 8165TIP3    H245911   5.277   4.702  11.526  1.6793  1.2765  0.4203
 8166TIP3   OH245912   6.665   2.109  13.400  0.0159 -0.0698 -0.5369
 8166TIP3    H145913   6.712   2.136  13.479  1.3386 -1.0289 -0.9741
 8166TIP3    H245914   6.677   2.181  13.339 -1.8007  1.1166  0.3756
 8167TIP3   OH245915   6.283   4.838  11.718 -0.7659 -0.4704  0.3698
 8167TIP3    H145916   6.290   4.746  11.690 -1.2296  0.2947 -2.5994
 8167TIP3    H245917   6.189   4.854  11.724 -0.7379  0.1951 -0.7106
 8168TIP3   OH245918   3.824   4.200   2.469 -0.3597  0.3133  0.1852
 8168TIP3    H145919   3.832   4.254   2.391  0.4154 -0.0165  0.0222
 8168TIP3    H245920   3.831   4.262   2.542 -1.4248  0.6633  0.0043
 8169TIP3   OH245921   4.306   5.150   1.372  0.3882  0.4800 -0.6942
 8169TIP3    H145922   4.271   5.061   1.377  0.2449  0.5704 -0.0458
 8169TIP3    H245923   4.335   5.158   1.281  0.0383 -0.0897 -0.8683
 8170TIP3   OH245924   6.045   2.590   1.903  0.0988 -0.2636  1.0856
 8170TIP3    H145925   6.087   2.666   1.943 -2.5428  0.8214  1.9910
 8170TIP3    H245926   6.099   2.516   1.929  1.0340  0.9583  2.7934
 8171TIP3   OH245927   2.845   4.541   6.177  0.4491  0.0353 -0.3337
 8171TIP3    H145928   2.843   4.472   6.244  0.0177  0.9516  0.6298
 8171TIP3    H245929   2.938   4.553   6.158  0.4991 -1.3889 -1.1525
 8172TIP3   OH245930   1.862   2.543  16.587  0.3667 -0.3274 -0.1448
 8172TIP3    H145931   1.833   2.452  16.592  0.5262 -0.3480  0.5617
 8172TIP3    H245932   1.844   2.578  16.674  0.1157  0.3783 -0.4795
 8173TIP3   OH245933   0.467   0.015  15.645 -0.1411 -0.1245  0.6190
 8173TIP3    H145934   0.386   0.057  15.674  0.5200  2.2991 -0.8127
 8173TIP3    H245935   0.522   0.087  15.616  0.5058 -2.0117 -3.4757
 8174TIP3   OH245936   0.406   5.468  12.151  0.0620 -0.7396  0.6209
 8174TIP3    H145937   0.456   5.535  12.196  0.5845 -0.3412 -0.5246
 8174TIP3    H245938   0.445   5.463  12.064 -1.3048 -1.0582  0.0006
 8175TIP3   OH245939   3.348   3.320   5.166 -0.3486  0.5289 -0.2640
 8175TIP3    H145940   3.413   3.340   5.097  1.0688  0.1546  0.9124
 8175TIP3    H245941   3.348   3.398   5.222 -0.0662  0.0791  0.3717
 8176TIP3   OH245942   0.631   4.529   0.806 -0.4732 -0.1882 -0.0656
 8176TIP3    H145943   0.592   4.560   0.724  0.3466  1.0467 -0.0025
 8176TIP3    H245944   0.556   4.519   0.865 -0.8841  0.5628 -0.4458
 8177TIP3   OH245945   4.469   1.345  15.426  0.8024 -0.1275  0.4983
 8177TIP3    H145946   4.479   1.382  15.338 -2.1545  1.3182  0.6328
 8177TIP3    H245947   4.457   1.252  15.411 -2.5850  0.4088 -1.0750
 8178TIP3   OH245948   3.174   2.308  15.371  0.1982  0.0627  0.3199
 8178TIP3    H145949   3.161   2.401  15.355  0.7614 -0.3102 -2.7965
 8178TIP3    H245950   3.086   2.271  15.372  0.0419  0.4249  0.1256
 8179TIP3   OH245951   4.723   4.009  15.146  0.1692 -0.1449  0.2404
 8179TIP3    H145952   4.701   4.027  15.237  0.4141  0.0315  0.2672
 8179TIP3    H245953   4.745   3.916  15.144  0.7523 -0.0190  0.4839
 8180TIP3   OH245954   3.457   3.893   4.342 -0.0632 -0.0917 -0.4337
 8180TIP3    H145955   3.505   3.811   4.351 -0.9866 -0.4638  2.0456
 8180TIP3    H245956   3.365   3.868   4.349 -0.3746  1.1048 -0.0402
 8181TIP3   OH245957   6.398   0.434  15.235 -0.2806  0.7625 -0.3554
 8181TIP3    H145958   6.306   0.424  15.259 -0.1849 -1.3622 -0.7275
 8181TIP3    H245959   6.401   0.418  15.141  0.4893  0.7435 -0.3384
 8182TIP3   OH245960   0.952   6.667  12.401  0.4093 -0.0967  0.1199
 8182TIP3    H145961   0.969   6.751  12.357 -0.7916 -0.6173 -1.4195
 8182TIP3    H245962   1.025   6.611  12.375  1.1976  0.4384  1.1255
 8183TIP3   OH245963   5.914   1.310  13.098  0.2205 -0.5578  0.5581
 8183TIP3    H145964   5.986   1.303  13.035  2.7216  0.6621  3.0663
 8183TIP3    H245965   5.912   1.226  13.142 -1.9002 -1.6141 -1.3417
 8184TIP3   OH245966   6.125   0.522   4.862  0.0728 -0.3219  0.0262
 8184TIP3    H145967   6.095   0.447   4.810  1.2203 -0.7109 -0.1121
 8184TIP3    H245968   6.214   0.498   4.889 -0.1958  0.2298  1.4999
 8185TIP3   OH245969   6.145   5.464  12.774  0.0342  0.5825 -0.3029
 8185TIP3    H145970   6.183   5.383  12.739  2.0241 -0.1537  3.1091
 8185TIP3    H245971   6.179   5.533  12.717 -1.6861 -0.8385 -3.2955
 8186TIP3   OH245972   6.436   2.426  15.952 -0.2002  0.3678  0.7686
 8186TIP3    H145973   6.341   2.433  15.954 -0.4515 -2.3493  2.6234
 8186TIP3    H245974   6.467   2.499  16.005 -1.1373  1.8714 -0.6712
 8187TIP3   OH245975   2.991   0.653   1.612  0.4851 -0.6593 -0.7173
 8187TIP3    H145976   2.927   0.668   1.543 -0.6659 -0.0056  0.4527
 8187TIP3    H245977   2.972   0.720   1.678  1.8356 -0.9797  0.0411
 8188TIP3   OH245978   4.738   1.691  11.995  0.4509 -0.0078  0.7050
 8188TIP3    H145979   4.752   1.606  11.954 -2.0443 -0.0348 -0.2802
 8188TIP3    H245980   4.684   1.673  12.071 -0.6697  0.7344  0.1088
 8189TIP3   OH245981   5.596   3.495   5.468  0.1645  0.1943 -0.5085
 8189TIP3    H145982   5.550   3.509   5.551  0.4934  0.9615 -0.4429
 8189TIP3    H245983   5.574   3.406   5.443 -0.0720  0.0071  0.3240
 8190TIP3   OH245984   2.614   3.226  14.359 -0.2791  0.1905 -0.5614
 8190TIP3    H145985   2.656   3.285  14.422  0.2812  0.8852 -1.5618
 8190TIP3    H245986   2.590   3.149  14.411 -0.5603  1.0674  0.6680
 8191TIP3   OH245987   4.723   3.381  15.431 -0.1181 -0.6088  0.0538
 8191TIP3    H145988   4.632   3.383  15.402 -0.0709  0.5734 -0.0612
 8191TIP3    H245989   4.746   3.473  15.444  0.1462 -0.9931  2.9865
 8192TIP3   OH245990   6.757   3.596   1.054 -0.0082 -0.1116  0.3609
 8192TIP3    H145991   6.830   3.535   1.065  1.0471  1.2949  1.7713
 8192TIP3    H245992   6.680   3.546   1.078  0.7704 -1.0334  1.0405
 8193TIP3   OH245993   3.323   4.458  12.015  0.1971  0.1125  0.5578
 8193TIP3    H145994   3.353   4.540  12.055  0.4338  0.3731 -0.1463
 8193TIP3    H245995   3.399   4.426  11.966 -0.4838  0.5028 -0.7961
 8194TIP3   OH245996   3.549   2.536   3.990 -0.0033 -0.2325 -0.1872
 8194TIP3    H145997   3.510   2.471   3.932 -0.1073 -0.6360  0.3302
 8194TIP3    H245998   3.480   2.601   4.003 -0.0008 -0.1738 -0.4573
 8195TIP3   OH245999   4.488   5.907   4.758  0.0987  0.1817 -0.2343
 8195TIP3    H146000   4.543   5.890   4.682 -0.7397  0.7508 -0.9952
 8195TIP3    H246001   4.417   5.964   4.725 -1.1876 -0.8694  0.5951
 8196TIP3   OH246002   6.376   6.071   2.266 -0.2321  0.0206 -0.1626
 8196TIP3    H146003   6.312   6.086   2.197  1.4401 -0.2726 -1.8546
 8196TIP3    H246004   6.393   5.977   2.263 -0.0494  0.0229  0.5820
 8197TIP3   OH246005   2.799   2.049   5.171  0.4030  0.3093 -0.1258
 8197TIP3    H146006   2.713   2.078   5.140  0.6015  0.2680 -0.7190
 8197TIP3    H246007   2.779   1.976   5.230 -0.1718  2.1236  2.0774
 8198TIP3   OH246008   3.042   5.023   4.242 -0.2071  0.3768 -0.2971
 8198TIP3    H146009   3.136   5.030   4.222  0.5346 -1.2869  2.0967
 8198TIP3    H246010   3.014   5.113   4.259  0.7766  0.9697 -1.5789
 8199TIP3   OH246011   3.513   2.891  14.956 -0.2524 -0.0252  0.1328
 8199TIP3    H146012   3.512   2.819  14.893  2.9152 -0.9737  0.9942
 8199TIP3    H246013   3.589   2.874  15.011  0.5047  3.8204  0.5733
 8200TIP3   OH246014   5.400   1.307   4.517 -0.1492 -0.4003  0.5804
 8200TIP3    H146015   5.378   1.339   4.604  2.0420 -0.6318  1.2741
 8200TIP3    H246016   5.418   1.214   4.528  1.3494 -0.1967  0.1778
 8201TIP3   OH246017   2.909   3.100   5.890  0.4944  0.0542  0.6612
 8201TIP3    H146018   3.002   3.097   5.869  0.5099  2.4196  0.1157
 8201TIP3    H246019   2.900   3.045   5.967  2.1737 -0.9044  0.2287
 8202TIP3   OH246020   5.333   1.432   1.499 -0.1325  0.3703  0.5262
 8202TIP3    H146021   5.290   1.450   1.416  0.6266 -0.1034  0.0261
 8202TIP3    H246022   5.261   1.427   1.562 -0.7623  0.1316 -0.1960
 8203TIP3   OH246023   4.147   1.009  11.264 -0.4785 -0.5745  0.4260
 8203TIP3    H146024   4.055   0.985  11.262 -0.0515 -2.3453  0.6578
 8203TIP3    H246025   4.176   1.001  11.173 -0.8992  1.6854  0.0104
 8204TIP3   OH246026   5.472   1.778   2.872  0.2071  0.4429  0.3097
 8204TIP3    H146027   5.519   1.836   2.932  1.1950  0.2133 -0.2190
 8204TIP3    H246028   5.476   1.692   2.915  0.4272  0.3904  0.1872
 8205TIP3   OH246029   4.847   0.799   0.689 -0.5172 -0.7566  0.4957
 8205TIP3    H146030   4.781   0.762   0.631  0.9597  0.0353 -1.8483
 8205TIP3    H246031   4.904   0.850   0.631  0.0259  1.6298  2.9304
 8206TIP3   OH246032   1.271   1.032  15.193  0.4773  0.0917  0.0020
 8206TIP3    H146033   1.202   1.070  15.138  2.5392  0.8996 -2.2512
 8206TIP3    H246034   1.291   1.100  15.257 -0.6264 -0.0537  0.5149
 8207TIP3   OH246035   5.044   3.326  12.980  0.1907  0.6428 -0.5441
 8207TIP3    H146036   5.041   3.270  12.903  1.7199  1.0971 -0.9715
 8207TIP3    H246037   5.026   3.414  12.947  1.3912  0.9224 -0.5070
 8208TIP3   OH246038   3.143   1.281   4.995 -0.5351  0.0094  0.1184
 8208TIP3    H146039   3.153   1.225   4.918 -0.4180  1.9346 -1.3226
 8208TIP3    H246040   3.201   1.241   5.060 -0.1014 -1.2711 -0.9938
 8209TIP3   OH246041   3.043   4.177   3.270 -0.3518  0.5700  0.4471
 8209TIP3    H146042   3.053   4.237   3.343  1.9420 -0.1737  0.8427
 8209TIP3    H246043   3.132   4.167   3.235 -0.5630 -2.6966  0.5262
 8210TIP3   OH246044   1.156   3.049   3.793 -0.9257  0.9004 -0.0698
 8210TIP3    H146045   1.093   2.999   3.742 -0.2971 -0.3499  0.3314
 8210TIP3    H246046   1.216   3.085   3.728 -1.4442  1.2386 -0.3708
 8211TIP3   OH246047   5.182   2.419   3.357 -0.1278 -0.5011 -0.4587
 8211TIP3    H146048   5.203   2.489   3.295  1.3535 -0.5860 -0.1013
 8211TIP3    H246049   5.215   2.339   3.316 -1.4718 -0.9620 -0.6987
 8212TIP3   OH246050   2.119   3.249   1.508 -0.1408 -0.2519 -0.5014
 8212TIP3    H146051   2.198   3.248   1.454 -0.3385  0.6701 -0.8285
 8212TIP3    H246052   2.151   3.262   1.597  0.0038  4.0266 -0.9715
 8213TIP3   OH246053   0.603   0.745   1.013 -0.0947  0.2858 -0.1711
 8213TIP3    H146054   0.562   0.669   0.971 -0.6595  0.1905  0.5310
 8213TIP3    H246055   0.594   0.728   1.107 -0.1149  1.1719 -0.0070
 8214TIP3   OH246056   4.975   6.340  14.236 -0.0667 -0.4050 -0.2180
 8214TIP3    H146057   4.940   6.252  14.244 -0.1806 -0.4826 -1.3965
 8214TIP3    H246058   5.066   6.328  14.208  1.2226 -0.2213  3.2683
 8215TIP3   OH246059   4.030   5.269   4.184  0.4577  0.1370 -0.5050
 8215TIP3    H146060   3.998   5.314   4.262  0.7124 -0.7807  0.1567
 8215TIP3    H246061   3.950   5.245   4.136  0.3177  1.1200 -0.7881
 8216TIP3   OH246062   1.827   3.990  12.466 -0.2725  0.5664 -0.1269
 8216TIP3    H146063   1.840   3.948  12.551  0.3825  0.7309 -0.1386
 8216TIP3    H246064   1.742   4.032  12.472 -1.0695 -0.9663 -0.2027
 8217TIP3   OH246065   2.448   1.638   0.220 -0.0191 -0.1971 -0.8259
 8217TIP3    H146066   2.469   1.671   0.133  2.8445  2.3824  0.5913
 8217TIP3    H246067   2.519   1.577   0.240  0.4788  0.6929  0.2999
 8218TIP3   OH246068   5.151   4.238  12.278  0.2645  0.5301  0.3142
 8218TIP3    H146069   5.129   4.327  12.252  1.7877  0.9487  0.3895
 8218TIP3    H246070   5.235   4.246  12.323 -0.0126 -0.8283  1.1278
 8219TIP3   OH246071   6.152   1.387   4.154 -0.2393  0.3033  0.2226
 8219TIP3    H146072   6.152   1.479   4.128 -1.8737 -0.3148 -2.2876
 8219TIP3    H246073   6.105   1.342   4.084  1.7335 -2.6789  0.6032
 8220TIP3   OH246074   6.235   5.676  12.624  0.5141 -0.3490 -0.4242
 8220TIP3    H146075   6.271   5.659  12.536 -0.3954 -3.0269 -0.3780
 8220TIP3    H246076   6.154   5.725  12.607  0.2828 -0.9445 -1.1213
 8221TIP3   OH246077   5.624   3.698   2.965  0.2277  0.1254 -0.2848
 8221TIP3    H146078   5.548   3.640   2.956 -0.0658  0.7343 -2.0313
 8221TIP3    H246079   5.698   3.646   2.932  0.6982 -0.6031  1.7602
 8222TIP3   OH246080   2.049   6.098  15.693  0.2019  0.0744 -0.0350
 8222TIP3    H146081   1.995   6.146  15.756  0.1502 -1.6692  1.3320
 8222TIP3    H246082   2.122   6.064  15.746  1.3872  0.4423 -1.3890
 8223TIP3   OH246083   0.757   1.333  11.680 -0.3545  0.2019  0.1251
 8223TIP3    H146084   0.763   1.407  11.741  0.8913  0.8279 -0.7054
 8223TIP3    H246085   0.700   1.365  11.610 -1.2877 -0.2982  0.6356
 8224TIP3   OH246086   1.417   0.338   1.346 -0.0351 -0.2895 -0.4666
 8224TIP3    H146087   1.473   0.416   1.346 -1.6268  0.9806 -2.7851
 8224TIP3    H246088   1.354   0.354   1.416  1.7973 -1.3195  1.5614
 8225TIP3   OH246089   2.225   1.433  13.136 -0.1604  0.5081 -0.5737
 8225TIP3    H146090   2.171   1.509  13.114 -0.6041  0.7131  1.0810
 8225TIP3    H246091   2.166   1.358  13.124 -1.4305  0.8160  2.5976
 8226TIP3   OH246092   1.551   0.892  15.204 -0.5643  0.1361  0.5449
 8226TIP3    H146093   1.479   0.865  15.260  0.1885  1.3300  2.1760
 8226TIP3    H246094   1.594   0.963  15.252  2.2028 -1.0594  0.0472
 8227TIP3   OH246095   6.451   5.930  12.653  0.6223  0.1069  0.0599
 8227TIP3    H146096   6.409   5.878  12.722  2.9045 -2.0375 -0.0483
 8227TIP3    H246097   6.390   5.924  12.579 -0.7358  0.4718  1.0927
 8228TIP3   OH246098   2.578   0.415  12.977 -0.8896  0.0603  0.1766
 8228TIP3    H146099   2.508   0.350  12.976 -0.4800 -0.4664  1.8765
 8228TIP3    H246100   2.654   0.368  13.013  0.0890  0.8572 -0.7772
 8229TIP3   OH246101   5.684   1.247  16.636 -0.2772 -0.1518 -0.1359
 8229TIP3    H146102   5.665   1.153  16.636  1.8589 -0.6494 -1.4157
 8229TIP3    H246103   5.779   1.253  16.646 -0.4080  1.9158  0.4289
 8230TIP3   OH246104   4.913   0.204  14.367  0.6650  0.0036 -0.6132
 8230TIP3    H146105   5.005   0.202  14.394  1.1748  0.5182 -2.2415
 8230TIP3    H246106   4.903   0.286  14.319 -0.8812  0.3764  0.2794
 8231TIP3   OH246107   6.406   3.841  12.152 -0.0372 -0.1338  0.1778
 8231TIP3    H146108   6.463   3.790  12.209 -0.7243  0.6965  1.6743
 8231TIP3    H246109   6.411   3.930  12.186  0.0060  0.5321 -1.4637
 8232TIP3   OH246110   3.793   2.579   0.485  0.2964  0.4529  0.5119
 8232TIP3    H146111   3.879   2.537   0.474  0.4587  1.0543 -0.7163
 8232TIP3    H246112   3.758   2.584   0.396 -1.4047 -0.5512  1.0945
 8233TIP3   OH246113   5.559   4.902   6.515 -0.4651 -0.0449 -0.5247
 8233TIP3    H146114   5.626   4.889   6.583 -1.1895  0.5672  0.3338
 8233TIP3    H246115   5.586   4.845   6.444  1.6302  1.0339 -0.6886
 8234TIP3   OH246116   3.541   5.615  16.000 -0.3082  0.3584 -1.1759
 8234TIP3    H146117   3.491   5.551  15.950 -0.8151  1.0195 -1.5287
 8234TIP3    H246118   3.500   5.699  15.979 -0.7152  0.6292  0.5641
 8235TIP3   OH246119   0.730   1.857   4.890  0.1958 -0.1372 -0.2677
 8235TIP3    H146120   0.796   1.824   4.830  0.8139 -1.2243  0.9675
 8235TIP3    H246121   0.778   1.880   4.970 -0.7740 -0.0071  0.3047
 8236TIP3   OH246122   5.844   4.493  13.004  0.0666 -0.1314 -0.0541
 8236TIP3    H146123   5.824   4.457  12.918 -0.0293 -0.4892  0.1161
 8236TIP3    H246124   5.834   4.419  13.064 -0.6832  0.2897  0.3714
 8237TIP3   OH246125   4.702   6.271  16.083 -0.2642 -0.4384  0.1873
 8237TIP3    H146126   4.754   6.286  16.004  0.9287 -0.3428  0.9722
 8237TIP3    H246127   4.761   6.292  16.155 -0.3218 -3.3837  1.2276
 8238TIP3   OH246128   6.186   5.602   4.618  0.4550 -0.0527 -0.0060
 8238TIP3    H146129   6.096   5.582   4.641 -0.0964  0.8972 -1.2191
 8238TIP3    H246130   6.239   5.559   4.685 -0.8275 -1.9476 -0.1549
 8239TIP3   OH246131   2.050   0.435   0.001  0.3256  0.5286 -0.6668
 8239TIP3    H146132   1.982   0.368   0.004  1.0530 -0.1931  1.2378
 8239TIP3    H246133   2.016   0.502  -0.058 -1.3186 -0.5581 -0.9978
 8240TIP3   OH246134   4.501   0.840  13.320  0.1438 -0.1079  0.3561
 8240TIP3    H146135   4.535   0.926  13.342 -0.3124  0.2227 -0.1932
 8240TIP3    H246136   4.554   0.779  13.371  1.1793  0.4295 -0.0488
 8241TIP3   OH246137   2.251   0.256   4.771  0.1964 -0.2042  0.7121
 8241TIP3    H146138   2.231   0.263   4.678  0.2388 -1.9302  0.5508
 8241TIP3    H246139   2.173   0.217   4.811  0.7294 -0.8730  1.1362
 8242TIP3   OH246140   2.804   6.334   5.467 -0.3852 -0.0882 -0.0729
 8242TIP3    H146141   2.762   6.287   5.396  1.9368  2.2332 -3.3035
 8242TIP3    H246142   2.865   6.271   5.506 -2.1963 -1.5981  0.4684
 8243TIP3   OH246143   3.556   4.324  12.396 -0.6529  0.2273 -0.5883
 8243TIP3    H146144   3.465   4.340  12.372 -0.8043 -0.1980 -0.3067
 8243TIP3    H246145   3.561   4.345  12.489 -0.8228 -1.1624 -0.2414
 8244TIP3   OH246146   3.271   0.669   1.430  0.7898  0.6328  0.4831
 8244TIP3    H146147   3.254   0.580   1.461  2.3986  0.3243  0.5773
 8244TIP3    H246148   3.244   0.725   1.502  0.9110  0.1388  0.9175
 8245TIP3   OH246149   3.079   2.463  11.740 -0.0605  0.5623 -0.4414
 8245TIP3    H146150   3.087   2.400  11.812  0.2992 -0.5096 -1.3996
 8245TIP3    H246151   2.998   2.510  11.760 -1.5472 -1.6653 -0.7892
 8246TIP3   OH246152   1.985   3.179  12.752 -0.1777 -0.1758  0.5246
 8246TIP3    H146153   1.963   3.240  12.822 -0.5110  0.7098 -0.3113
 8246TIP3    H246154   1.922   3.200  12.682 -0.2449 -1.4293  0.1752
 8247TIP3   OH246155   4.130   0.524  15.468  0.2917  0.0316  0.2208
 8247TIP3    H146156   4.107   0.466  15.540  1.0826 -0.1686  0.3278
 8247TIP3    H246157   4.171   0.600  15.511  0.7898 -0.0992 -0.0139
 8248TIP3   OH246158   2.592   5.165  10.348 -0.3134  0.3305 -0.1625
 8248TIP3    H146159   2.649   5.140  10.276  0.7317 -3.5620  1.7231
 8248TIP3    H246160   2.503   5.153  10.315 -0.0082  1.7847 -1.6583
 8249TIP3   OH246161   2.395   1.889   3.430 -0.2895 -0.0948 -0.1197
 8249TIP3    H146162   2.304   1.896   3.402 -0.7215 -2.9694  0.1861
 8249TIP3    H246163   2.445   1.895   3.349 -0.9886 -1.1092 -0.6566
 8250TIP3   OH246164   1.920   1.706   5.563 -0.2112  0.5333 -0.0193
 8250TIP3    H146165   1.951   1.632   5.615  1.0301  1.0102 -0.0634
 8250TIP3    H246166   1.973   1.780   5.591 -0.4361  1.0900 -1.0165
 8251TIP3   OH246167   3.191   5.190  16.715  0.2841 -0.0647 -0.0462
 8251TIP3    H146168   3.284   5.198  16.733  0.1701  0.3625  0.3873
 8251TIP3    H246169   3.162   5.116  16.769  0.1368  0.5972  0.8260
 8252TIP3   OH246170   5.069   3.109   4.253 -0.2624 -0.1284  0.1437
 8252TIP3    H146171   5.092   3.118   4.161 -1.0258 -0.9692 -0.1409
 8252TIP3    H246172   5.106   3.025   4.279 -1.3215 -0.5944  0.1945
 8253TIP3   OH246173   2.571   5.084   5.767 -0.5326  0.3805 -0.0844
 8253TIP3    H146174   2.637   5.098   5.835  0.8270 -0.7111 -1.1058
 8253TIP3    H246175   2.495   5.133   5.797  0.4173  0.9109  1.6187
 8254TIP3   OH246176   1.646   0.066   1.324  0.0937  0.4232  0.1437
 8254TIP3    H146177   1.687   0.141   1.281 -1.2661 -0.7849 -3.6881
 8254TIP3    H246178   1.682  -0.010   1.278 -2.4799 -0.9180  0.1596
 8255TIP3   OH246179   2.211   1.495   5.920 -0.4094 -0.2249 -0.3778
 8255TIP3    H146180   2.222   1.430   5.989  0.6111 -1.7597 -1.8869
 8255TIP3    H246181   2.118   1.489   5.896 -0.5184 -0.4899  0.1038
 8256TIP3   OH246182   3.282   3.722  12.958  0.3094  0.5513  0.4785
 8256TIP3    H146183   3.372   3.717  12.991  0.6695 -0.6626 -0.6629
 8256TIP3    H246184   3.270   3.643  12.906 -1.8046  0.1097  1.5092
 8257TIP3   OH246185   0.314   1.094  11.148 -0.7064 -0.1007 -0.1051
 8257TIP3    H146186   0.300   1.050  11.064  0.4970 -1.0623  0.1718
 8257TIP3    H246187   0.312   1.024  11.213  0.7377  0.3002  0.4101
 8258TIP3   OH246188   3.449   1.077   1.425  0.4566 -0.2309 -0.0276
 8258TIP3    H146189   3.514   1.010   1.445  1.6984  1.0252  0.3557
 8258TIP3    H246190   3.501   1.153   1.398 -0.7799  1.1402  1.2574
 8259TIP3   OH246191   5.787   5.107   4.937  0.0074  0.0669  0.0415
 8259TIP3    H146192   5.870   5.124   4.981  0.4543  1.1382 -1.1264
 8259TIP3    H246193   5.770   5.187   4.888 -0.7239 -0.8564 -1.2771
 8260TIP3   OH246194   3.338   6.697   3.033  0.2044  0.4029 -0.3070
 8260TIP3    H146195   3.259   6.645   3.051  1.8371 -2.0695  0.1553
 8260TIP3    H246196   3.404   6.633   3.007  2.4639  2.2167  0.5849
 8261TIP3   OH246197   2.919   0.931   2.034 -0.2231  0.6489 -0.4597
 8261TIP3    H146198   2.828   0.954   2.051 -0.5975  0.2966 -1.8957
 8261TIP3    H246199   2.921   0.903   1.943  1.2055  0.0336 -0.2775
 8262TIP3   OH246200   4.896   1.196   0.450 -0.0137  0.3196  0.1166
 8262TIP3    H146201   4.929   1.112   0.419  0.0689  0.7390 -0.9408
 8262TIP3    H246202   4.906   1.256   0.376  0.5243  1.4363  1.0575
 8263TIP3   OH246203   5.500   2.435   3.216 -0.0743  0.1411 -0.4338
 8263TIP3    H146204   5.536   2.518   3.247 -0.8756  0.2108  0.3193
 8263TIP3    H246205   5.515   2.374   3.288 -0.4420 -0.1106 -0.5714
 8264TIP3   OH246206   2.072   6.521   2.065  0.2953 -0.0684  0.4211
 8264TIP3    H146207   2.063   6.551   2.155 -0.6416 -1.6892  0.9160
 8264TIP3    H246208   1.984   6.491   2.041  1.0767 -2.1350 -0.0850
 8265TIP3   OH246209   0.271   6.023  12.623 -0.2569  0.0154  0.3063
 8265TIP3    H146210   0.356   5.982  12.607 -0.2177  0.2396 -0.0691
 8265TIP3    H246211   0.235   6.038  12.536  0.0789  1.5084  0.3936
 8266TIP3   OH246212   3.419   0.154  14.129  0.0425 -0.0754 -0.5055
 8266TIP3    H146213   3.396   0.103  14.052 -1.0565 -0.4473  0.0462
 8266TIP3    H246214   3.384   0.242  14.111 -0.9418 -0.3666 -0.1214
 8267TIP3   OH246215   0.300   3.459  12.063 -0.0685 -0.7546 -0.2817
 8267TIP3    H146216   0.257   3.402  11.999 -0.3452 -0.7372 -0.1150
 8267TIP3    H246217   0.390   3.466  12.032  0.2026 -1.9698  0.1547
 8268TIP3   OH246218   2.669   5.187  13.884  0.2043 -0.1799 -0.1735
 8268TIP3    H146219   2.752   5.230  13.862 -0.6117  0.6430 -1.8327
 8268TIP3    H246220   2.626   5.248  13.944 -0.3517  0.7637 -1.4611
 8269TIP3   OH246221   3.591   3.645   6.528 -0.0385 -0.4059  0.1523
 8269TIP3    H146222   3.648   3.715   6.495 -0.7654  0.9140  1.5590
 8269TIP3    H246223   3.641   3.565   6.513  0.7026  0.3500 -1.7775
 8270TIP3   OH246224   6.493   6.326  11.512  0.3309 -0.3003  0.0075
 8270TIP3    H146225   6.400   6.340  11.532  0.4306 -1.1717  1.1322
 8270TIP3    H246226   6.497   6.238  11.476  0.7468 -0.3258  0.1096
 8271TIP3   OH246227   4.008   6.299  14.050 -0.1928 -0.2313 -1.3055
 8271TIP3    H146228   4.004   6.218  14.101 -3.1088  1.5971  1.8455
 8271TIP3    H246229   3.934   6.294  13.990 -0.0863 -0.1008 -1.4492
 8272TIP3   OH246230   3.293   4.739   2.940  0.3578  0.2245 -0.4256
 8272TIP3    H146231   3.205   4.702   2.946  0.6261 -0.4631 -0.6714
 8272TIP3    H246232   3.289   4.818   2.994 -0.0362 -0.5273  0.6905
 8273TIP3   OH246233   0.258   2.351   1.796  0.7037  0.2302  0.7743
 8273TIP3    H146234   0.259   2.279   1.859  1.2848 -0.3654  0.0971
 8273TIP3    H246235   0.166   2.373   1.787  0.4400 -0.9412  0.4188
 8274TIP3   OH246236   0.782   4.125   5.119 -0.2606  0.6253 -0.0711
 8274TIP3    H146237   0.708   4.178   5.089 -0.3743  1.3795  1.4470
 8274TIP3    H246238   0.741   4.048   5.158 -0.3602  1.5140  1.6972
 8275TIP3   OH246239   5.461   2.224  11.002 -0.0176 -0.2103 -0.5566
 8275TIP3    H146240   5.444   2.136  10.968 -1.4014 -0.4281  0.5860
 8275TIP3    H246241   5.419   2.283  10.939  0.0200 -0.4313 -0.7889
 8276TIP3   OH246242   0.261   4.599  16.932  0.1552 -0.1309  0.3132
 8276TIP3    H146243   0.228   4.515  16.966  0.2796  1.0041  3.6930
 8276TIP3    H246244   0.355   4.587  16.925  0.2119 -0.2346  1.1074
 8277TIP3   OH246245   1.856   3.631   2.640  0.3147 -0.2598 -0.4489
 8277TIP3    H146246   1.917   3.588   2.699 -0.8549 -1.8883 -0.3448
 8277TIP3    H246247   1.865   3.584   2.557 -1.9793 -1.7753  0.0621
 8278TIP3   OH246248   0.788   2.815  15.991  0.0288 -0.0851 -0.7203
 8278TIP3    H146249   0.778   2.800  16.085  0.9743 -0.6059 -0.6906
 8278TIP3    H246250   0.730   2.889  15.972 -0.1696  0.0250  0.2699
 8279TIP3   OH246251   1.332   0.376  14.038 -0.4631 -0.2306  0.0128
 8279TIP3    H146252   1.370   0.311  14.098  1.8108  1.4528  0.5551
 8279TIP3    H246253   1.266   0.421  14.091  1.1732  0.9026  1.1985
 8280TIP3   OH246254   4.548   0.039   0.696  0.1080 -0.1297 -0.1496
 8280TIP3    H146255   4.599   0.011   0.771 -0.4166 -0.3227  0.1382
 8280TIP3    H246256   4.593  -0.000   0.621  0.6679  0.1146  0.0514
 8281TIP3   OH246257   3.796   4.758   4.856  0.3932 -0.2426  0.0487
 8281TIP3    H146258   3.702   4.747   4.872 -0.4010  2.6400 -1.8713
 8281TIP3    H246259   3.802   4.774   4.762  2.8585 -0.4133  0.1222
 8282TIP3   OH246260   0.587   4.366   0.463 -0.0550 -0.2753 -0.1863
 8282TIP3    H146261   0.562   4.455   0.486  0.4387 -0.4479  1.0718
 8282TIP3    H246262   0.516   4.311   0.497 -0.7655 -0.3371 -1.6573
 8283TIP3   OH246263   0.427   2.642   0.047 -0.8123  0.2611  0.2239
 8283TIP3    H146264   0.353   2.643   0.107 -0.3968 -0.2311  0.7622
 8283TIP3    H246265   0.392   2.677  -0.035 -1.5633  0.2931  0.5482
 8284TIP3   OH246266   0.778   4.068   1.499 -0.2396 -0.1192 -0.1975
 8284TIP3    H146267   0.740   4.148   1.537 -0.5295 -1.1865  1.9353
 8284TIP3    H246268   0.827   4.099   1.423 -1.7477  1.8594 -0.4575
 8285TIP3   OH246269   1.889   4.448  12.501  0.2124 -0.3026  0.5008
 8285TIP3    H146270   1.877   4.397  12.422 -0.2316  1.1412 -0.3950
 8285TIP3    H246271   1.962   4.507  12.481  0.3491 -0.1840  1.2986
 8286TIP3   OH246272   4.822   0.286   3.169 -0.0051  0.4790 -0.5935
 8286TIP3    H146273   4.874   0.336   3.232  0.6395 -1.9812  0.9800
 8286TIP3    H246274   4.871   0.291   3.087  0.8284  1.1356 -0.0622
 8287TIP3   OH246275   4.232   0.205   4.203  0.5323 -0.3744  0.3233
 8287TIP3    H146276   4.236   0.258   4.282 -4.5128  1.3843 -0.2076
 8287TIP3    H246277   4.303   0.238   4.148  1.1106  1.8676  2.2440
 8288TIP3   OH246278   1.471   0.860   3.423  0.2501  0.1070  0.0341
 8288TIP3    H146279   1.387   0.825   3.453  1.1671 -4.8678 -2.2757
 8288TIP3    H246280   1.466   0.853   3.328  2.8371  0.9728 -0.2232
 8289TIP3   OH246281   0.290   6.032   5.951  0.1929 -0.0512  0.1081
 8289TIP3    H146282   0.358   5.968   5.973  1.5114  0.9437 -0.8497
 8289TIP3    H246283   0.322   6.115   5.986 -1.0303  0.2764  0.5059
 8290TIP3   OH246284   0.786   6.287   1.435 -0.1320  0.0101  0.0539
 8290TIP3    H146285   0.875   6.260   1.454 -0.4001 -1.5145 -0.7049
 8290TIP3    H246286   0.790   6.382   1.430  1.3794 -0.0153  0.3528
 8291TIP3   OH246287   2.968   5.051  13.752 -0.2329 -0.0396 -0.2112
 8291TIP3    H146288   2.927   4.965  13.758 -0.6477  0.1232 -0.6020
 8291TIP3    H246289   2.926   5.092  13.676  0.3987  0.2701 -0.4024
 8292TIP3   OH246290   2.429   1.996  14.958  0.4362  0.3077 -0.2021
 8292TIP3    H146291   2.416   2.059  15.028 -0.2097 -0.8388  0.7401
 8292TIP3    H246292   2.512   1.953  14.979  0.0991 -0.2376  0.0332
 8293TIP3   OH246293   5.928   3.828   1.796 -0.0165  0.2087  0.5085
 8293TIP3    H146294   5.884   3.835   1.711  1.6993  0.8030 -0.3792
 8293TIP3    H246295   5.876   3.762   1.844 -0.9043 -0.3034 -1.0595
 8294TIP3   OH246296   3.784   3.611   4.945 -0.0676 -0.0112  0.4277
 8294TIP3    H146297   3.874   3.582   4.962  0.2288  0.9125  0.4541
 8294TIP3    H246298   3.788   3.706   4.947 -1.3408  0.0556  1.9684
 8295TIP3   OH246299   6.422   2.683  13.657  0.3561  0.1610 -0.6595
 8295TIP3    H146300   6.470   2.706  13.577 -0.2045 -0.7996 -1.3074
 8295TIP3    H246301   6.455   2.596  13.680 -1.1443 -0.5951 -1.2206
 8296TIP3   OH246302   6.759   0.262   1.372  0.2121 -0.4994  0.2228
 8296TIP3    H146303   6.733   0.287   1.461 -1.0044 -0.3976 -0.1495
 8296TIP3    H246304   6.747   0.167   1.370 -0.4062 -0.4203 -0.0284
 8297TIP3   OH246305   4.702   5.374   0.512 -0.5885 -0.4020 -0.7555
 8297TIP3    H146306   4.782   5.371   0.564 -1.2111  3.2885  0.6780
 8297TIP3    H246307   4.725   5.426   0.435 -1.3458 -0.1683 -0.8290
 8298TIP3   OH246308   2.196   0.312   3.250  1.1960  0.6138 -0.2996
 8298TIP3    H146309   2.186   0.304   3.155  3.0461 -0.5980 -0.4386
 8298TIP3    H246310   2.277   0.265   3.270  0.1566 -0.3287  2.0728
 8299TIP3   OH246311   1.004   5.964  15.099 -0.1959  1.2691 -0.2987
 8299TIP3    H146312   1.061   5.896  15.135 -1.3088  1.6634  2.5012
 8299TIP3    H246313   1.049   5.994  15.020  0.7560 -2.0693 -1.2026
 8300TIP3   OH246314   0.386   1.247  11.397 -0.4729  0.8503  0.2618
 8300TIP3    H146315   0.314   1.222  11.455 -1.0111  0.8219 -0.4133
 8300TIP3    H246316   0.359   1.217  11.310  2.2282 -3.3190  0.5583
 8301TIP3   OH246317   0.393   4.654   5.643 -0.6616 -0.3535 -0.2693
 8301TIP3    H146318   0.343   4.591   5.696  0.7668 -0.9812  0.3950
 8301TIP3    H246319   0.367   4.739   5.677 -0.4462 -0.7124  0.8433
 8302TIP3   OH246320   5.856   3.531  10.845  0.1620 -0.5863 -0.3498
 8302TIP3    H146321   5.761   3.547  10.850  0.0404 -1.5239  0.5403
 8302TIP3    H246322   5.894   3.619  10.846 -0.6324 -0.2151  1.2227
 8303TIP3   OH246323   4.165   5.570   3.655  0.0908 -0.2897  0.3438
 8303TIP3    H146324   4.163   5.524   3.739 -0.4216 -0.1776  0.3954
 8303TIP3    H246325   4.115   5.650   3.670 -0.3103 -0.4352 -0.1656
 8304TIP3   OH246326   1.193   4.321   5.586  0.2911 -0.3050  0.2707
 8304TIP3    H146327   1.150   4.253   5.638 -0.8097 -0.1901 -0.4601
 8304TIP3    H246328   1.214   4.390   5.650  1.2986 -1.2422  0.9959
 8305TIP3   OH246329   1.374   5.518   0.287  0.4109  0.3498  1.1356
 8305TIP3    H146330   1.447   5.530   0.226 -0.0209 -0.6767  0.3866
 8305TIP3    H246331   1.298   5.502   0.231 -0.2669  0.7468  1.9218
 8306TIP3   OH246332   6.062   3.698   1.256  0.3368 -0.2616  0.7675
 8306TIP3    H146333   6.054   3.785   1.297  1.7033  0.5201 -0.5131
 8306TIP3    H246334   6.140   3.705   1.201 -0.7365 -1.6349 -1.0290
 8307TIP3   OH246335   0.168   4.166  11.790  0.1277 -0.3434  0.5320
 8307TIP3    H146336   0.243   4.174  11.730  0.3348  1.4923  0.9503
 8307TIP3    H246337   0.197   4.213  11.869 -0.8251 -1.1268  1.3604
 8308TIP3   OH246338   5.926   2.125  16.581  0.2930 -0.4857  0.0184
 8308TIP3    H146339   6.003   2.138  16.635  0.4591  0.3924 -0.4188
 8308TIP3    H246340   5.897   2.213  16.558 -0.6391 -0.8131 -0.1034
 8309TIP3   OH246341   4.543   4.861  14.944  0.2049  0.1565  0.2009
 8309TIP3    H146342   4.610   4.871  14.877  0.5288 -0.9623  0.3301
 8309TIP3    H246343   4.578   4.793  15.002 -1.3288 -0.9660 -0.1210
 8310TIP3   OH246344   3.490   1.915   0.583 -0.6429 -0.0424 -0.1382
 8310TIP3    H146345   3.474   1.959   0.667 -1.2306 -1.4925  0.5505
 8310TIP3    H246346   3.408   1.870   0.564 -0.5120  0.2714 -1.5134
 8311TIP3   OH246347   3.861   2.401  16.582 -0.1640  0.1744  0.0902
 8311TIP3    H146348   3.920   2.376  16.510 -0.6725 -1.5708  0.2304
 8311TIP3    H246349   3.880   2.493  16.598  0.1504  0.5541 -2.1219
 8312TIP3   OH246350   4.460   4.312  12.481 -0.5727  0.2462  0.2397
 8312TIP3    H146351   4.496   4.274  12.561 -1.7208 -0.7068  0.3229
 8312TIP3    H246352   4.431   4.399  12.508 -0.4725  0.1351  0.7321
 8313TIP3   OH246353   5.678   1.906   1.327  0.7715  0.0793  0.1699
 8313TIP3    H146354   5.609   1.948   1.378  0.6426 -0.0840  0.1336
 8313TIP3    H246355   5.637   1.826   1.293  0.8707  0.1627 -0.1498
 8314TIP3   OH246356   4.448   6.218  11.246 -0.3240  0.5107 -0.1683
 8314TIP3    H146357   4.481   6.230  11.157 -2.0826 -0.0871 -0.9577
 8314TIP3    H246358   4.379   6.285  11.255 -0.9401 -0.1706  0.3196
 8315TIP3   OH246359   2.844   0.417  14.050  0.4490  0.4785  0.2855
 8315TIP3    H146360   2.898   0.381  13.980 -0.4759  0.0359 -0.2267
 8315TIP3    H246361   2.858   0.511  14.045 -0.4096  0.5590 -1.2170
 8316TIP3   OH246362   3.168   4.426  11.382  0.2231  0.0150  0.2982
 8316TIP3    H146363   3.136   4.384  11.303 -1.8878  0.8181  0.6495
 8316TIP3    H246364   3.202   4.510  11.353 -0.6863  0.3721  0.2352
 8317TIP3   OH246365   0.910   6.425   4.389  0.0470 -0.0091 -0.5900
 8317TIP3    H146366   0.858   6.490   4.437  0.5473  1.1561 -1.5791
 8317TIP3    H246367   0.847   6.385   4.328 -0.2081 -0.3128 -0.1381
 8318TIP3   OH246368   6.344   1.882   3.486 -0.7455  0.2282  0.1241
 8318TIP3    H146369   6.349   1.882   3.582 -1.0541 -1.1425  0.1591
 8318TIP3    H246370   6.253   1.903   3.467 -0.2922  2.3327  0.0564
 8319TIP3   OH246371   0.862   3.330   2.857  0.9393  0.5963 -0.3022
 8319TIP3    H146372   0.825   3.418   2.848  1.4600  0.7370 -1.2895
 8319TIP3    H246373   0.841   3.286   2.774 -0.8108 -0.8226  0.8212
 8320TIP3   OH246374   4.415   3.295   0.395 -0.0845 -0.3087 -0.4520
 8320TIP3    H146375   4.456   3.252   0.320 -0.2363 -1.1834 -0.0542
 8320TIP3    H246376   4.479   3.285   0.465 -0.0850  0.2019 -0.3786
 8321TIP3   OH246377   0.126   2.685   2.409  0.3366  0.0558 -0.2899
 8321TIP3    H146378   0.116   2.673   2.314  0.4997  0.9744 -0.4339
 8321TIP3    H246379   0.150   2.598   2.442 -0.1435 -0.3698 -1.0284
 8322TIP3   OH246380   6.385   0.902  12.208 -0.2931 -0.4248 -0.0396
 8322TIP3    H146381   6.468   0.856  12.215 -0.5957 -1.0869 -0.6009
 8322TIP3    H246382   6.408   0.995  12.205  0.3944 -0.5847  0.1638
 8323TIP3   OH246383   4.027   3.772   1.997  0.0354 -0.3180 -0.2254
 8323TIP3    H146384   4.096   3.724   1.953  0.4691  0.9234 -0.9693
 8323TIP3    H246385   4.059   3.862   2.001 -0.8301 -0.0324  0.9105
 8324TIP3   OH246386   6.110   2.122  13.806 -0.2385  0.7473  0.1820
 8324TIP3    H146387   6.025   2.082  13.788  0.3050 -0.2371 -0.2422
 8324TIP3    H246388   6.102   2.211  13.772 -1.0819  0.6458  0.1072
 8325TIP3   OH246389   3.022   4.970   1.433 -0.2764  0.6757 -0.0241
 8325TIP3    H146390   3.037   4.977   1.339  1.6900  3.8068  0.3755
 8325TIP3    H246391   2.945   4.914   1.441 -0.3934  0.1416 -3.4561
 8326TIP3   OH246392   6.419   3.310  11.321 -0.2728 -0.5132  0.7574
 8326TIP3    H146393   6.368   3.367  11.263  0.5345  0.7537  1.2605
 8326TIP3    H246394   6.440   3.364  11.397  2.0427 -0.8773  0.4680
 8327TIP3   OH246395   2.161   5.770   3.130  0.5502  0.0980  0.0256
 8327TIP3    H146396   2.208   5.831   3.187  0.9944 -1.5784  1.5791
 8327TIP3    H246397   2.073   5.807   3.121  0.8671  1.0614  0.7473
 8328TIP3   OH246398   0.671   0.023   0.398 -0.2368 -0.2390 -0.1391
 8328TIP3    H146399   0.713   0.107   0.418  2.2382 -1.5485  0.6548
 8328TIP3    H246400   0.744  -0.039   0.394 -2.0784 -2.5560  0.3729
 8329TIP3   OH246401   5.320   2.454   4.716  0.4223 -0.4225  0.5792
 8329TIP3    H146402   5.239   2.420   4.680 -0.1124  2.4004 -1.1700
 8329TIP3    H246403   5.297   2.484   4.804 -0.8559  1.6078 -0.3930
 8330TIP3   OH246404   4.834   5.374  11.805 -0.7363 -0.0168 -0.4571
 8330TIP3    H146405   4.791   5.306  11.753 -0.3341  0.9593 -2.1413
 8330TIP3    H246406   4.927   5.348  11.805 -1.0213 -1.3003  1.8815
 8331TIP3   OH246407   5.590   3.787   3.577  0.1812 -0.2089 -0.1519
 8331TIP3    H146408   5.536   3.763   3.502  1.5115 -0.4083 -1.0804
 8331TIP3    H246409   5.669   3.735   3.567  1.3550  1.4488  0.1089
 8332TIP3   OH246410   2.558   3.668   5.767 -0.2924  0.0052 -0.8435
 8332TIP3    H146411   2.614   3.657   5.843 -1.0546 -1.4836 -0.4612
 8332TIP3    H246412   2.603   3.621   5.697  0.0881  0.8203 -1.1524
 8333TIP3   OH246413   1.087   0.714  10.306 -0.3565  0.6476  0.4579
 8333TIP3    H146414   1.176   0.719  10.341 -0.7130  1.3464  1.3010
 8333TIP3    H246415   1.086   0.780  10.236 -0.5983  1.6724  1.3872
 8334TIP3   OH246416   3.020   4.935  15.899  0.6089  0.5528  0.3547
 8334TIP3    H146417   3.039   4.995  15.971  0.7537 -0.7346  1.4374
 8334TIP3    H246418   3.070   4.970  15.825 -1.3060  3.1888  0.1535
 8335TIP3   OH246419   6.053   3.603   0.124 -0.1714 -0.0905 -0.3158
 8335TIP3    H146420   5.997   3.676   0.152  0.6856  1.2911 -2.0265
 8335TIP3    H246421   6.057   3.611   0.029  1.6998 -1.0684 -0.3633
 8336TIP3   OH246422   3.343   0.617  10.755  0.6709 -0.3456  0.3106
 8336TIP3    H146423   3.433   0.631  10.786  1.5388 -2.3070 -1.1233
 8336TIP3    H246424   3.350   0.544  10.695 -2.0812 -1.1307  0.8329
 8337TIP3   OH246425   0.693   5.369  13.084  0.0606 -0.0266 -0.2248
 8337TIP3    H146426   0.652   5.334  13.005 -0.1838 -0.6513  0.1738
 8337TIP3    H246427   0.738   5.294  13.124  2.2740  0.7839 -1.0443
 8338TIP3   OH246428   2.247   4.890   4.510 -0.0403 -0.1261 -0.9491
 8338TIP3    H146429   2.256   4.985   4.520 -3.6309  0.2246  0.7144
 8338TIP3    H246430   2.183   4.880   4.440  0.4931 -1.3702 -1.2789
 8339TIP3   OH246431   6.721   3.744  16.737 -0.6871 -0.3132 -0.1747
 8339TIP3    H146432   6.733   3.712  16.648  1.7078 -1.3394  0.4448
 8339TIP3    H246433   6.683   3.671  16.784  2.0328 -1.4152  0.5442
 8340TIP3   OH246434   6.104   1.429  13.889 -0.8594  0.4210  0.1383
 8340TIP3    H146435   6.038   1.365  13.864  0.3657 -0.2774 -1.4951
 8340TIP3    H246436   6.124   1.476  13.808  0.0496  1.1746  0.7708
 8341TIP3   OH246437   4.360   1.308   5.571 -0.1693  0.2195 -0.5718
 8341TIP3    H146438   4.380   1.302   5.664  1.1260 -0.3220 -0.8531
 8341TIP3    H246439   4.316   1.225   5.550 -3.0714  1.4739  0.0793
 8342TIP3   OH246440   5.970   2.668  14.976 -0.5347 -0.3807  0.4782
 8342TIP3    H146441   5.904   2.665  14.906 -3.2265  0.0043  2.7982
 8342TIP3    H246442   5.939   2.736  15.035  1.6247 -0.6783  2.0647
 8343TIP3   OH246443   6.695   2.490   4.102  0.1762 -0.1873  0.1476
 8343TIP3    H146444   6.628   2.555   4.124 -0.2772 -0.5713 -0.0812
 8343TIP3    H246445   6.730   2.464   4.187 -0.2804 -0.3125  0.3041
 8344TIP3   OH246446   1.118   6.347  16.405 -0.0725 -0.2384 -0.3886
 8344TIP3    H146447   1.177   6.423  16.402  1.4614 -1.0556  3.2203
 8344TIP3    H246448   1.177   6.272  16.405 -1.5171 -1.4732 -2.7858
 8345TIP3   OH246449   1.009   5.739  12.347  0.4683 -0.3618 -0.1673
 8345TIP3    H146450   0.922   5.720  12.310 -0.8635  1.1485  1.9361
 8345TIP3    H246451   0.990   5.775  12.434  3.2217  0.3295  0.2298
 8346TIP3   OH246452   5.352   4.161   6.147  0.1042  0.0909 -0.6006
 8346TIP3    H146453   5.328   4.195   6.233 -0.6920 -1.1717 -0.2921
 8346TIP3    H246454   5.336   4.067   6.153  1.9110 -0.3201 -1.5276
 8347TIP3   OH246455   0.486   6.743  12.470  0.3881 -0.1473  0.0029
 8347TIP3    H146456   0.570   6.751  12.425 -0.0623  0.5423 -0.7360
 8347TIP3    H246457   0.508   6.700  12.553  1.1972 -1.6726 -0.9536
 8348TIP3   OH246458   5.991   1.255   4.779 -0.0897 -0.2683  0.4625
 8348TIP3    H146459   5.973   1.161   4.780  3.2225 -1.0943 -1.6915
 8348TIP3    H246460   6.062   1.267   4.843  0.9736  0.3221 -0.7722
 8349TIP3   OH246461   5.872   4.567   1.601 -0.5078 -0.1322 -0.4378
 8349TIP3    H146462   5.878   4.663   1.609 -2.0767  0.4562 -4.3335
 8349TIP3    H246463   5.960   4.541   1.572 -0.0262  0.0459  0.7831
 8350TIP3   OH246464   0.569   2.773  15.408  0.2248 -0.2975 -0.8171
 8350TIP3    H146465   0.516   2.789  15.330  0.2849 -0.7399 -0.9506
 8350TIP3    H246466   0.508   2.783  15.481  0.2063  0.2865 -0.9084
 8351TIP3   OH246467   2.345   0.234   2.253  0.2641  0.2409 -0.7361
 8351TIP3    H146468   2.385   0.307   2.204  1.0485  0.0195 -0.4366
 8351TIP3    H246469   2.352   0.261   2.344 -2.1750  1.1449 -0.7593
 8352TIP3   OH246470   5.420   0.104   5.465 -0.1813 -0.3263  0.0326
 8352TIP3    H146471   5.362   0.063   5.529  0.1880 -1.4602 -0.3395
 8352TIP3    H246472   5.438   0.035   5.400 -1.9092  1.2223 -2.2668
 8353TIP3   OH246473   0.837   2.487  16.864  0.3993  0.0974  0.0861
 8353TIP3    H146474   0.781   2.564  16.857  1.7015  1.1201  0.3926
 8353TIP3    H246475   0.854   2.478  16.957  0.7021 -0.2204  0.0041
 8354TIP3   OH246476   6.540   5.553   1.036  0.4622  0.2594 -0.2036
 8354TIP3    H146477   6.609   5.487   1.046  1.8822  1.5931 -0.8720
 8354TIP3    H246478   6.548   5.583   0.946 -0.8114  0.6658 -0.2048
 8355TIP3   OH246479   3.504   4.400   1.692 -0.0824  0.4522 -0.0523
 8355TIP3    H146480   3.460   4.402   1.777 -0.6735 -0.7373 -0.3205
 8355TIP3    H246481   3.502   4.308   1.665 -0.1785  0.8448 -1.4920
 8356TIP3   OH246482   3.734   2.707  11.122 -1.1587  0.2339 -0.5185
 8356TIP3    H146483   3.645   2.742  11.128 -1.7540 -0.7618 -2.7268
 8356TIP3    H246484   3.771   2.748  11.045  0.5812  1.1047  0.7165
 8357TIP3   OH246485   3.962   2.662   5.619  0.1865  0.1833 -0.4224
 8357TIP3    H146486   4.043   2.698   5.655  0.1398  0.4739 -0.6043
 8357TIP3    H246487   3.900   2.665   5.692  0.6143 -0.9916  0.0224
 8358TIP3   OH246488   5.588   4.171  12.247  0.0360 -0.4967  0.3220
 8358TIP3    H146489   5.576   4.180  12.152 -0.2191  3.7563  0.6028
 8358TIP3    H246490   5.499   4.156  12.281 -0.2181  0.3807  0.0594
 8359TIP3   OH246491   3.877   6.611   0.581 -0.1674 -0.3985  0.5258
 8359TIP3    H146492   3.890   6.639   0.490 -1.4564  0.4156  0.5770
 8359TIP3    H246493   3.966   6.608   0.617  0.2931  0.1536 -0.4996
 8360TIP3   OH246494   3.037   4.480  12.402  0.2149 -0.2236 -0.4335
 8360TIP3    H146495   3.091   4.495  12.480 -0.0721  0.2448 -0.3219
 8360TIP3    H246496   2.955   4.526  12.420  0.6808  1.1411 -1.6044
 8361TIP3   OH246497   5.532   5.598   3.575 -0.2793  0.3788 -0.1031
 8361TIP3    H146498   5.448   5.640   3.594 -0.5431  0.1449 -0.7309
 8361TIP3    H246499   5.555   5.628   3.487 -1.0113 -1.5930 -1.0247
 8362TIP3   OH246500   4.418   4.551  12.605  0.1861  0.7311  0.5265
 8362TIP3    H146501   4.352   4.604  12.560  2.3988  2.6785 -0.6827
 8362TIP3    H246502   4.383   4.540  12.694 -2.1032  0.9437 -0.2818
 8363TIP3   OH246503   5.148   5.507  15.423  0.1864  0.0044 -0.2486
 8363TIP3    H146504   5.235   5.493  15.387 -0.1412  1.6388 -1.8418
 8363TIP3    H246505   5.092   5.520  15.347 -1.3438 -0.4101  0.7628
 8364TIP3   OH246506   0.363   4.908   5.741 -0.0524 -0.3024  0.5266
 8364TIP3    H146507   0.435   4.965   5.712 -1.1869  0.9730  0.0825
 8364TIP3    H246508   0.325   4.954   5.816 -1.6667  0.1085 -0.5018
 8365TIP3   OH246509   2.595   1.687  11.037  0.3242  0.0529  0.5449
 8365TIP3    H146510   2.521   1.739  11.005 -0.5691 -1.0436  0.7642
 8365TIP3    H246511   2.651   1.677  10.960  0.4277  1.1722  0.4561
 8366TIP3   OH246512   4.285   0.611  14.701 -0.1211  0.5039 -0.5583
 8366TIP3    H146513   4.201   0.632  14.742 -0.7791  0.6891 -1.9672
 8366TIP3    H246514   4.267   0.533  14.648  1.1467 -0.8141  0.8502
 8367TIP3   OH246515   5.014   4.589   3.665  0.1961 -0.0001  0.1917
 8367TIP3    H146516   5.073   4.517   3.689 -0.2977  0.6536  4.1067
 8367TIP3    H246517   4.932   4.546   3.641  0.7211 -0.7698 -0.2831
 8368TIP3   OH246518   3.054   6.092  15.592  0.6802 -0.5675 -0.1767
 8368TIP3    H146519   3.094   6.155  15.652  0.2718 -1.2763  0.8776
 8368TIP3    H246520   3.127   6.036  15.565  0.8224 -0.3914 -0.1652
 8369TIP3   OH246521   5.257   3.402   3.428  0.4586 -0.3568  0.1361
 8369TIP3    H146522   5.294   3.443   3.506 -0.0594 -0.0501  0.2250
 8369TIP3    H246523   5.258   3.308   3.448  3.0056 -0.5885 -0.6457
 8370TIP3   OH246524   1.575   5.476   2.423 -0.4903  0.2881 -0.0488
 8370TIP3    H146525   1.562   5.540   2.494 -1.3777  0.5367 -0.4197
 8370TIP3    H246526   1.532   5.516   2.347 -0.9615 -0.6966 -0.3127
 8371TIP3   OH246527   5.275   3.284   4.553  0.3430 -0.5313  0.2278
 8371TIP3    H146528   5.253   3.353   4.490  0.6255  0.1852  0.8936
 8371TIP3    H246529   5.369   3.270   4.543  0.5520  0.1784  1.0461
 8372TIP3   OH246530   2.323   6.105   2.792 -0.5286  0.0552 -0.1533
 8372TIP3    H146531   2.340   6.199   2.789  0.2828 -0.1007 -1.3114
 8372TIP3    H246532   2.245   6.096   2.846 -0.2597  1.3381  0.4785
 8373TIP3   OH246533   0.451   1.243   3.143  0.4061  0.9275 -0.7107
 8373TIP3    H146534   0.424   1.327   3.179 -0.1431  0.5760 -0.2898
 8373TIP3    H246535   0.422   1.178   3.207  0.7726  0.4090 -1.0538
 8374TIP3   OH246536   6.270   4.845   4.817 -0.0275  0.3186 -0.1269
 8374TIP3    H146537   6.226   4.844   4.903  0.3345 -0.1583  0.0587
 8374TIP3    H246538   6.359   4.875   4.837 -0.1306  0.8271 -0.4324
 8375TIP3   OH246539   6.728   6.536   1.429  0.0767 -0.1095  0.1672
 8375TIP3    H146540   6.798   6.579   1.478  0.7973 -0.3565 -0.6284
 8375TIP3    H246541   6.759   6.447   1.415 -0.0425 -0.0043 -0.8538
 8376TIP3   OH246542   5.937   6.768  14.619 -0.2399 -0.1297  0.7143
 8376TIP3    H146543   5.996   6.694  14.602  0.0623  0.1802  0.4168
 8376TIP3    H246544   5.984   6.821  14.683 -0.7711 -0.5647  1.4819
 8377TIP3   OH246545   0.522   2.949   4.798 -0.4073  0.0267 -0.0703
 8377TIP3    H146546   0.439   2.990   4.821 -0.8163 -0.8375  0.0235
 8377TIP3    H246547   0.498   2.874   4.744  0.1703 -1.3193  1.4625
 8378TIP3   OH246548   0.300   4.010  14.482 -0.5044 -0.5226 -0.6086
 8378TIP3    H146549   0.242   4.034  14.555  1.1600  0.2188  0.5414
 8378TIP3    H246550   0.330   3.922  14.503  1.5599  0.4169  0.7838
 8379TIP3   OH246551   4.278   4.190   2.116  0.9632  0.2085  0.3431
 8379TIP3    H146552   4.237   4.104   2.127 -0.2885  0.8677  1.0841
 8379TIP3    H246553   4.248   4.240   2.192 -0.2940  2.0373 -1.2659
 8380TIP3   OH246554   1.828   3.867  16.598  0.3724 -0.1795 -0.0050
 8380TIP3    H146555   1.772   3.895  16.671  0.3160 -0.5812  0.1080
 8380TIP3    H246556   1.874   3.790  16.632  0.9659  0.1264 -0.1097
 8381TIP3   OH246557   3.231   4.915   3.125  0.3544  0.7346 -0.0830
 8381TIP3    H146558   3.162   4.954   3.179  0.6579  2.0075 -0.5729
 8381TIP3    H246559   3.311   4.929   3.176  0.2719 -0.8159  0.5243
 8382TIP3   OH246560   5.361   2.492  11.430  0.2924 -0.0839  0.4950
 8382TIP3    H146561   5.405   2.421  11.382  1.6938 -0.8267  2.7614
 8382TIP3    H246562   5.291   2.448  11.478  0.2997  0.2872  0.8470
 8383TIP3   OH246563   2.025   0.272  13.776  0.2070 -0.0968 -0.3355
 8383TIP3    H146564   1.945   0.234  13.738 -1.0356  1.9983  0.0234
 8383TIP3    H246565   2.005   0.281  13.869  0.4047  1.4454 -0.4162
 8384TIP3   OH246566   3.780   3.928   4.275 -0.7264 -0.0499  0.0216
 8384TIP3    H146567   3.869   3.932   4.241 -0.5173 -1.1283  0.4018
 8384TIP3    H246568   3.766   4.014   4.315 -0.8528  1.1475 -2.3877
 8385TIP3   OH246569   2.396   1.279   1.071  0.3066  0.0427 -0.5128
 8385TIP3    H146570   2.424   1.309   0.984  1.0868 -0.3026 -0.3928
 8385TIP3    H246571   2.478   1.259   1.116 -0.1154 -0.2278  0.1437
 8386TIP3   OH246572   2.983   5.988   2.851 -0.1892 -0.5097  0.5061
 8386TIP3    H146573   3.018   6.013   2.766  0.4372 -0.0482  0.8868
 8386TIP3    H246574   3.017   5.901   2.867  2.6320  0.7081  1.8001
 8387TIP3   OH246575   2.755   6.292   0.745  0.0760  0.2071  0.2873
 8387TIP3    H146576   2.849   6.286   0.765  0.4033 -2.4872 -1.6012
 8387TIP3    H246577   2.715   6.220   0.793 -0.8536  0.5548  0.0574
 8388TIP3   OH246578   1.821   1.870  12.023  0.0756  0.3682 -0.0948
 8388TIP3    H146579   1.911   1.893  12.000  0.0667 -2.0325 -3.0656
 8388TIP3    H246580   1.767   1.929  11.970 -0.0819  0.2298 -0.0886
 8389TIP3   OH246581   0.940   3.302  14.572  0.2443  0.4187 -0.9478
 8389TIP3    H146582   1.009   3.360  14.604  0.2075  0.6461 -1.2698
 8389TIP3    H246583   0.946   3.224  14.627 -0.9376  1.4629  0.7926
 8390TIP3   OH246584   2.263   5.200   2.122 -0.2177  0.2263 -0.1219
 8390TIP3    H146585   2.287   5.250   2.200  0.2607  1.7729 -1.2060
 8390TIP3    H246586   2.234   5.115   2.155  1.8101  0.1330  1.6234
 8391TIP3   OH246587   6.609   6.283   0.097 -0.0963 -0.0125 -0.3118
 8391TIP3    H146588   6.569   6.361   0.059  0.1158  0.5256  0.5516
 8391TIP3    H246589   6.686   6.266   0.042  1.3281  1.9080  0.9629
 8392TIP3   OH246590   2.827   0.322  12.525  0.5819  0.2709  0.0652
 8392TIP3    H146591   2.868   0.324  12.611  0.2137 -2.1475  0.3754
 8392TIP3    H246592   2.733   0.323  12.543  0.5018  0.1565 -0.3239
 8393TIP3   OH246593   0.167   3.272   0.726  0.0355  0.4081 -0.1691
 8393TIP3    H146594   0.129   3.240   0.807 -3.3873  0.9770 -1.3784
 8393TIP3    H246595   0.152   3.201   0.663  0.5510  0.8718 -0.8293
 8394TIP3   OH246596   1.929   0.896   1.294 -0.3655 -0.0635  0.6224
 8394TIP3    H146597   1.853   0.845   1.321 -0.6174 -0.1231 -0.1806
 8394TIP3    H246598   1.898   0.986   1.290 -0.5933 -0.1787 -0.3983
 8395TIP3   OH246599   6.663   3.344  12.409  0.2073  0.0918 -0.3327
 8395TIP3    H146600   6.618   3.315  12.488  2.6168 -0.4326  0.9602
 8395TIP3    H246601   6.715   3.419  12.437  1.6183 -0.5066 -1.2167
 8396TIP3   OH246602   3.076   4.993   2.902 -0.5010  0.2026  0.4381
 8396TIP3    H146603   3.005   4.996   2.966 -0.4518  1.6959  0.4437
 8396TIP3    H246604   3.154   4.973   2.954 -1.1150 -3.9518  0.1761
 8397TIP3   OH246605   0.672   2.415   3.542  0.5808 -0.1926  0.4284
 8397TIP3    H146606   0.597   2.434   3.485  1.6823  0.8576 -0.7238
 8397TIP3    H246607   0.708   2.333   3.507  0.8135  0.0556  0.0871
 8398TIP3   OH246608   1.849   4.168   2.344 -0.2306  0.3070  0.6533
 8398TIP3    H146609   1.790   4.147   2.416 -0.4745  1.4833  0.8198
 8398TIP3    H246610   1.936   4.143   2.376 -0.3205  0.9221  1.4225
 8399TIP3   OH246611   2.373   2.646   3.940 -0.1962 -0.3988  0.4522
 8399TIP3    H146612   2.315   2.603   3.876  1.2836  0.2263 -1.4320
 8399TIP3    H246613   2.460   2.634   3.903  0.4052  3.4236  0.2317
 8400TIP3   OH246614   2.401   0.584  13.211  0.8817 -0.1343 -0.2709
 8400TIP3    H146615   2.495   0.567  13.219  0.1814 -4.1853  2.7348
 8400TIP3    H246616   2.381   0.640  13.286  0.6508 -1.0170  0.3409
 8401TIP3   OH246617   1.993   3.412  12.306 -0.0051 -0.1063  0.0651
 8401TIP3    H146618   2.038   3.408  12.222  2.6818 -0.6025  1.4409
 8401TIP3    H246619   1.963   3.503  12.312 -0.2480 -0.0531 -1.3903
 8402TIP3   OH246620   3.911   6.502  12.807 -0.0128 -0.5301  0.3577
 8402TIP3    H146621   3.823   6.527  12.837  0.0530 -0.7213  0.7195
 8402TIP3    H246622   3.922   6.548  12.724 -0.7450 -1.0978 -0.0659
 8403TIP3   OH246623   3.869   0.161  13.500 -0.4311 -0.0477  0.4997
 8403TIP3    H146624   3.923   0.082  13.506  0.6305  0.5326 -0.8787
 8403TIP3    H246625   3.925   0.231  13.532 -0.9335  0.3415  0.5377
 8404TIP3   OH246626   1.744   4.141   6.480  0.3458  0.4204  0.1338
 8404TIP3    H146627   1.813   4.182   6.532 -0.1696 -1.3657  2.3685
 8404TIP3    H246628   1.790   4.075   6.428  0.3834 -0.8350  1.6945
 8405TIP3   OH246629   1.125   0.927   2.556 -0.3609 -0.0908 -0.1655
 8405TIP3    H146630   1.074   0.946   2.635 -1.6184 -0.4994 -0.8560
 8405TIP3    H246631   1.210   0.897   2.589 -0.5367  0.6279  1.0080
 8406TIP3   OH246632   3.845   1.348   4.934  0.1390  0.1849  0.0530
 8406TIP3    H146633   3.838   1.401   5.014  1.1480  0.0698  0.2375
 8406TIP3    H246634   3.939   1.331   4.926 -0.1110 -1.0636 -0.3465
 8407TIP3   OH246635   5.306   1.933  14.154 -0.7619  0.1791  0.1949
 8407TIP3    H146636   5.291   1.840  14.171  0.4041  0.0445  0.5912
 8407TIP3    H246637   5.236   1.958  14.094  0.4720 -1.6178 -2.1162
 8408TIP3   OH246638   6.450   2.252  14.838  0.0678  0.1449 -0.2857
 8408TIP3    H146639   6.482   2.177  14.888  3.5067  1.6388 -0.0149
 8408TIP3    H246640   6.354   2.242  14.839  0.2511 -2.6373  2.1717
 8409TIP3   OH246641   0.584   6.755  13.409  0.1807  0.1528 -0.1499
 8409TIP3    H146642   0.496   6.759  13.373  0.2937 -0.5931 -0.5420
 8409TIP3    H246643   0.602   6.661  13.417  0.1816  0.2595  1.8040
 8410TIP3   OH246644   4.032   4.033   0.909 -0.0856 -0.2745 -0.1765
 8410TIP3    H146645   4.009   4.110   0.857 -2.6898 -1.1794 -0.5018
 8410TIP3    H246646   4.028   4.063   1.000 -1.2260 -0.0110 -0.2970
 8411TIP3   OH246647   1.065   4.377  13.925 -0.6973  0.5130  0.1345
 8411TIP3    H146648   1.040   4.327  13.847 -1.5703  0.2248  0.5894
 8411TIP3    H246649   1.014   4.338  13.996  0.5560  0.3451  0.9809
 8412TIP3   OH246650   6.400   4.243   4.197  0.1038 -0.0346  0.3546
 8412TIP3    H146651   6.467   4.209   4.138 -1.2827  0.9537 -1.9529
 8412TIP3    H246652   6.320   4.243   4.144 -1.5313 -0.2667  2.6856
 8413TIP3   OH246653   1.501   2.339   1.411  0.2711  0.7681 -0.6177
 8413TIP3    H146654   1.520   2.245   1.404 -0.0830  0.6776 -0.3935
 8413TIP3    H246655   1.409   2.346   1.385 -1.2009  0.4042  3.7386
 8414TIP3   OH246656   0.148   0.733  14.559 -0.1233  0.1164 -0.3413
 8414TIP3    H146657   0.133   0.651  14.512 -3.1000 -0.2954  1.1297
 8414TIP3    H246658   0.154   0.707  14.651 -1.5874  1.5323  0.2007
 8415TIP3   OH246659   1.952   5.214  15.723  0.8921  0.2970 -0.5524
 8415TIP3    H146660   1.983   5.247  15.807 -0.5891  2.0599 -0.6307
 8415TIP3    H246661   1.897   5.140  15.745  0.1738  1.0058  0.0967
 8416TIP3   OH246662   3.469   5.932   4.709  0.3505 -0.2400 -0.6055
 8416TIP3    H146663   3.537   5.925   4.776 -1.1005 -1.1978  0.8389
 8416TIP3    H246664   3.480   6.020   4.673  3.1973 -0.8269 -1.4410
 8417TIP3   OH246665   5.565   3.319   3.489 -0.1792  0.1031 -0.2774
 8417TIP3    H146666   5.641   3.276   3.527  0.4978  0.4181 -1.2636
 8417TIP3    H246667   5.528   3.255   3.428 -1.8617 -0.7958  1.5528
 8418TIP3   OH246668   0.643   5.430  13.591 -0.4599 -0.3463  0.3137
 8418TIP3    H146669   0.668   5.369  13.660 -0.9369 -1.1236 -0.1837
 8418TIP3    H246670   0.682   5.514  13.617  0.0988 -0.8310  1.0667
 8419TIP3   OH246671   4.619   1.526  13.714  0.4004  0.3150  0.0399
 8419TIP3    H146672   4.644   1.467  13.785 -0.3787  0.2913  0.3049
 8419TIP3    H246673   4.532   1.558  13.738  1.2892  2.5717  0.5513
 8420TIP3   OH246674   6.542   4.214   4.416 -0.3267 -0.5502 -0.5285
 8420TIP3    H146675   6.470   4.210   4.353 -0.3289 -1.5775 -0.4729
 8420TIP3    H246676   6.503   4.185   4.499  0.0081 -0.5362 -0.3630
 8421TIP3   OH246677   4.116   3.225   3.547 -0.5891  0.1434 -0.2459
 8421TIP3    H146678   4.195   3.171   3.549 -1.7608 -1.6687  1.1957
 8421TIP3    H246679   4.115   3.269   3.632 -1.9252 -1.1813  0.4740
 8422TIP3   OH246680   6.437   0.257  16.770 -0.3135 -0.2494  0.0361
 8422TIP3    H146681   6.500   0.204  16.819 -0.8505 -1.7191 -0.8158
 8422TIP3    H246682   6.458   0.347  16.795  0.9290 -0.8110  1.1658
 8423TIP3   OH246683   4.925   4.213   1.782 -0.2751  0.4615 -0.4332
 8423TIP3    H146684   4.908   4.129   1.739  1.1970 -0.2465  0.2884
 8423TIP3    H246685   4.980   4.190   1.857  0.1888  2.0931 -0.2443
 8424TIP3   OH246686   4.610   1.490  13.449 -0.4878  0.5109 -0.6165
 8424TIP3    H146687   4.699   1.503  13.418 -0.0898  0.8272  0.6052
 8424TIP3    H246688   4.619   1.481  13.544 -1.6732 -0.2235 -0.5563
 8425TIP3   OH246689   2.474   4.415   2.604  0.6380  0.6195  0.4367
 8425TIP3    H146690   2.404   4.470   2.570  0.7286  1.5017  1.6132
 8425TIP3    H246691   2.534   4.405   2.530 -0.9633 -0.6299 -0.7665
 8426TIP3   OH246692   1.067   6.672   2.884  0.0934  0.1531 -0.3378
 8426TIP3    H146693   1.162   6.675   2.868  0.3275  0.4743  1.0012
 8426TIP3    H246694   1.047   6.755   2.927 -0.1988 -1.1638  2.2555
 8427TIP3   OH246695   2.208   5.996  11.819 -0.5468 -0.5340 -0.5126
 8427TIP3    H146696   2.141   6.029  11.759 -0.9016 -2.5889 -1.3612
 8427TIP3    H246697   2.260   5.936  11.765  2.0934  1.0481  0.0965
 8428TIP3   OH246698   6.078   2.207  15.988 -0.0598 -0.2287 -0.1723
 8428TIP3    H146699   6.034   2.242  16.066 -2.0639 -2.9693  0.0350
 8428TIP3    H246700   6.040   2.121  15.975  1.0013 -0.3194 -3.6055
 8429TIP3   OH246701   2.247   3.068   0.827 -0.3313  0.5457  0.4469
 8429TIP3    H146702   2.158   3.066   0.865  0.2676 -0.7127  1.8968
 8429TIP3    H246703   2.276   3.158   0.840 -0.8059  0.5703  1.4773
 8430TIP3   OH246704   0.643   4.640   2.584 -0.1043 -0.1724 -0.1824
 8430TIP3    H146705   0.628   4.732   2.561 -0.0105  0.0731  0.7286
 8430TIP3    H246706   0.691   4.643   2.667 -0.9884 -1.0621  0.3766
 8431TIP3   OH246707   3.611   3.946   4.077  0.3265  0.3242  0.3093
 8431TIP3    H146708   3.567   3.867   4.046 -2.0379  1.6395  0.0925
 8431TIP3    H246709   3.661   3.917   4.154 -0.8744 -1.2896  0.5267
 8432TIP3   OH246710   5.996   0.169   1.940  0.1214  0.0238  0.2216
 8432TIP3    H146711   5.951   0.194   1.859  0.4614  0.1686  0.0773
 8432TIP3    H246712   6.032   0.251   1.974 -0.2111  0.0029  0.6420
 8433TIP3   OH246713   3.843   2.193  15.179  0.6694  0.2733  0.1244
 8433TIP3    H146714   3.758   2.163  15.209 -0.2707  1.1063 -1.5987
 8433TIP3    H246715   3.890   2.215  15.260 -1.1125  0.7955  1.0752
 8434TIP3   OH246716   4.195   2.695   0.930  0.2466  0.1383 -0.2911
 8434TIP3    H146717   4.217   2.733   0.845 -0.2101 -2.1128 -1.4748
 8434TIP3    H246718   4.279   2.674   0.970  0.4525 -1.0078 -1.2743
 8435TIP3   OH246719   3.676   1.757  12.238 -0.7175  0.0869  0.6475
 8435TIP3    H146720   3.700   1.682  12.293  1.6070  0.2243 -0.0439
 8435TIP3    H246721   3.690   1.727  12.149  0.9345  1.4562  0.3643
 8436TIP3   OH246722   1.940   2.288   3.575 -0.0229  0.2654 -0.3356
 8436TIP3    H146723   2.034   2.295   3.558  0.3573 -0.2050  1.4257
 8436TIP3    H246724   1.915   2.375   3.608 -0.3658  0.5839 -1.3746
 8437TIP3   OH246725   4.357   0.762   2.074  0.1280 -0.3241 -0.0346
 8437TIP3    H146726   4.354   0.764   1.979  3.1330  0.9415 -0.2330
 8437TIP3    H246727   4.344   0.853   2.100 -1.4829 -0.7714  0.8821
 8438TIP3   OH246728   6.167   6.693   1.079 -0.5119  0.3629 -0.9690
 8438TIP3    H146729   6.183   6.735   1.164 -1.9632  0.7093 -0.8431
 8438TIP3    H246730   6.197   6.603   1.092  1.4943  1.0000 -0.8599
 8439TIP3   OH246731   0.806   3.734  11.137 -0.0918  0.5822  0.4869
 8439TIP3    H146732   0.824   3.661  11.078  0.4429 -0.1718  1.5474
 8439TIP3    H246733   0.892   3.776  11.150 -0.4790  1.7629 -0.5438
 8440TIP3   OH246734   1.719   4.170   5.419  0.5891  0.6436  0.1680
 8440TIP3    H146735   1.783   4.099   5.419  0.1102  0.2030  0.2840
 8440TIP3    H246736   1.770   4.249   5.437  1.3119  0.4922 -1.0942
 8441TIP3   OH246737   0.634   0.928   2.976  0.2456 -0.2042 -0.1248
 8441TIP3    H146738   0.624   0.863   3.046  1.6688  0.5087  0.7789
 8441TIP3    H246739   0.548   0.969   2.970  0.2750  0.2632  1.7843
 8442TIP3   OH246740   6.648   4.912  11.926 -0.0596  0.2309  0.3753
 8442TIP3    H146741   6.650   4.817  11.914  1.1489  0.3040 -0.1444
 8442TIP3    H246742   6.636   4.947  11.838  1.3148  0.5857  0.3039
 8443TIP3   OH246743   3.235   4.586   5.248  0.3729  0.1993  0.0348
 8443TIP3    H146744   3.318   4.606   5.206  1.0773  0.7594  1.5948
 8443TIP3    H246745   3.172   4.646   5.207  0.1237 -1.9285 -2.9334
 8444TIP3   OH246746   3.611   6.396  15.633  1.1133  0.4746 -0.1807
 8444TIP3    H146747   3.665   6.416  15.709 -0.5723  0.5106  1.0805
 8444TIP3    H246748   3.583   6.306  15.647  0.1664  0.7338 -0.3408
 8445TIP3   OH246749   3.441   0.785   5.311  0.1705 -0.3775 -0.0502
 8445TIP3    H146750   3.528   0.825   5.310 -0.9565  2.3648 -1.3966
 8445TIP3    H246751   3.409   0.795   5.221 -1.4206 -1.5893  0.3396
 8446TIP3   OH246752   2.323   5.315   1.413  0.0723  1.3222  0.2162
 8446TIP3    H146753   2.269   5.259   1.356  0.9333 -0.6961  1.2982
 8446TIP3    H246754   2.387   5.355   1.353 -0.0575  0.5284 -0.4740
 8447TIP3   OH246755   1.680   1.319   0.777  0.3192  0.2863 -0.4025
 8447TIP3    H146756   1.702   1.405   0.742 -0.2169  2.2539  3.5197
 8447TIP3    H246757   1.746   1.304   0.845 -0.3013 -1.8853 -0.2199
 8448TIP3   OH246758   6.000   3.173  11.655 -0.5802  0.0265 -0.3708
 8448TIP3    H146759   5.957   3.227  11.722  1.9190  3.1134 -0.9969
 8448TIP3    H246760   6.043   3.104  11.704  0.8380  1.9624  1.2769
 8449TIP3   OH246761   0.681   0.198   5.172 -0.4743 -0.0915 -0.4262
 8449TIP3    H146762   0.640   0.276   5.210 -0.2804  0.1127 -0.6323
 8449TIP3    H246763   0.719   0.153   5.247  0.4793  0.6518 -0.4442
 8450TIP3   OH246764   6.440   5.234  15.492  0.2211  0.0478 -0.3382
 8450TIP3    H146765   6.355   5.243  15.535  1.2116  0.2413  1.7050
 8450TIP3    H246766   6.440   5.300  15.423 -0.8672  0.8033  0.3654
 8451TIP3   OH246767   3.844   3.188   1.556  0.3384 -0.5368  0.6241
 8451TIP3    H146768   3.834   3.233   1.472  0.7157 -0.6780  0.5012
 8451TIP3    H246769   3.864   3.097   1.532  2.1350 -0.2384  0.8287
 8452TIP3   OH246770   4.625   2.672   5.971 -0.2138  0.1610 -0.4302
 8452TIP3    H146771   4.621   2.762   6.003 -2.0236 -0.0186 -0.0482
 8452TIP3    H246772   4.701   2.634   6.016 -1.2203  0.6392  1.8066
 8453TIP3   OH246773   0.924   6.003   3.591 -0.1867 -0.4717 -0.2269
 8453TIP3    H146774   0.879   6.059   3.653  1.6517  0.3243  0.4734
 8453TIP3    H246775   0.885   5.917   3.603 -1.8922  0.2842 -0.1060
 8454TIP3   OH246776   6.553   5.781   2.515 -0.2415 -0.3730  0.0526
 8454TIP3    H146777   6.491   5.735   2.571 -2.7479  0.3611 -1.9209
 8454TIP3    H246778   6.561   5.725   2.438  1.5465 -0.3942  0.2028
 8455TIP3   OH246779   1.674   4.533   2.614  0.1198  0.0659  0.0829
 8455TIP3    H146780   1.746   4.559   2.556  1.3931  0.7568  1.8884
 8455TIP3    H246781   1.596   4.547   2.562  1.2175  0.4479 -1.5494
 8456TIP3   OH246782   3.921   6.477  11.779 -0.4689 -0.4733  0.2001
 8456TIP3    H146783   3.948   6.545  11.718  1.4367 -2.2043 -1.0068
 8456TIP3    H246784   3.988   6.409  11.772 -1.8995 -2.1981  1.8411
 8457TIP3   OH246785   5.113   2.509   5.264 -0.4352  0.4700  0.0753
 8457TIP3    H146786   5.029   2.528   5.222  0.0278 -1.2662 -1.7978
 8457TIP3    H246787   5.131   2.418   5.240 -0.2103 -0.8030  4.2744
 8458TIP3   OH246788   0.746   1.481   0.752  0.7001  0.0644 -0.0641
 8458TIP3    H146789   0.830   1.524   0.760  0.8624 -0.3619  0.6472
 8458TIP3    H246790   0.702   1.497   0.836  1.1321 -1.8568  0.5981
 8459TIP3   OH246791   2.540   2.176   0.168  0.3156 -0.4895  0.1613
 8459TIP3    H146792   2.484   2.114   0.215 -0.4314  0.7516  0.9663
 8459TIP3    H246793   2.512   2.262   0.199  0.0502  0.3901 -2.2909
 8460TIP3   OH246794   1.239   0.219  13.367 -0.1276 -0.1204  0.0098
 8460TIP3    H146795   1.157   0.216  13.317 -0.2186 -1.2182  0.1888
 8460TIP3    H246796   1.232   0.144  13.427  2.1821 -1.9561 -1.8189
 8461TIP3   OH246797   2.639   4.038   5.879  0.0146 -0.4208 -0.0343
 8461TIP3    H146798   2.638   4.014   5.787 -1.3584 -1.2315  0.1622
 8461TIP3    H246799   2.628   4.133   5.879  0.5518 -0.3533 -0.7076
 8462TIP3   OH246800   3.087   3.888  12.573  0.1842  0.0020  0.2197
 8462TIP3    H146801   3.080   3.892  12.668  0.0980  1.6562  0.1807
 8462TIP3    H246802   3.181   3.879  12.556  0.5753  2.7657  0.4713
 8463TIP3   OH246803   6.206   3.758   5.046 -0.3264  0.0278 -0.3712
 8463TIP3    H146804   6.257   3.756   4.966 -0.3486  0.8818 -0.4186
 8463TIP3    H246805   6.145   3.831   5.033  0.1708  0.6591  0.7129
 8464TIP3   OH246806   2.167   6.678   0.946  0.0862  0.5468 -0.9083
 8464TIP3    H146807   2.096   6.670   1.010  1.4268 -1.3937  0.4505
 8464TIP3    H246808   2.179   6.589   0.911  1.0732  1.0689 -1.9786
 8465TIP3   OH246809   4.293   0.692   3.776  0.2143  0.2438  0.5250
 8465TIP3    H146810   4.242   0.669   3.698 -0.9095 -2.1254  1.8407
 8465TIP3    H246811   4.323   0.782   3.760 -2.4136  0.8952 -1.3540
 8466TIP3   OH246812   5.854   1.793   2.556  0.2485  0.3988  0.0293
 8466TIP3    H146813   5.853   1.703   2.525  1.1386  0.7578 -1.1144
 8466TIP3    H246814   5.850   1.846   2.476 -0.8789  1.3825  0.7094
 8467TIP3   OH246815   5.005   1.264   5.584  0.3274  0.1206 -0.6466
 8467TIP3    H146816   4.952   1.238   5.659 -0.5158  0.7398 -1.0041
 8467TIP3    H246817   4.954   1.237   5.508  0.2623  1.1917 -0.9999
 8468TIP3   OH246818   4.927   4.652  10.495 -0.0883  0.7644 -0.4722
 8468TIP3    H146819   4.883   4.575  10.533  1.5121 -1.7959 -3.3997
 8468TIP3    H246820   5.006   4.662  10.548 -0.9814  1.3936  0.8162
 8469TIP3   OH246821   2.031   5.739   4.739 -0.4947  0.0383  0.0116
 8469TIP3    H146822   2.036   5.644   4.746 -2.8134 -0.0634  1.7066
 8469TIP3    H246823   1.943   5.757   4.705 -0.6906  1.5686  1.1839
 8470TIP3   OH246824   6.129   5.496  15.290 -0.3471  0.5311 -0.1052
 8470TIP3    H146825   6.075   5.479  15.368 -1.5035  0.1892 -0.9626
 8470TIP3    H246826   6.161   5.409  15.264  2.0645  0.8647  1.3443
 8471TIP3   OH246827   0.814   0.840   5.397  0.2574  0.0099 -0.4352
 8471TIP3    H146828   0.787   0.879   5.480 -0.0767  1.2488 -1.1069
 8471TIP3    H246829   0.907   0.859   5.391  0.2560  0.0293 -0.3972
 8472TIP3   OH246830   6.588   6.806  12.827  0.0793  0.1071 -0.4317
 8472TIP3    H146831   6.543   6.875  12.876  0.3965  0.2783 -0.3800
 8472TIP3    H246832   6.529   6.785  12.755  0.5621  1.3554 -1.2216
 8473TIP3   OH246833   4.350   1.274   2.315 -0.0537 -0.3761  0.5802
 8473TIP3    H146834   4.342   1.251   2.408 -1.4157 -0.2733  0.5184
 8473TIP3    H246835   4.279   1.336   2.300  1.1649  0.8810 -0.1647
 8474TIP3   OH246836   4.914   3.507  15.113 -0.0662 -0.1568 -0.1650
 8474TIP3    H146837   4.948   3.469  15.194 -1.6177 -0.0435  0.5643
 8474TIP3    H246838   4.968   3.584  15.098  1.7751 -1.4420 -0.5474
 8475TIP3   OH246839   0.232   4.787  12.677  0.7903  0.3653 -0.1238
 8475TIP3    H146840   0.184   4.801  12.759 -0.5376  0.1041 -0.8296
 8475TIP3    H246841   0.171   4.812  12.608  0.4770 -2.9107 -1.2139
 8476TIP3   OH246842   0.242   1.212  14.150  0.5594 -0.4738  0.0476
 8476TIP3    H146843   0.159   1.250  14.123  0.1201 -2.3656 -1.4450
 8476TIP3    H246844   0.256   1.245  14.239 -2.8419 -1.7239  1.1854
 8477TIP3   OH246845   5.561   0.712   4.490  0.5967 -0.5863  0.1128
 8477TIP3    H146846   5.552   0.733   4.583  1.3629  2.8221 -0.4606
 8477TIP3    H246847   5.477   0.671   4.467 -0.6479  0.8769  1.7475
 8478TIP3   OH246848   0.814   1.070   2.444 -0.3907  0.6738 -0.1752
 8478TIP3    H146849   0.883   1.070   2.379 -1.3043 -1.0589 -1.2431
 8478TIP3    H246850   0.841   1.003   2.508  0.1618  1.8685  0.8883
 8479TIP3   OH246851   5.519   3.242  12.798 -0.2707 -0.4242  0.3553
 8479TIP3    H146852   5.435   3.286  12.789 -0.1412 -0.3174 -0.4084
 8479TIP3    H246853   5.542   3.250  12.891 -0.9857 -0.2497  0.5153
 8480TIP3   OH246854   4.588   0.043  16.850  0.0686 -0.3311  0.3869
 8480TIP3    H146855   4.628   0.113  16.901 -0.0154 -1.0692  1.5167
 8480TIP3    H246856   4.507   0.080  16.817  1.6445  1.2337 -2.0265
 8481TIP3   OH246857   2.360   5.864  11.646  0.0510  0.0282  0.1446
 8481TIP3    H146858   2.449   5.896  11.632  0.1909 -0.6714 -0.6054
 8481TIP3    H246859   2.326   5.847  11.558 -1.6494  2.4084  0.2328
 8482TIP3   OH246860   4.895   2.116  12.944 -0.1721  0.7817 -0.4446
 8482TIP3    H146861   4.917   2.075  13.027  2.1964 -0.2249 -1.4625
 8482TIP3    H246862   4.853   2.199  12.968  1.0284  0.8212  1.7704
 8483TIP3   OH246863   5.113   6.804  15.254  0.1782 -0.5478  0.1906
 8483TIP3    H146864   5.160   6.720  15.246 -0.5729 -0.9436 -0.2243
 8483TIP3    H246865   5.178   6.865  15.289  0.9370 -1.1322 -0.1762
 8484TIP3   OH246866   0.811   0.735   4.253 -0.2113 -0.6048  0.0225
 8484TIP3    H146867   0.872   0.671   4.216  1.3014  1.5463 -1.4038
 8484TIP3    H246868   0.730   0.721   4.204 -0.4247 -2.3674  0.7773
 8485TIP3   OH246869   5.956   2.721  13.728 -0.0297 -0.2199 -0.8287
 8485TIP3    H146870   5.892   2.792  13.732 -0.9807 -1.1033  0.0011
 8485TIP3    H246871   6.000   2.734  13.644  2.0386  3.1965  0.5868
 8486TIP3   OH246872   2.885   2.169  12.004 -0.2729 -0.4473 -0.6497
 8486TIP3    H146873   2.799   2.183  11.963 -2.6112 -3.7056  2.4945
 8486TIP3    H246874   2.912   2.082  11.975  1.3130 -0.0444 -0.4606
 8487TIP3   OH246875   0.493   0.295   3.958 -0.4909 -1.0942  0.3101
 8487TIP3    H146876   0.553   0.244   4.012 -0.7464 -0.4578  1.2248
 8487TIP3    H246877   0.519   0.275   3.868  1.2719 -0.6183  0.6773
 8488TIP3   OH246878   2.088   0.621   2.950 -0.2713  0.2712  0.3372
 8488TIP3    H146879   2.172   0.595   2.987  1.0148  2.3015 -0.9828
 8488TIP3    H246880   2.099   0.713   2.926 -2.5484  0.3328 -0.7709
 8489TIP3   OH246881   5.849   4.438  15.533  0.3319 -0.3536  0.4929
 8489TIP3    H146882   5.822   4.380  15.604 -0.8987 -1.6332 -0.9249
 8489TIP3    H246883   5.812   4.397  15.454  0.5625  1.6638 -0.7361
 8490TIP3   OH246884   0.095   1.873  16.122  0.7093  0.5836  0.1019
 8490TIP3    H146885   0.190   1.870  16.117  0.6772  0.7311 -0.6527
 8490TIP3    H246886   0.074   1.825  16.202  1.3387 -0.6862 -0.4746
 8491TIP3   OH246887   2.406   0.541   5.485  0.0199 -0.3222 -0.1148
 8491TIP3    H146888   2.442   0.629   5.483 -0.2639 -0.1818  0.5096
 8491TIP3    H246889   2.355   0.538   5.567 -1.0752 -0.6328 -0.7840
 8492TIP3   OH246890   5.909   0.730  14.076  0.0922  0.2158  0.1772
 8492TIP3    H146891   5.856   0.753  14.000 -1.5509 -0.6861  0.9780
 8492TIP3    H246892   5.877   0.787  14.146  2.6234  2.1145 -0.0889
 8493TIP3   OH246893   6.225   5.339   0.976 -0.0513  0.2753  0.3342
 8493TIP3    H146894   6.140   5.297   0.975 -1.3052  2.5388  1.9619
 8493TIP3    H246895   6.232   5.383   0.891 -1.1180  1.1187  0.6646
 8494TIP3   OH246896   5.072   3.646  13.966  0.5279 -0.2066 -0.0164
 8494TIP3    H146897   5.014   3.715  13.998  1.8730  1.8899 -1.7988
 8494TIP3    H246898   5.150   3.652  14.021  0.0048 -1.4842  0.9027
 8495TIP3   OH246899   0.085   3.715  16.204 -0.0553  0.3135  0.0964
 8495TIP3    H146900   0.152   3.650  16.181  0.2006  0.7963 -0.5314
 8495TIP3    H246901   0.134   3.795  16.224 -0.4248  0.5724 -0.0250
 8496TIP3   OH246902   2.320   5.177   6.546 -0.0676 -0.0384 -0.1376
 8496TIP3    H146903   2.368   5.110   6.594 -0.1912  0.0940  0.1694
 8496TIP3    H246904   2.298   5.136   6.462 -1.5698 -0.9480  0.6761
 8497TIP3   OH246905   0.544   0.306   3.678  0.3311  0.5311 -0.0578
 8497TIP3    H146906   0.520   0.243   3.611  0.7696  0.2858  0.0107
 8497TIP3    H246907   0.632   0.334   3.654 -0.0518  1.5084 -0.3789
 8498TIP3   OH246908   1.881   3.687  15.689 -0.0440 -0.1047  0.5365
 8498TIP3    H146909   1.960   3.644  15.658 -0.2344 -0.4604  0.5373
 8498TIP3    H246910   1.904   3.721  15.775 -0.3153 -1.4989  1.1990
 8499TIP3   OH246911   5.027   3.293   4.720 -0.4823 -0.1225 -0.3611
 8499TIP3    H146912   4.963   3.276   4.790 -0.5963  1.0644 -0.1552
 8499TIP3    H246913   5.091   3.223   4.729 -0.7823 -0.2886  0.6035
 8500TIP3   OH246914   6.037   5.355   3.082  0.1851  0.0335  0.4887
 8500TIP3    H146915   6.117   5.365   3.030 -0.9066  1.6297 -1.0005
 8500TIP3    H246916   6.067   5.347   3.172  2.0460 -0.3081 -0.1215
 8501TIP3   OH246917   1.403   1.240   6.470 -0.1509  0.3775  0.4486
 8501TIP3    H146918   1.317   1.268   6.437 -0.0070  2.4069  1.6221
 8501TIP3    H246919   1.466   1.280   6.410  0.0150  0.9812  1.0124
 8502TIP3   OH246920   1.218   2.442  12.417  0.2230 -0.1152 -0.2682
 8502TIP3    H146921   1.191   2.380  12.350  0.2112 -0.3282 -0.0697
 8502TIP3    H246922   1.172   2.524  12.395  0.2926 -0.1574 -0.5691
 8503TIP3   OH246923   3.257   0.889  13.299 -0.7062  0.5404  0.5059
 8503TIP3    H146924   3.240   0.795  13.314  0.8917  0.0948 -0.2785
 8503TIP3    H246925   3.207   0.933  13.368  0.1068 -0.9985  2.1566
 8504TIP3   OH246926   4.854   2.890  15.322  0.2989  0.1491  0.5259
 8504TIP3    H146927   4.921   2.944  15.363  1.0210 -0.0107 -0.4084
 8504TIP3    H246928   4.889   2.870  15.235  0.4804 -2.5806  1.1183
 8505TIP3   OH246929   1.650   4.171  11.414  0.0946  0.2029  0.3555
 8505TIP3    H146930   1.682   4.210  11.333 -1.5446 -1.2909 -1.0896
 8505TIP3    H246931   1.651   4.077  11.397 -0.7835 -0.1088  1.8738
 8506TIP3   OH246932   0.732   1.104  11.239 -0.2595 -0.2053 -0.1198
 8506TIP3    H146933   0.827   1.111  11.242 -0.0427 -2.3553 -0.4082
 8506TIP3    H246934   0.706   1.090  11.330 -0.0726 -1.5746 -0.2565
 8507TIP3   OH246935   6.074   5.189   1.675 -0.4510  0.0903 -0.3798
 8507TIP3    H146936   6.145   5.163   1.734  0.1696  0.8578 -0.7674
 8507TIP3    H246937   6.054   5.279   1.699 -0.8773  0.0852 -0.6905
 8508TIP3   OH246938   0.709   0.116   0.685 -0.3934 -0.4470 -0.0189
 8508TIP3    H146939   0.741   0.079   0.767 -0.8986 -0.6983  0.0698
 8508TIP3    H246940   0.659   0.045   0.644  0.0360 -0.3925 -0.6474
 8509TIP3   OH246941   6.759   0.969   0.872 -0.3764  0.0554  0.1086
 8509TIP3    H146942   6.688   0.959   0.936 -1.7249 -2.5821 -1.6222
 8509TIP3    H246943   6.834   0.926   0.914 -0.9273 -0.6545  0.3831
 8510TIP3   OH246944   6.533   6.326  15.207 -0.3077  0.1560  0.2926
 8510TIP3    H146945   6.625   6.329  15.234  0.2219  1.2187 -1.4649
 8510TIP3    H246946   6.488   6.384  15.269  0.2520 -0.0959  0.9502
 8511TIP3   OH246947   5.627   4.577   4.482  0.5066  0.2955 -0.2912
 8511TIP3    H146948   5.651   4.490   4.512 -0.7379  0.4644  1.3512
 8511TIP3    H246949   5.547   4.564   4.431  0.7642  0.3951 -0.7272
 8512TIP3   OH246950   2.935   6.514   0.390 -0.9526  0.6637  0.0915
 8512TIP3    H146951   2.943   6.608   0.370 -3.1350  1.0832  0.8900
 8512TIP3    H246952   2.989   6.471   0.324 -0.3257  2.4572 -0.6363
 8513TIP3   OH246953   2.828   6.614   5.368  0.4832  0.6019  0.2061
 8513TIP3    H146954   2.847   6.532   5.413  0.6426  0.3506 -0.3098
 8513TIP3    H246955   2.910   6.636   5.323  0.2481  0.7071 -0.1728
 8514TIP3   OH246956   3.275   3.020   4.788 -0.3811  0.2734 -0.2132
 8514TIP3    H146957   3.327   3.077   4.732  1.9170 -0.6470  0.8631
 8514TIP3    H246958   3.333   2.998   4.860 -1.8513 -1.8674  0.4085
 8515TIP3   OH246959   2.555   5.028   2.281  0.0387 -0.1006  1.3211
 8515TIP3    H146960   2.595   5.109   2.313  0.6474 -0.3506  1.2004
 8515TIP3    H246961   2.477   5.017   2.335 -0.5947  1.0816  0.7042
 8516TIP3   OH246962   5.311   0.102   4.948 -0.1976  0.0074  0.2577
 8516TIP3    H146963   5.371   0.111   5.021 -2.8470  1.4014  2.4475
 8516TIP3    H246964   5.292   0.008   4.944 -0.6835  0.0027  1.9986
 8517TIP3   OH246965   1.227   2.684   3.031 -0.5687  0.1095  0.0099
 8517TIP3    H146966   1.230   2.696   2.936 -1.2588 -0.3391 -0.0775
 8517TIP3    H246967   1.307   2.636   3.052  0.6124  1.9508 -0.0563
 8518TIP3   OH246968   4.232   4.641  13.041  0.0075  0.5452 -0.0182
 8518TIP3    H146969   4.304   4.700  13.022  0.3878  0.2156  0.3867
 8518TIP3    H246970   4.160   4.698  13.068  0.3082  0.8340  0.1693
 8519TIP3   OH246971   4.344   1.342  12.130  0.6710  0.1522  0.1955
 8519TIP3    H146972   4.395   1.264  12.111  0.9134  0.0745  1.1171
 8519TIP3    H246973   4.260   1.309  12.162  0.3842  0.2797 -0.4027
 8520TIP3   OH246974   5.892   1.949  15.992 -0.1358 -0.2127  0.5434
 8520TIP3    H146975   5.851   1.884  15.936 -0.8325 -0.0796  0.8895
 8520TIP3    H246976   5.820   2.008  16.018  0.3055  0.1407  0.9935
 8521TIP3   OH246977   5.292   4.420   0.909 -0.0292 -0.3869 -0.3053
 8521TIP3    H146978   5.305   4.428   0.814 -2.5311 -2.5203 -0.9736
 8521TIP3    H246979   5.336   4.338   0.932  1.1417  0.4537  0.5762
 8522TIP3   OH246980   4.727   5.866  14.210 -0.1181  0.0952  0.3963
 8522TIP3    H146981   4.693   5.777  14.221  0.2189 -0.3196 -1.6120
 8522TIP3    H246982   4.659   5.911  14.159  1.2483 -0.0568 -1.6228
 8523TIP3   OH246983   0.001   4.273  14.268 -0.2452  0.0187 -0.1230
 8523TIP3    H146984   0.035   4.362  14.274  0.4111 -0.0653 -2.0496
 8523TIP3    H246985  -0.058   4.275  14.192  0.3438 -1.3473 -0.6351
 8524TIP3   OH246986   5.345   1.409   4.763  0.1041  0.1994  0.0870
 8524TIP3    H146987   5.296   1.350   4.821  0.0162  1.3115  1.2051
 8524TIP3    H246988   5.333   1.496   4.803 -0.6920  1.1600 -2.1005
 8525TIP3   OH246989   5.320   3.700  15.571  0.5139 -0.5055 -0.1125
 8525TIP3    H146990   5.290   3.737  15.488  0.6374 -0.0668  0.0381
 8525TIP3    H246991   5.337   3.776  15.627 -1.9217 -0.7682  1.1541
 8526TIP3   OH246992   4.342   6.462   5.207  0.9580  0.1363  0.2930
 8526TIP3    H146993   4.316   6.521   5.137 -1.3175  1.0419  1.7964
 8526TIP3    H246994   4.342   6.375   5.166 -1.9720  0.4138 -0.5291
 8527TIP3   OH246995   1.450   1.961   3.551  0.2838 -0.4615  0.2523
 8527TIP3    H146996   1.428   1.971   3.644 -0.6891  0.1007 -0.0260
 8527TIP3    H246997   1.525   2.019   3.538  0.2799 -0.3671  0.6285
 8528TIP3   OH246998   1.437   3.135   4.586 -0.5183  0.0461  0.5118
 8528TIP3    H146999   1.423   3.058   4.642  0.1407  0.4185  1.2116
 8528TIP3    H247000   1.406   3.107   4.500  0.4980 -1.3295  0.5414
 8529TIP3   OH247001   1.366   1.501   4.212  0.1754  0.1355 -0.3909
 8529TIP3    H147002   1.453   1.529   4.182 -0.2417  1.4859 -0.4191
 8529TIP3    H247003   1.325   1.463   4.135 -0.4894  2.6034 -1.3552
 8530TIP3   OH247004   1.824   6.020   1.037 -0.6825  0.4473  0.4354
 8530TIP3    H147005   1.780   6.002   1.120  0.4422 -2.3620  0.5271
 8530TIP3    H247006   1.916   6.004   1.055 -0.0418  2.5739 -0.6933
 8531TIP3   OH247007   1.168   6.794   4.613 -0.4253  0.3625  0.8042
 8531TIP3    H147008   1.108   6.755   4.549  0.8738  0.3305 -0.4447
 8531TIP3    H247009   1.175   6.729   4.683 -0.1233 -0.6115 -0.1187
 8532TIP3   OH247010   1.909   1.661   3.372 -0.2373 -0.4936 -0.4503
 8532TIP3    H147011   1.879   1.619   3.292  0.7649 -0.2452 -0.9693
 8532TIP3    H247012   1.831   1.668   3.427 -1.1908  0.4565 -1.8893
 8533TIP3   OH247013   2.544   5.746  15.514  0.4847  0.6821 -0.5102
 8533TIP3    H147014   2.593   5.666  15.535 -1.2203 -1.1571 -2.9706
 8533TIP3    H247015   2.532   5.790  15.599 -0.5184 -2.8811  1.4127
 8534TIP3   OH247016   4.545   6.687  15.107 -0.1405  0.5127  0.5429
 8534TIP3    H147017   4.631   6.688  15.065 -1.0414  1.6985 -1.4343
 8534TIP3    H247018   4.563   6.670  15.200  2.1777  0.4925  0.1362
 8535TIP3   OH247019   1.462   6.406   5.930  0.5845  0.3510  0.5481
 8535TIP3    H147020   1.527   6.477   5.923  0.3380  0.5619  0.3791
 8535TIP3    H247021   1.506   6.339   5.981  1.4987 -0.1266 -0.7984
 8536TIP3   OH247022   4.884   0.849   5.909 -0.1812  0.3272  0.1425
 8536TIP3    H147023   4.899   0.928   5.961  0.3694  1.4265 -1.6092
 8536TIP3    H247024   4.834   0.791   5.967  1.9766  0.7049  2.5749
 8537TIP3   OH247025   1.475   2.480  15.393  0.3901  0.1118 -0.5198
 8537TIP3    H147026   1.495   2.425  15.470 -0.2996  2.2101  1.2654
 8537TIP3    H247027   1.535   2.554  15.400  0.0156  0.5551 -1.7971
 8538TIP3   OH247028   2.116   5.215  12.993 -0.1318 -0.1205 -0.1610
 8538TIP3    H147029   2.109   5.308  12.973 -0.4805 -0.5904 -2.5341
 8538TIP3    H247030   2.172   5.179  12.924 -1.3737 -1.9146 -0.3288
 8539TIP3   OH247031   6.725   4.957   0.188  0.5392  0.2142  0.2546
 8539TIP3    H147032   6.659   5.005   0.237  1.0535  0.1572  1.0268
 8539TIP3    H247033   6.702   4.865   0.200  0.1863  0.2226 -0.3138
 8540TIP3   OH247034   6.033   4.476   3.689  0.3757 -0.3301  0.1204
 8540TIP3    H147035   6.092   4.429   3.631  0.1451 -1.0684  0.4776
 8540TIP3    H247036   5.955   4.493   3.636  0.7332  0.2735 -0.2212
 8541TIP3   OH247037   1.644   3.179  13.933 -0.0051 -0.9073  0.2216
 8541TIP3    H147038   1.593   3.099  13.920 -1.1243  0.1995 -3.1011
 8541TIP3    H247039   1.584   3.250  13.911  1.6665  0.7236  0.7103
 8542TIP3   OH247040   4.464   2.287   0.610  0.1522  0.0611  0.7095
 8542TIP3    H147041   4.525   2.329   0.549  0.7154 -1.9397 -0.1918
 8542TIP3    H247042   4.377   2.311   0.577  0.4591 -0.2418 -0.3715
 8543TIP3   OH247043   4.251   1.859   1.105 -0.0803  0.0146 -0.4406
 8543TIP3    H147044   4.205   1.887   1.026 -1.0345 -0.1456  0.0372
 8543TIP3    H247045   4.226   1.767   1.116  1.1024 -0.3484 -0.6692
 8544TIP3   OH247046   2.933   4.870   0.656 -0.4636  0.7205 -0.2519
 8544TIP3    H147047   2.944   4.779   0.628 -0.1442  0.4739  0.6412
 8544TIP3    H247048   2.976   4.921   0.587 -1.6973  0.2803 -1.3858
 8545TIP3   OH247049   6.604   5.630   5.035  1.0043 -0.1551  0.1427
 8545TIP3    H147050   6.599   5.651   5.128 -0.6785  0.6473 -0.0951
 8545TIP3    H247051   6.593   5.715   4.991 -0.6834 -0.8148 -0.7941
 8546TIP3   OH247052   0.470   4.607   5.145  0.2820 -0.2042  0.0194
 8546TIP3    H147053   0.441   4.675   5.084  0.6240  1.3773  1.5502
 8546TIP3    H247054   0.467   4.648   5.231  0.2995 -2.2118  1.0474
 8547TIP3   OH247055   4.228   0.848   0.076  0.0975 -0.0157  0.6525
 8547TIP3    H147056   4.243   0.755   0.057 -1.2105  0.1553 -1.5029
 8547TIP3    H247057   4.288   0.895   0.018 -1.5248  0.4882 -0.6896
 8548TIP3   OH247058   2.585   6.108  16.493  0.3052 -0.3454 -0.3708
 8548TIP3    H147059   2.586   6.202  16.474 -0.6125 -0.2639 -0.0522
 8548TIP3    H247060   2.646   6.097  16.565 -0.5577  0.2128  0.4681
 8549TIP3   OH247061   3.710   1.524   4.289 -0.2332  0.2121 -0.4976
 8549TIP3    H147062   3.711   1.439   4.244  1.8733 -0.1655  0.1398
 8549TIP3    H247063   3.732   1.503   4.380  1.4271  1.4916 -0.5419
 8550TIP3   OH247064   6.282   1.117   3.873  0.1627 -0.2010 -0.4794
 8550TIP3    H147065   6.263   1.079   3.958  1.2665 -1.4039 -0.7297
 8550TIP3    H247066   6.362   1.167   3.886 -1.0586  1.7811 -0.2508
 8551TIP3   OH247067   1.740   2.674  14.668  0.0005 -0.1232  0.1668
 8551TIP3    H147068   1.704   2.635  14.748 -1.1521  1.7095  0.5953
 8551TIP3    H247069   1.831   2.646  14.667 -0.3482 -1.4503  1.2823
 8552TIP3   OH247070   4.311   0.928  15.706  0.1877  0.2604 -0.1436
 8552TIP3    H147071   4.236   0.869  15.709 -0.7740  1.4505  0.4412
 8552TIP3    H247072   4.347   0.926  15.794 -0.9528  1.8362  0.4183
 8553TIP3   OH247073   0.880   0.753   0.843  0.5910 -0.1571  0.1477
 8553TIP3    H147074   0.883   0.712   0.757 -2.2816  0.6820 -0.4540
 8553TIP3    H247075   0.787   0.772   0.858  0.7639 -1.3597  3.9672
 8554TIP3   OH247076   5.386   6.665  15.224  0.4619 -0.2073  0.2327
 8554TIP3    H147077   5.463   6.698  15.272 -0.2766  0.0982  1.2494
 8554TIP3    H247078   5.422   6.631  15.142  1.3622  2.3809 -0.5371
 8555TIP3   OH247079   5.744   4.069   0.541  0.0563 -0.0372  0.7341
 8555TIP3    H147080   5.831   4.063   0.579  0.9439 -1.6457 -1.3687
 8555TIP3    H247081   5.716   3.978   0.530 -1.2236  0.4217 -0.0333
 8556TIP3   OH247082   6.787   4.903  14.536  0.0587  0.2632 -0.2007
 8556TIP3    H147083   6.876   4.888  14.504  0.7032 -1.1249  1.9964
 8556TIP3    H247084   6.793   4.982  14.590  0.5396 -1.0086  1.7137
 8557TIP3   OH247085   0.191   2.214  12.566 -0.4113  0.6455 -0.1216
 8557TIP3    H147086   0.218   2.186  12.653 -0.7738  0.5847 -0.0256
 8557TIP3    H247087   0.095   2.211  12.569 -0.4192  0.0921 -0.6998
 8558TIP3   OH247088   3.696   2.695   1.130  0.0152 -0.3752  1.0204
 8558TIP3    H147089   3.691   2.780   1.173  2.3702  0.6239 -0.5124
 8558TIP3    H247090   3.786   2.688   1.099 -0.6340 -2.5684 -0.6607
 8559TIP3   OH247091   3.719   3.531   1.726 -0.3960 -0.1393  0.7564
 8559TIP3    H147092   3.785   3.600   1.728 -1.6094  1.0697  0.8181
 8559TIP3    H247093   3.761   3.456   1.767  1.9479 -0.3932 -1.8454
 8560TIP3   OH247094   2.816   3.663   1.734  0.3208  0.3074  0.0300
 8560TIP3    H147095   2.787   3.630   1.819  2.0940 -2.4419 -0.2883
 8560TIP3    H247096   2.845   3.752   1.752  0.8064 -0.2407  2.3870
 8561TIP3   OH247097   2.475   5.627  11.754  0.2560 -0.4654 -0.0164
 8561TIP3    H147098   2.438   5.631  11.842  0.9865  0.1963  0.2701
 8561TIP3    H247099   2.449   5.710  11.714 -0.5556 -0.9968 -0.6362
 8562TIP3   OH247100   2.465   6.036  14.452  0.4516  0.3032 -0.8257
 8562TIP3    H147101   2.403   5.998  14.513 -1.5580  1.6543 -1.8974
 8562TIP3    H247102   2.480   5.968  14.387 -0.0343  0.0012 -0.6284
 8563TIP3   OH247103   6.307   0.895   3.245  0.6618  0.5760 -0.0006
 8563TIP3    H147104   6.278   0.958   3.179 -1.0538  0.3532  0.4978
 8563TIP3    H247105   6.233   0.836   3.256  2.4460 -2.0590 -1.0090
 8564TIP3   OH247106   5.207   6.424   2.837 -0.2356  0.1443 -0.0754
 8564TIP3    H147107   5.151   6.421   2.915 -0.8847  0.8096 -0.5028
 8564TIP3    H247108   5.249   6.510   2.841  1.9426 -0.8921  1.0243
 8565TIP3   OH247109   6.136   5.475  16.929  0.0609 -0.2863  0.3627
 8565TIP3    H147110   6.221   5.445  16.961 -1.3656 -4.4705  0.9837
 8565TIP3    H247111   6.084   5.488  17.008 -0.6311 -0.6290 -0.0215
 8566TIP3   OH247112   3.156   5.873   0.330 -0.2916 -0.3813 -0.2579
 8566TIP3    H147113   3.250   5.890   0.340 -0.0566 -1.7310 -0.0172
 8566TIP3    H247114   3.132   5.918   0.248  0.2047  1.2767  0.4681
 8567TIP3   OH247115   3.191   3.008  11.205  0.2024 -0.5821  0.0488
 8567TIP3    H147116   3.101   3.033  11.182 -0.5776 -0.0803  3.1740
 8567TIP3    H247117   3.246   3.066  11.152 -1.2911 -0.4726 -1.4876
 8568TIP3   OH247118   1.445   3.919   3.740 -0.4450  0.2327 -0.3200
 8568TIP3    H147119   1.445   3.901   3.834  1.0576  1.6145 -0.0001
 8568TIP3    H247120   1.537   3.932   3.718 -0.7808  0.0675 -1.9653
 8569TIP3   OH247121   3.450   5.896  16.678 -0.5287  0.5687 -0.2331
 8569TIP3    H147122   3.516   5.885  16.746 -1.1546  0.5927  0.3839
 8569TIP3    H247123   3.487   5.851  16.601 -0.6397 -1.1198  0.6550
 8570TIP3   OH247124   2.796   5.289   1.050 -0.0024 -0.2624 -0.0948
 8570TIP3    H147125   2.706   5.261   1.063 -0.8881  2.3599 -0.0287
 8570TIP3    H247126   2.805   5.301   0.956  0.3910 -0.8387 -0.1341
 8571TIP3   OH247127   6.345   4.009   1.686 -0.3543 -0.0508 -0.3696
 8571TIP3    H147128   6.324   4.018   1.779  0.5105  0.4040 -0.2078
 8571TIP3    H247129   6.358   3.915   1.674 -3.4518 -0.5296 -0.7239
 8572TIP3   OH247130   4.166   1.333   0.497  0.0328 -0.1228  0.6403
 8572TIP3    H147131   4.138   1.281   0.572  0.7353 -0.0592  0.9572
 8572TIP3    H247132   4.254   1.364   0.521  1.0650 -1.6129 -0.9440
 8573TIP3   OH247133   3.152   1.977  12.255 -0.4965 -0.0088 -0.1310
 8573TIP3    H147134   3.163   2.071  12.241  2.2792 -0.3169 -0.4551
 8573TIP3    H247135   3.223   1.953  12.315 -1.3484 -1.8736  0.1960
 8574TIP3   OH247136   0.152   4.485   5.063  0.3146  0.0680  0.1099
 8574TIP3    H147137   0.232   4.463   5.016  0.3887 -0.9744  0.7054
 8574TIP3    H247138   0.161   4.578   5.084  1.2434  0.0233 -0.0693
 8575TIP3   OH247139   0.069   1.173  14.899  0.2107 -0.3711  0.1967
 8575TIP3    H147140  -0.023   1.181  14.876  0.0948  2.3586  1.2338
 8575TIP3    H247141   0.106   1.116  14.831 -2.0382 -0.9084 -0.6813
 8576TIP3   OH247142   0.613   2.405  16.295  0.1929 -0.6118 -0.0973
 8576TIP3    H147143   0.584   2.392  16.205  0.1439 -0.6614 -0.0754
 8576TIP3    H247144   0.708   2.417  16.289 -0.1529  3.1993 -0.6190
 8577TIP3   OH247145   4.921   1.505   3.703  0.4685  0.4515 -0.1667
 8577TIP3    H147146   4.934   1.458   3.785  0.9311  0.0647 -0.4535
 8577TIP3    H247147   4.869   1.582   3.727  0.5743  0.3272  0.4809
 8578TIP3   OH247148   5.436   6.502   4.032  0.1026  0.7425 -0.5122
 8578TIP3    H147149   5.504   6.567   4.015 -0.1670  0.9937 -0.6566
 8578TIP3    H247150   5.419   6.462   3.946 -0.4586  1.2098 -0.6239
 8579TIP3   OH247151   2.472   3.412  14.535 -0.7366 -0.4952  0.0579
 8579TIP3    H147152   2.469   3.443  14.445  0.0893 -3.4588 -1.0976
 8579TIP3    H247153   2.563   3.426  14.563 -1.2452  1.4567  0.9167
 8580TIP3   OH247154   3.593   2.132  15.321 -0.2629 -0.0893  0.0001
 8580TIP3    H147155   3.630   2.048  15.350  1.4302  0.2077 -1.1168
 8580TIP3    H247156   3.581   2.183  15.401 -0.9839 -1.2488  0.6614
 8581TIP3   OH247157   4.171   6.340  15.629  0.2526 -0.0408 -0.4574
 8581TIP3    H147158   4.266   6.349  15.621  0.3752  0.1462  1.0281
 8581TIP3    H247159   4.152   6.362  15.720 -1.0997 -1.1174 -0.4523
 8582TIP3   OH247160   1.573   1.590  15.110 -0.4627  0.1836 -0.0885
 8582TIP3    H147161   1.514   1.658  15.140  0.3055  0.8880 -0.1349
 8582TIP3    H247162   1.658   1.612  15.150  0.4101  0.7196 -2.1191
 8583TIP3   OH247163   4.680   4.026   2.829 -0.5167  0.6357  0.1322
 8583TIP3    H147164   4.655   3.940   2.795  0.4363  0.5113 -0.2803
 8583TIP3    H247165   4.693   4.080   2.752  1.8229  0.3059  0.2434
 8584TIP3   OH247166   1.209   5.234  11.267  0.6050 -0.0243 -0.4221
 8584TIP3    H147167   1.180   5.200  11.182 -1.1297 -0.0789  0.1567
 8584TIP3    H247168   1.128   5.260  11.311  1.4399 -0.3874  1.3900
 8585TIP3   OH247169   4.164   0.212  14.638 -0.2848 -0.0944 -0.0288
 8585TIP3    H147170   4.157   0.301  14.604  0.5889  0.7048  1.7419
 8585TIP3    H247171   4.248   0.180  14.604  0.0310  0.2729  0.3849
 8586TIP3   OH247172   2.128   0.042  15.449 -0.1906  0.1918  0.1749
 8586TIP3    H147173   2.151  -0.001  15.532  1.7835  0.7136 -0.0487
 8586TIP3    H247174   2.193   0.009  15.387 -1.0838  0.5235 -0.9572
 8587TIP3   OH247175   1.592   1.249   1.205 -0.1782  0.1564  0.1040
 8587TIP3    H147176   1.619   1.260   1.114  1.7485  1.0674  0.7354
 8587TIP3    H247177   1.588   1.154   1.217 -1.4306  0.0224 -1.1686
 8588TIP3   OH247178   5.584   2.985   3.461 -0.0545  0.1914  0.6661
 8588TIP3    H147179   5.498   3.019   3.436 -0.8982 -1.5444  1.0458
 8588TIP3    H247180   5.578   2.973   3.556 -0.0056 -1.4365  0.5020
 8589TIP3   OH247181   2.265   6.324   5.521  0.1179  0.5378  0.2792
 8589TIP3    H147182   2.250   6.359   5.434 -0.3801 -1.3102 -0.4114
 8589TIP3    H247183   2.359   6.308   5.525 -0.1625 -1.8330 -0.9567
 8590TIP3   OH247184   1.833   4.485  12.765  1.0832  0.1231  0.2786
 8590TIP3    H147185   1.869   4.573  12.779 -2.4700  1.6642  0.7297
 8590TIP3    H247186   1.862   4.461  12.677  0.6188  2.6360 -0.6507
 8591TIP3   OH247187   3.125   6.020   4.462 -0.3646  0.3834 -0.5196
 8591TIP3    H147188   3.148   5.927   4.460  1.0447  0.7030 -0.2982
 8591TIP3    H247189   3.172   6.058   4.388 -0.3732  1.0237 -0.2096
 8592TIP3   OH247190   1.179   4.620  13.127 -0.0228  0.0397 -0.1566
 8592TIP3    H147191   1.125   4.591  13.200 -0.4536 -1.8206 -1.1631
 8592TIP3    H247192   1.128   4.600  13.049  1.7969 -1.1546 -1.1174
 8593TIP3   OH247193   1.619   5.346  13.503 -0.1637  1.2206  0.3193
 8593TIP3    H147194   1.675   5.423  13.495  2.0286 -0.3019  0.0526
 8593TIP3    H247195   1.597   5.323  13.413  0.9152  0.4077  0.2331
 8594TIP3   OH247196   1.227   0.951  17.003 -0.2726  0.0627 -0.4759
 8594TIP3    H147197   1.295   0.945  17.071  1.4306 -0.8193 -2.1744
 8594TIP3    H247198   1.251   1.028  16.953 -0.7513 -0.0498 -0.8815
 8595TIP3   OH247199   3.503   2.022  15.074 -0.4278 -0.0502  0.0906
 8595TIP3    H147200   3.454   2.087  15.024 -0.7030  0.9223  1.5889
 8595TIP3    H247201   3.530   2.067  15.154 -0.6158 -1.7684  1.1814
 8596TIP3   OH247202   1.772   3.663  12.965  0.4470 -0.3036 -0.0675
 8596TIP3    H147203   1.715   3.601  13.009  0.4374 -0.0303  0.3100
 8596TIP3    H247204   1.727   3.747  12.973  1.3642  0.1046  1.1352
 8597TIP3   OH247205   6.605   4.103  15.271 -0.6469  0.1637  0.2423
 8597TIP3    H147206   6.675   4.148  15.319  0.7503 -0.5696 -1.0122
 8597TIP3    H247207   6.526   4.120  15.321  0.2741  1.8283  1.2048
 8598TIP3   OH247208   4.656   6.465   1.538  0.4058 -0.5027  0.5965
 8598TIP3    H147209   4.660   6.369   1.544  0.2058 -0.4934  0.9195
 8598TIP3    H247210   4.616   6.482   1.453 -0.0299 -0.7166  0.7550
 8599TIP3   OH247211   6.452   2.131   0.785  0.3194  0.2681  0.3490
 8599TIP3    H147212   6.393   2.204   0.800  0.5606  0.9498 -1.7281
 8599TIP3    H247213   6.539   2.165   0.809  0.1210 -0.2278  1.8883
 8600TIP3   OH247214   1.794   0.051   2.737  0.5207  0.1819 -0.6323
 8600TIP3    H147215   1.700   0.044   2.725  0.6312 -0.6479 -1.0870
 8600TIP3    H247216   1.816   0.139   2.705 -0.2260  0.7661  0.4345
 8601TIP3   OH247217   2.600   1.188   1.375 -0.2708 -0.2525 -0.1012
 8601TIP3    H147218   2.645   1.204   1.458  0.0919 -0.5458 -0.2437
 8601TIP3    H247219   2.528   1.252   1.375 -0.1719 -0.1361  0.3604
 8602TIP3   OH247220   1.025   1.142  11.251  0.0301  0.2013 -0.7568
 8602TIP3    H147221   1.008   1.119  11.342 -1.5648 -0.6969 -1.2381
 8602TIP3    H247222   1.120   1.136  11.242  0.3941  1.9682  1.2479
 8603TIP3   OH247223   4.289   2.517   1.980  0.8043 -0.2456 -0.9195
 8603TIP3    H147224   4.218   2.459   1.953 -0.7038  1.6574 -1.2013
 8603TIP3    H247225   4.312   2.487   2.068 -1.0809 -0.2550 -0.3841
 8604TIP3   OH247226   4.464   0.335   0.072  0.1830 -0.5800 -0.3154
 8604TIP3    H147227   4.531   0.390   0.034  0.0333 -0.7201 -0.7863
 8604TIP3    H247228   4.479   0.340   0.167  0.4002 -0.0348 -0.3784
 8605TIP3   OH247229   3.480   1.418   4.895  0.0816  0.2035  0.1261
 8605TIP3    H147230   3.548   1.455   4.839 -0.6980 -0.8106 -1.5805
 8605TIP3    H247231   3.398   1.436   4.848 -0.9169  1.6155  2.2360
 8606TIP3   OH247232   1.305   3.533   4.674 -0.0625  0.3562 -0.2079
 8606TIP3    H147233   1.246   3.495   4.609  0.3670 -2.3794  0.8705
 8606TIP3    H247234   1.391   3.498   4.652  0.4731  1.1629  0.5444
 8607TIP3   OH247235   3.316   6.392   4.552  0.6443 -1.0408  0.0451
 8607TIP3    H147236   3.348   6.453   4.485  2.4203 -1.3446  0.5594
 8607TIP3    H247237   3.224   6.377   4.529  0.5006  0.8274 -0.8366
 8608TIP3   OH247238   2.504   4.825   5.732 -0.0025 -0.1397 -0.2593
 8608TIP3    H147239   2.531   4.781   5.652 -0.3295 -0.1614 -0.3564
 8608TIP3    H247240   2.543   4.912   5.726 -2.1467  0.7853 -1.6619
 8609TIP3   OH247241   5.046   5.513   5.953 -0.1706 -0.0949  0.0191
 8609TIP3    H147242   4.960   5.550   5.936  0.1937  0.7216 -0.1258
 8609TIP3    H247243   5.056   5.520   6.048 -0.4829 -0.6927  0.0955
 8610TIP3   OH247244   5.956   1.609  16.004  0.0547 -0.6232 -0.4543
 8610TIP3    H147245   5.878   1.564  15.972  0.3798 -1.0750 -0.6295
 8610TIP3    H247246   6.009   1.625  15.926  0.8620 -1.7477 -0.1645
 8611TIP3   OH247247   6.170   1.221   1.090 -0.5755 -0.0233 -0.4421
 8611TIP3    H147248   6.082   1.235   1.125 -1.3067  1.0680 -2.5579
 8611TIP3    H247249   6.156   1.199   0.998  1.3161 -1.4452 -0.4391
 8612TIP3   OH247250   0.889   1.482   4.790  0.5042  0.5169 -0.0608
 8612TIP3    H147251   0.965   1.442   4.747 -0.4812  0.3385 -1.7524
 8612TIP3    H247252   0.881   1.435   4.873  2.0303  0.3092 -0.0071
 8613TIP3   OH247253   4.775   5.716  16.479 -0.8521  0.6469  0.2838
 8613TIP3    H147254   4.857   5.723  16.528 -1.5049 -1.8391  1.8982
 8613TIP3    H247255   4.791   5.646  16.415 -1.4674  0.7195  0.0417
 8614TIP3   OH247256   0.869   2.746   1.229 -0.4363  0.6623 -0.4388
 8614TIP3    H147257   0.871   2.714   1.319 -1.2181  1.6420 -0.0565
 8614TIP3    H247258   0.931   2.819   1.228  0.7627 -0.3362 -1.1105
 8615TIP3   OH247259   1.784   5.070  12.391  0.1304 -0.0964  0.0277
 8615TIP3    H147260   1.802   5.137  12.326 -2.8733  1.7449  0.8836
 8615TIP3    H247261   1.730   5.005  12.345 -2.2392  1.3510  0.5879
 8616TIP3   OH247262   4.222   3.760   3.108 -0.3484 -0.0309 -0.3819
 8616TIP3    H147263   4.244   3.685   3.053 -0.2244  0.1086 -0.5214
 8616TIP3    H247264   4.304   3.781   3.154 -0.1583  0.5572 -0.9822
 8617TIP3   OH247265   1.832   4.555  14.551 -0.3181  0.6027 -0.5219
 8617TIP3    H147266   1.779   4.505  14.613 -0.7921 -0.1691 -1.5188
 8617TIP3    H247267   1.920   4.553  14.588 -0.3533 -0.8581 -0.4602
 8618TIP3   OH247268   6.392   1.914   5.731  0.0735 -0.1547  0.2071
 8618TIP3    H147269   6.444   1.847   5.777  0.1504  0.7933  1.5403
 8618TIP3    H247270   6.418   1.996   5.772 -0.1254  0.7034 -1.3211
 8619TIP3   OH247271   6.707   1.340   3.586 -0.0576  0.2339  0.3970
 8619TIP3    H147272   6.612   1.334   3.581 -0.1409  1.7546 -0.3852
 8619TIP3    H247273   6.737   1.249   3.593 -1.5223 -0.3227 -0.2839
 8620TIP3   OH247274   1.263   3.024  14.143 -0.3335  0.1873 -0.2915
 8620TIP3    H147275   1.203   3.053  14.211 -0.7518 -0.6630 -0.2834
 8620TIP3    H247276   1.209   3.020  14.064 -0.0143  0.5096 -0.5278
 8621TIP3   OH247277   6.058   6.012   4.879  0.2584 -0.5252  0.1248
 8621TIP3    H147278   5.987   6.068   4.849  1.5097  0.7406 -0.6289
 8621TIP3    H247279   6.126   6.022   4.812  1.0128 -1.9812  0.6209
 8622TIP3   OH247280   3.982   3.984   6.321  0.6290  0.2188 -0.2912
 8622TIP3    H147281   4.074   3.995   6.297  0.5269 -1.0244 -1.2956
 8622TIP3    H247282   3.949   4.074   6.328  1.9573  0.6878  0.3108
 8623TIP3   OH247283   5.670   3.002  12.912 -0.9184 -0.5782  0.1715
 8623TIP3    H147284   5.585   3.004  12.868  0.1270  2.1055 -2.0435
 8623TIP3    H247285   5.734   3.004  12.840  0.9233  2.4342  1.6859
 8624TIP3   OH247286   3.065   1.449  13.026  0.0874  0.1578  0.3336
 8624TIP3    H147287   3.021   1.365  13.038  1.2256 -0.2781  1.6845
 8624TIP3    H247288   3.010   1.512  13.072  0.2964 -0.2021  1.0858
 8625TIP3   OH247289   4.845   5.469  14.926  0.1342  0.1522  0.6768
 8625TIP3    H147290   4.854   5.397  14.989  0.0455 -0.5166 -0.0598
 8625TIP3    H247291   4.864   5.429  14.841 -1.0277  0.7340  0.1245
 8626TIP3   OH247292   2.441   6.492   3.812 -0.1737 -0.3038 -0.0167
 8626TIP3    H147293   2.356   6.508   3.773  0.4923  2.5106 -0.5304
 8626TIP3    H247294   2.492   6.452   3.741 -0.5168 -0.2041 -0.3246
 8627TIP3   OH247295   4.813   5.113  12.982  0.1373 -0.1885  0.2373
 8627TIP3    H147296   4.796   5.049  12.914  2.3492  0.8531 -1.3940
 8627TIP3    H247297   4.779   5.195  12.947  0.4663  0.1898  0.7818
 8628TIP3   OH247298   5.259   1.117  13.228  0.7732  0.1824  0.0710
 8628TIP3    H147299   5.312   1.120  13.149 -0.0316  1.0839 -0.4440
 8628TIP3    H247300   5.181   1.168  13.208  0.7839  0.8764  1.6194
 8629TIP3   OH247301   1.864   4.667   2.454 -1.0864  0.5683  0.0089
 8629TIP3    H147302   1.918   4.742   2.476  1.5281 -0.6666 -1.7502
 8629TIP3    H247303   1.921   4.591   2.469 -2.4708 -0.8477 -1.5018
 8630TIP3   OH247304   6.758   5.951  12.343  0.3243 -0.2754  0.2717
 8630TIP3    H147305   6.674   5.988  12.313  1.3169  0.0835 -2.3267
 8630TIP3    H247306   6.781   6.003  12.420 -1.6256 -0.1197  0.8064
 8631TIP3   OH247307   6.432   3.074  10.951  0.3026 -0.3487 -0.0034
 8631TIP3    H147308   6.404   3.019  11.024 -0.6581  2.2434  1.7127
 8631TIP3    H247309   6.523   3.097  10.972 -0.4752  1.7482  1.3825
 8632TIP3   OH247310   4.884   1.515  14.643 -0.0525  0.4310  0.4237
 8632TIP3    H147311   4.952   1.464  14.687 -0.2163 -1.9189 -1.8323
 8632TIP3    H247312   4.803   1.466  14.659 -0.7657  1.6189  0.6182
 8633TIP3   OH247313   2.089   0.621  12.848 -0.5095  0.1309 -0.0442
 8633TIP3    H147314   2.106   0.703  12.894  1.6563 -0.4221  0.2656
 8633TIP3    H247315   2.120   0.553  12.909 -1.2733 -0.8600 -0.7263
 8634TIP3   OH247316   2.376   4.368   4.429 -0.2354 -0.0011  0.0562
 8634TIP3    H147317   2.425   4.430   4.375 -0.3579  0.2049  0.1828
 8634TIP3    H247318   2.415   4.283   4.408  0.5130  0.2090  0.5158
 8635TIP3   OH247319   3.313   1.019   3.044 -0.1552  1.0414  0.1091
 8635TIP3    H147320   3.241   1.024   2.980  0.0106  2.9175 -0.0074
 8635TIP3    H247321   3.318   1.108   3.080  0.6667  0.3662  1.7437
 8636TIP3   OH247322   5.908   4.721  16.037 -0.3674 -0.3847  0.0869
 8636TIP3    H147323   5.955   4.666  16.100  0.1135  0.5692  0.5919
 8636TIP3    H247324   5.828   4.673  16.017  0.9344 -2.1880 -1.0206
 8637TIP3   OH247325   5.611   2.345  15.885  0.6415  0.2027 -0.7067
 8637TIP3    H147326   5.521   2.376  15.873  0.8841  1.5142  0.5648
 8637TIP3    H247327   5.659   2.384  15.812  0.4686  0.8351 -0.4925
 8638TIP3   OH247328   6.646   3.410   3.592  0.0914 -0.2266  0.8141
 8638TIP3    H147329   6.686   3.331   3.555  0.6116  0.9848 -1.4321
 8638TIP3    H247330   6.712   3.446   3.650 -0.0293 -1.2357  1.6132
 8639TIP3   OH247331   1.012   0.375  13.615 -0.1603 -0.1287 -0.2963
 8639TIP3    H147332   1.096   0.413  13.643 -0.9018  1.0418  0.3843
 8639TIP3    H247333   1.035   0.286  13.586  1.6840  0.9160 -2.3078
 8640TIP3   OH247334   6.500   2.021   4.909  0.5510 -0.3424 -0.2879
 8640TIP3    H147335   6.485   1.927   4.919 -0.8500 -0.1607 -0.4405
 8640TIP3    H247336   6.497   2.055   4.999 -1.5843 -0.1242 -0.3800
 8641TIP3   OH247337   1.872   3.836  11.227 -0.1673 -0.3509 -0.3194
 8641TIP3    H147338   1.949   3.883  11.259 -0.3222 -0.4709  0.2391
 8641TIP3    H247339   1.907   3.763  11.176  0.0905 -0.4210 -0.0421
 8642TIP3   OH247340   3.484   5.505   4.392  0.6060 -1.1711 -0.7804
 8642TIP3    H147341   3.481   5.473   4.302 -0.2873 -0.2566 -1.0978
 8642TIP3    H247342   3.488   5.427   4.446 -2.4615 -1.9086 -1.4721
 8643TIP3   OH247343   0.896   5.530   1.715  0.3790 -0.5795 -0.3945
 8643TIP3    H147344   0.906   5.442   1.679  1.1978 -0.3910 -0.6515
 8643TIP3    H247345   0.981   5.571   1.701  0.0261  0.2301 -0.2087
 8644TIP3   OH247346   5.711   0.382  14.601  0.2064  0.1816 -0.4099
 8644TIP3    H147347   5.766   0.320  14.553 -0.0027  0.1396 -0.5997
 8644TIP3    H247348   5.700   0.456  14.541  0.4430  0.3944 -0.1896
 8645TIP3   OH247349   4.597   2.542  14.206  0.2309  0.2258  0.1617
 8645TIP3    H147350   4.578   2.591  14.126 -0.4793 -0.2949  0.0059
 8645TIP3    H247351   4.592   2.607  14.275 -1.0721  0.3252 -0.0023
 8646TIP3   OH247352   4.418   0.926  15.958 -0.2018 -0.3874 -0.4223
 8646TIP3    H147353   4.502   0.925  15.912  0.0245 -0.2428 -0.0224
 8646TIP3    H247354   4.432   0.870  16.035 -0.7842 -1.1776 -0.8848
 8647TIP3   OH247355   1.385   1.463  14.556  0.0700 -0.2395  0.1089
 8647TIP3    H147356   1.343   1.543  14.587  2.1116  0.1619  2.1514
 8647TIP3    H247357   1.326   1.393  14.582  0.1714  0.3552  2.1516
 8648TIP3   OH247358   0.255   1.345  15.532  0.3842 -0.7514 -0.3967
 8648TIP3    H147359   0.190   1.313  15.469  1.6009 -2.1635 -1.0044
 8648TIP3    H247360   0.227   1.434  15.553 -1.3395 -1.0728 -1.1636
 8649TIP3   OH247361   2.003   0.225   5.548 -0.4978 -0.5295 -0.0530
 8649TIP3    H147362   2.081   0.198   5.501 -2.0103 -2.7383 -1.5289
 8649TIP3    H247363   1.933   0.221   5.483 -2.0142  0.3635  1.4216
 8650TIP3   OH247364   4.062   1.474   0.243 -0.0635 -0.0575 -0.1356
 8650TIP3    H147365   4.021   1.389   0.260  0.5928 -0.4512 -0.4941
 8650TIP3    H247366   4.142   1.472   0.295 -0.5596  0.7793  0.6995
 8651TIP3   OH247367   6.619   1.958  15.894 -0.0212 -0.0643 -0.0212
 8651TIP3    H147368   6.631   1.898  15.968 -0.0287  0.5460  0.4755
 8651TIP3    H247369   6.696   2.014  15.895 -0.4763  0.5731  0.1115
 8652TIP3   OH247370   4.441   3.806   0.770 -0.5745  0.0022  0.1329
 8652TIP3    H147371   4.520   3.764   0.804  0.0965  1.5061  0.5095
 8652TIP3    H247372   4.378   3.801   0.842  0.4517  2.1159  1.2721
 8653TIP3   OH247373   6.504   0.275   3.263 -0.5267  0.0683 -0.2988
 8653TIP3    H147374   6.462   0.275   3.349  0.6650 -0.8024  0.3038
 8653TIP3    H247375   6.590   0.235   3.278 -0.6127 -0.8554 -2.0511
 8654TIP3   OH247376   0.220   3.055   0.962 -0.1196 -0.9123 -0.4033
 8654TIP3    H147377   0.131   3.023   0.981  0.0523 -0.8771  0.4799
 8654TIP3    H247378   0.278   2.995   1.010  0.3076 -0.5716 -0.4923
 8655TIP3   OH247379   3.962   0.390  15.097  0.0394  0.5244  0.5490
 8655TIP3    H147380   3.982   0.302  15.128  0.8025  0.7650  0.7911
 8655TIP3    H247381   3.897   0.378  15.028  1.8124 -0.4385 -1.0400
 8656TIP3   OH247382   5.118   0.311   5.007 -0.7508  0.2826 -0.7863
 8656TIP3    H147383   5.186   0.253   4.973 -0.0229  1.3213 -1.1642
 8656TIP3    H247384   5.069   0.338   4.929  0.5094  2.1453 -1.0158
 8657TIP3   OH247385   1.186   6.556   1.659 -0.0897  0.0890  0.2531
 8657TIP3    H147386   1.263   6.539   1.712  0.4669 -2.6898 -1.2745
 8657TIP3    H247387   1.218   6.556   1.569 -1.3582  2.5427 -0.2999
 8658TIP3   OH247388   0.495   0.942   2.532  0.2979 -0.5440 -0.4142
 8658TIP3    H147389   0.412   0.936   2.579  0.6192  1.9850  0.6161
 8658TIP3    H247390   0.558   0.896   2.588  0.6261  2.2315  1.6762
 8659TIP3   OH247391   3.703   0.420  13.631 -0.1950  0.0069 -0.4172
 8659TIP3    H147392   3.719   0.462  13.716  0.6018 -1.2872  0.1062
 8659TIP3    H247393   3.788   0.385  13.605 -0.9965 -2.2840 -0.2421
 8660TIP3   OH247394   3.628   6.520   6.330  0.1906  0.0342 -0.3094
 8660TIP3    H147395   3.553   6.462   6.315 -1.1304  1.7430 -0.6769
 8660TIP3    H247396   3.619   6.587   6.263  2.0274  0.3406 -0.2798
 8661TIP3   OH247397   5.716   4.458  13.526 -0.3636 -0.3347 -0.3401
 8661TIP3    H147398   5.725   4.369  13.494 -2.0540 -0.8506  0.4636
 8661TIP3    H247399   5.704   4.511  13.448 -3.1158 -1.3803 -0.7463
 8662TIP3   OH247400   0.946   2.620   4.243 -0.0023 -0.5997  0.0255
 8662TIP3    H147401   1.005   2.587   4.176  0.8911 -0.6840  0.8276
 8662TIP3    H247402   0.985   2.591   4.326  1.0645  2.6407  0.8312
 8663TIP3   OH247403   2.913   0.672  15.554 -0.2570  0.3159 -0.1968
 8663TIP3    H147404   2.884   0.745  15.500  1.1802  0.2422 -1.1218
 8663TIP3    H247405   2.941   0.713  15.636 -0.6157  0.6528 -0.2405
 8664TIP3   OH247406   1.495   2.552  12.340  0.0328 -0.3426 -0.5444
 8664TIP3    H147407   1.404   2.553  12.310 -0.3571 -0.7136  0.5923
 8664TIP3    H247408   1.498   2.484  12.407  0.4980  1.4893  1.4013
 8665TIP3   OH247409   3.598   1.591   2.317  0.3279 -0.1493 -0.6417
 8665TIP3    H147410   3.607   1.506   2.272 -0.6537 -0.8446  0.4179
 8665TIP3    H247411   3.628   1.574   2.406  3.9077  1.6322 -1.3229
 8666TIP3   OH247412   3.969   4.581   5.080 -0.0964  0.0107  0.3807
 8666TIP3    H147413   3.951   4.610   4.991 -1.2642 -0.0524  0.5849
 8666TIP3    H247414   3.883   4.570   5.120  0.3712 -1.2929  1.0881
 8667TIP3   OH247415   4.845   2.096  13.962 -0.1029 -0.9503 -0.4610
 8667TIP3    H147416   4.756   2.119  13.987 -0.0056 -0.5603 -0.4603
 8667TIP3    H247417   4.836   2.018  13.908 -0.5023 -0.5555 -0.9831
 8668TIP3   OH247418   5.190   2.256   5.132 -0.2157 -0.1502 -0.0132
 8668TIP3    H147419   5.195   2.198   5.208  0.7660 -0.0526  0.0048
 8668TIP3    H247420   5.105   2.235   5.092 -0.2687 -0.9645  0.4980
 8669TIP3   OH247421   0.624   1.402  13.786 -0.0509 -0.0889 -0.7933
 8669TIP3    H147422   0.586   1.366  13.867  1.8757 -0.3927  0.0149
 8669TIP3    H247423   0.671   1.328  13.748  1.0780  0.6856 -0.9191
 8670TIP3   OH247424   4.336   2.445   2.252 -0.2777  0.1707 -0.3493
 8670TIP3    H147425   4.417   2.490   2.276 -0.4519  0.1041  0.3837
 8670TIP3    H247426   4.338   2.363   2.302 -0.1935 -0.4221 -1.3051
 8671TIP3   OH247427   2.306   0.747  16.875 -0.0834  0.7667 -0.1811
 8671TIP3    H147428   2.351   0.748  16.790 -1.6865 -0.6694 -1.0940
 8671TIP3    H247429   2.335   0.666  16.916 -2.3646 -0.6498 -1.1608
 8672TIP3   OH247430   0.301   0.366   4.834 -0.0511 -0.2913 -0.0511
 8672TIP3    H147431   0.219   0.346   4.789 -0.8200  1.7129  0.3425
 8672TIP3    H247432   0.339   0.281   4.855 -0.6391 -1.2943 -2.6999
 8673TIP3   OH247433   1.694   1.335  14.077  0.7596 -0.1765  0.7167
 8673TIP3    H147434   1.704   1.336  13.981  1.6555 -0.7495  0.7917
 8673TIP3    H247435   1.648   1.253  14.095 -1.9313  1.2006  0.5939
 8674TIP3   OH247436   3.815   0.665  11.475 -0.2373  0.8138 -0.3490
 8674TIP3    H147437   3.779   0.743  11.434 -0.2329  0.7171 -0.5381
 8674TIP3    H247438   3.779   0.592  11.424  2.0101  0.7538 -2.0163
 8675TIP3   OH247439   1.649   1.118   5.006  0.6692 -0.1019 -0.0359
 8675TIP3    H147440   1.724   1.177   5.017  0.3098 -0.0206  2.6529
 8675TIP3    H247441   1.620   1.099   5.095 -1.6056 -1.3352 -0.9492
 8676TIP3   OH247442   0.322   2.327  10.493 -0.2813  0.0143 -0.0829
 8676TIP3    H147443   0.255   2.287  10.438  0.2225 -1.2195  0.1632
 8676TIP3    H247444   0.397   2.340  10.434 -0.1897 -0.0861  0.0112
 8677TIP3   OH247445   0.349   0.265  12.216 -0.0225  0.2189  0.3059
 8677TIP3    H147446   0.258   0.240  12.198  0.7125 -2.3805 -0.3215
 8677TIP3    H247447   0.367   0.227  12.302  0.6866 -0.0628  0.0449
 8678TIP3   OH247448   4.348   5.994  16.846  0.0281 -0.9080  0.1144
 8678TIP3    H147449   4.254   5.999  16.826 -0.0230 -0.7940  0.3886
 8678TIP3    H247450   4.357   5.917  16.902  0.4217 -2.3096 -1.7738
 8679TIP3   OH247451   6.286   0.167  13.967 -0.6693 -0.1258 -0.2902
 8679TIP3    H147452   6.231   0.093  13.942 -0.9374  0.2345 -0.7890
 8679TIP3    H247453   6.305   0.212  13.884  0.5325 -0.3460 -0.1592
 8680TIP3   OH247454   6.487   0.220   1.539 -0.2649  0.6055  0.0261
 8680TIP3    H147455   6.432   0.144   1.557 -0.4767 -0.1379 -3.2261
 8680TIP3    H247456   6.573   0.196   1.574 -1.3869  1.0334  3.4911
 8681TIP3   OH247457   3.116   5.413  10.528 -0.4471 -0.4921  0.4560
 8681TIP3    H147458   3.172   5.434  10.603 -1.2497 -1.5070  1.3779
 8681TIP3    H247459   3.063   5.339  10.558 -0.5307 -1.1641 -1.2499
 8682TIP3   OH247460   2.769   5.858  13.852 -0.4447  0.8609 -0.2324
 8682TIP3    H147461   2.768   5.844  13.757 -0.5469  0.0551 -0.1196
 8682TIP3    H247462   2.714   5.935  13.866  0.2601  1.4992 -0.9029
 8683TIP3   OH247463   3.552   4.285  14.969  0.2791  0.4830 -0.2918
 8683TIP3    H147464   3.538   4.348  14.897  1.6279  0.6686 -0.4333
 8683TIP3    H247465   3.467   4.243  14.981 -0.9403  2.9430  0.3959
 8684TIP3   OH247466   5.270   6.688   6.036 -0.2059 -0.4847  0.2316
 8684TIP3    H147467   5.273   6.710   5.943 -0.9425 -2.5231 -0.3149
 8684TIP3    H247468   5.183   6.714   6.065 -0.1442 -0.2897  0.2443
 8685TIP3   OH247469   5.792   2.037   0.166 -0.2277 -0.0408  0.0437
 8685TIP3    H147470   5.738   2.044   0.088 -0.2818 -0.3568  0.0487
 8685TIP3    H247471   5.825   2.125   0.182  0.8380 -0.2078 -1.0913
 8686TIP3   OH247472   2.349   0.098   4.537  0.2828 -0.0314  0.4110
 8686TIP3    H147473   2.256   0.119   4.533  0.0282 -1.1307  0.1512
 8686TIP3    H247474   2.390   0.161   4.478 -0.2093  0.8494  0.9900
 8687TIP3   OH247475   1.217   6.754   3.605  0.0913 -0.2225  0.6240
 8687TIP3    H147476   1.209   6.837   3.559 -1.1251 -0.2498  0.7582
 8687TIP3    H247477   1.161   6.693   3.557 -1.7623 -0.0818  2.4476
 8688TIP3   OH247478   5.658   2.001   1.894 -0.5656  0.1278  0.2421
 8688TIP3    H147479   5.686   1.981   1.805 -2.4669  0.0795 -0.3822
 8688TIP3    H247480   5.679   1.922   1.944  1.7502  0.6278  0.2064
 8689TIP3   OH247481   0.057   1.214   5.979  0.0320  0.0920 -0.2266
 8689TIP3    H147482  -0.014   1.278   5.977  0.4000  0.4954 -0.8038
 8689TIP3    H247483   0.019   1.137   6.021 -0.7868  0.2618 -0.6304
 8690TIP3   OH247484   6.291   1.925  13.776  0.1785 -0.3256 -0.5787
 8690TIP3    H147485   6.205   1.967  13.771  0.0577 -0.3022  1.2336
 8690TIP3    H247486   6.350   1.986  13.732 -0.5673  0.1053 -1.0022
 8691TIP3   OH247487   0.955   2.857  15.774  0.1696  0.3021 -0.3532
 8691TIP3    H147488   0.915   2.826  15.693  1.1568  1.3890 -1.2964
 8691TIP3    H247489   0.897   2.825  15.843 -1.1618  0.0566 -1.5331
 8692TIP3   OH247490   1.094   1.081  13.350 -0.3437  0.3087 -0.0374
 8692TIP3    H147491   1.020   1.030  13.317  0.8703 -2.3040  0.9364
 8692TIP3    H247492   1.068   1.172  13.340 -3.3822 -0.4992 -0.3706
 8693TIP3   OH247493   2.043   2.226   3.877  0.3332 -0.1491 -0.1963
 8693TIP3    H147494   2.094   2.160   3.923  1.2060 -0.3045 -1.3254
 8693TIP3    H247495   2.001   2.277   3.946  2.9728  0.7468  0.8643
 8694TIP3   OH247496   1.726   3.662   1.231 -0.2058 -0.7131 -0.5001
 8694TIP3    H147497   1.683   3.592   1.181  1.0620  0.0010 -2.7349
 8694TIP3    H247498   1.809   3.623   1.261  0.5013 -0.2113 -1.7465
 8695TIP3   OH247499   5.601   5.928  16.344 -0.0972 -0.4245  0.3693
 8695TIP3    H147500   5.562   6.009  16.374  0.8357  0.0102  0.4530
 8695TIP3    H247501   5.593   5.868  16.418 -1.3325 -0.6290  0.1002
 8696TIP3   OH247502   4.435   3.379  15.373  0.4507 -0.3422  0.8219
 8696TIP3    H147503   4.437   3.471  15.346 -0.4079 -0.1617  1.3446
 8696TIP3    H247504   4.397   3.380  15.460 -1.3178 -1.3516  0.1103
 8697TIP3   OH247505   0.552   2.452  16.041 -0.4246 -0.0131 -0.2586
 8697TIP3    H147506   0.558   2.367  15.997 -0.5111 -0.3860  0.4225
 8697TIP3    H247507   0.598   2.513  15.984  2.1667 -1.0704  0.5671
 8698TIP3   OH247508   4.864   2.760  14.821 -0.3032 -0.1116  0.3539
 8698TIP3    H147509   4.815   2.730  14.898  1.2920 -2.2626  0.6279
 8698TIP3    H247510   4.944   2.707  14.821  1.4559  2.3365 -0.7854
 8699TIP3   OH247511   0.233   1.640  15.617  0.1047  0.1108  1.0598
 8699TIP3    H147512   0.248   1.725  15.576  1.0114 -0.1824  0.7522
 8699TIP3    H247513   0.211   1.661  15.708  0.0275  0.6861  0.9138
 8700TIP3   OH247514   2.261   1.854  12.669 -0.3395 -0.0864 -0.6365
 8700TIP3    H147515   2.306   1.805  12.600  0.4474  0.6008 -0.6246
 8700TIP3    H247516   2.267   1.945  12.642  2.3787  0.5424  1.5690
 8701TIP3   OH247517   4.554   4.782  11.295  0.1043  0.1691  0.1952
 8701TIP3    H147518   4.641   4.752  11.321  0.3481  0.9486  0.3200
 8701TIP3    H247519   4.516   4.817  11.375  0.2296  1.1078 -0.1424
 8702TIP3   OH247520   4.260   1.248   2.586  0.3032 -0.1299 -0.3509
 8702TIP3    H147521   4.182   1.240   2.642  0.1610 -0.7321 -0.6218
 8702TIP3    H247522   4.334   1.230   2.644  0.3756  1.9293  0.2635
 8703TIP3   OH247523   5.829   3.778  12.374 -0.6523 -0.5185  0.0331
 8703TIP3    H147524   5.795   3.834  12.444 -0.3963  0.1983 -0.4083
 8703TIP3    H247525   5.878   3.709  12.419 -2.1551 -1.2271  0.6587
 8704TIP3   OH247526   4.085   2.539   4.551 -0.1753 -0.4883  0.4635
 8704TIP3    H147527   4.154   2.502   4.496 -0.0113 -1.0980  1.0696
 8704TIP3    H247528   4.004   2.512   4.509 -0.0501 -0.3920  0.1563
 8705TIP3   OH247529   0.213   6.657   5.808  0.0304 -0.8183  0.1096
 8705TIP3    H147530   0.180   6.747   5.806 -2.2623 -1.5767  0.3335
 8705TIP3    H247531   0.251   6.643   5.722 -1.8067 -0.3546 -0.8199
 8706TIP3   OH247532   2.874   5.366  14.509  0.2060  0.1637 -0.6800
 8706TIP3    H147533   2.826   5.371  14.426  1.1212  2.8841 -1.1588
 8706TIP3    H247534   2.847   5.444  14.557  0.9432 -0.5071  0.8901
 8707TIP3   OH247535   4.032   6.019   5.658 -0.1884  0.8954  0.5635
 8707TIP3    H147536   4.051   6.032   5.751 -1.7957  2.0355  0.7757
 8707TIP3    H247537   3.994   5.932   5.653 -1.3330  1.3405  1.2081
 8708TIP3   OH247538   4.818   3.476   2.048  0.2053  0.2388 -0.2293
 8708TIP3    H147539   4.869   3.554   2.069  0.9159 -0.0230 -0.9187
 8708TIP3    H247540   4.734   3.510   2.016  0.7034  0.7509 -1.0256
 8709TIP3   OH247541   2.759   4.332  11.786 -0.5142 -0.0767 -0.0342
 8709TIP3    H147542   2.743   4.397  11.717  3.0637 -0.7097 -1.6620
 8709TIP3    H247543   2.776   4.384  11.864 -0.3433  0.8330 -0.6565
 8710TIP3   OH247544   4.780   4.868  14.794 -0.2939  0.3452 -0.3081
 8710TIP3    H147545   4.773   4.773  14.789 -0.7875  0.2144  1.9064
 8710TIP3    H247546   4.866   4.888  14.758  0.9188 -1.2124  1.5228
 8711TIP3   OH247547   2.636   0.489   6.183  0.1670  0.7345  0.2022
 8711TIP3    H147548   2.602   0.560   6.128  0.7134  0.3731 -0.6220
 8711TIP3    H247549   2.692   0.533   6.247  1.2318  0.9915 -0.8675
 8712TIP3   OH247550   0.161   0.023   2.080 -0.0016  0.3736 -0.7165
 8712TIP3    H147551   0.207   0.014   2.163 -0.1595  1.0433 -0.5519
 8712TIP3    H247552   0.230   0.019   2.014  0.1718  0.3033 -0.5320
 8713TIP3   OH247553   1.618   6.303   3.686  0.1257 -0.0029 -0.4580
 8713TIP3    H147554   1.530   6.294   3.648  0.2821 -0.5431 -0.6950
 8713TIP3    H247555   1.628   6.226   3.742  0.8252 -0.4700 -1.1995
 8714TIP3   OH247556   1.367   0.788   2.592  0.3929  0.2050  0.4654
 8714TIP3    H147557   1.368   0.724   2.521  0.0609  0.8947 -0.1735
 8714TIP3    H247558   1.446   0.770   2.642 -1.0211 -2.5406  1.9714
 8715TIP3   OH247559   1.443   5.676   0.866 -0.6341  0.2744 -0.4504
 8715TIP3    H147560   1.476   5.765   0.879  1.6323 -0.3345 -1.4179
 8715TIP3    H247561   1.442   5.665   0.771  2.2460 -1.7022 -0.3762
 8716TIP3   OH247562   2.011   6.183   3.844 -0.4363  0.2561 -0.4466
 8716TIP3    H147563   1.989   6.206   3.754 -0.3705  2.9403  0.1551
 8716TIP3    H247564   2.106   6.189   3.848 -0.5114  1.3374  0.0607
 8717TIP3   OH247565   2.149   1.208  13.857 -0.4503  0.2784  0.0110
 8717TIP3    H147566   2.100   1.146  13.803  0.2677 -1.2160  1.0258
 8717TIP3    H247567   2.086   1.236  13.923 -0.3765 -0.5168  0.4320
 8718TIP3   OH247568   5.891   3.904  16.003  0.3933  0.6881  0.4796
 8718TIP3    H147569   5.931   3.991  16.006  0.8926  0.5982 -1.7479
 8718TIP3    H247570   5.964   3.843  16.012  0.1114  0.4828  1.4782
 8719TIP3   OH247571   6.661   1.572  16.111 -0.3175 -0.3683  0.2011
 8719TIP3    H147572   6.698   1.516  16.179  1.0904  0.8966  0.5506
 8719TIP3    H247573   6.737   1.597  16.058 -1.1489 -0.0353 -0.8510
 8720TIP3   OH247574   5.427   3.331   0.412 -0.1915  0.5167 -0.5082
 8720TIP3    H147575   5.376   3.379   0.347  2.0055  2.7078 -0.7840
 8720TIP3    H247576   5.518   3.338   0.382  0.5180 -1.7330  0.8243
 8721TIP3   OH247577   4.645   3.462  12.689 -0.1924  0.0272  0.0261
 8721TIP3    H147578   4.580   3.407  12.644 -1.2817 -0.2566  1.8548
 8721TIP3    H247579   4.678   3.407  12.759 -0.7987  1.4319  1.4762
 8722TIP3   OH247580   4.306   5.817  10.688 -0.1490  0.4492 -0.4524
 8722TIP3    H147581   4.399   5.796  10.703 -0.1376 -1.2180 -2.3796
 8722TIP3    H247582   4.264   5.801  10.772  1.4276  2.3878  0.8020
 8723TIP3   OH247583   2.446   5.862   4.208 -0.0390  0.1229 -0.2430
 8723TIP3    H147584   2.436   5.951   4.175 -0.4426  0.7050  1.3244
 8723TIP3    H247585   2.360   5.840   4.243  0.5495 -0.0810  1.1676
 8724TIP3   OH247586   1.066   2.037  16.407 -0.4788  0.2187 -0.5530
 8724TIP3    H147587   1.042   1.953  16.446  1.2079  0.4690  1.2132
 8724TIP3    H247588   1.025   2.102  16.464  1.1110  0.5757  0.2606
 8725TIP3   OH247589   0.593   1.422  11.475 -0.3494  0.6591  0.7135
 8725TIP3    H147590   0.552   1.508  11.465  1.2048  1.3694  0.1277
 8725TIP3    H247591   0.530   1.361  11.436 -1.5911  1.4725  1.3812
 8726TIP3   OH247592   5.096   0.891   3.615 -0.6353 -0.2077  0.0786
 8726TIP3    H147593   5.179   0.920   3.579 -0.9541  1.9266  0.8882
 8726TIP3    H247594   5.117   0.862   3.704 -0.4701 -1.6540 -0.4077
 8727TIP3   OH247595   2.999   1.729  12.294 -0.4880 -0.2261 -0.1518
 8727TIP3    H147596   3.082   1.777  12.293 -1.4883  1.5856  0.0429
 8727TIP3    H247597   2.955   1.760  12.373 -0.3708 -2.9946  1.0949
 8728TIP3   OH247598   1.214   1.520   1.240  0.1945  0.4144 -0.2262
 8728TIP3    H147599   1.291   1.479   1.278  1.1633  2.2547 -0.0883
 8728TIP3    H247600   1.151   1.525   1.312  0.0472 -0.7847 -0.2530
 8729TIP3   OH247601   0.970   0.940  16.699  0.6104 -0.7817  0.4778
 8729TIP3    H147602   0.972   0.896  16.615  1.1773 -0.2885  0.2265
 8729TIP3    H247603   0.923   0.880  16.757 -0.5131 -0.7686 -0.3820
 8730TIP3   OH247604   0.147   1.643  14.134  0.5780  0.0184  0.5917
 8730TIP3    H147605   0.087   1.711  14.167  1.4538  1.2907 -0.3384
 8730TIP3    H247606   0.101   1.605  14.059  0.1836 -0.2697  0.9715
 8731TIP3   OH247607   0.073   2.384  14.404  0.2122  0.5238  0.0438
 8731TIP3    H147608   0.104   2.314  14.346 -1.4768 -0.0502 -0.2359
 8731TIP3    H247609   0.052   2.456  14.345 -1.2509  0.0346 -0.0871
 8732TIP3   OH247610   3.549   6.747   6.156 -0.1344 -0.1037  0.1486
 8732TIP3    H147611   3.632   6.792   6.139 -0.3981 -0.3256 -1.9437
 8732TIP3    H247612   3.483   6.799   6.111 -1.1577  0.0072  1.7012
 8733TIP3   OH247613   3.182   1.383  15.719 -0.2836  0.1722 -0.4325
 8733TIP3    H147614   3.147   1.456  15.770  1.9084  1.0670 -0.1197
 8733TIP3    H247615   3.190   1.417  15.630 -0.2964 -0.0633 -0.5249
 8734TIP3   OH247616   5.260   1.180   5.355  0.3587  0.0085  0.2098
 8734TIP3    H147617   5.343   1.147   5.389  0.2215 -0.4097  0.1378
 8734TIP3    H247618   5.206   1.102   5.343  0.5565  0.0818 -1.4026
 8735TIP3   OH247619   0.943   0.865   2.806  0.3149  0.4594 -0.0348
 8735TIP3    H147620   0.917   0.898   2.892  0.2786 -0.3053  0.2514
 8735TIP3    H247621   0.865   0.820   2.773  1.1781 -1.7523  0.7790
 8736TIP3   OH247622   4.407   2.486  15.592 -0.0360 -0.6585 -0.1754
 8736TIP3    H147623   4.337   2.422  15.578  1.5976 -2.3158 -1.1852
 8736TIP3    H247624   4.446   2.498  15.506  0.7532  0.4526  0.3189
 8737TIP3   OH247625   5.638   3.343  13.594 -0.2592  0.3788  0.4043
 8737TIP3    H147626   5.653   3.398  13.518  1.2375 -0.1576  0.2750
 8737TIP3    H247627   5.722   3.342  13.640 -0.3637 -1.4228  0.6362
 8738TIP3   OH247628   2.987   4.202  13.533  0.3616  0.1245 -0.4374
 8738TIP3    H147629   2.936   4.181  13.612 -0.1377 -0.9699 -1.0186
 8738TIP3    H247630   3.050   4.267  13.562  2.0085 -2.1794  1.5819
 8739TIP3   OH247631   6.528   0.154   2.160 -0.4111  0.0146  0.1555
 8739TIP3    H147632   6.493   0.088   2.221 -3.3009  2.7658  1.8018
 8739TIP3    H247633   6.450   0.195   2.123  1.2537  2.1772 -1.1739
 8740TIP3   OH247634   1.533   3.082   1.910 -0.2664 -0.0758 -0.4470
 8740TIP3    H147635   1.475   3.025   1.859  0.5581 -0.8069 -0.5919
 8740TIP3    H247636   1.559   3.029   1.985 -1.1508  0.8596  0.5484
 8741TIP3   OH247637   3.030   6.302   0.713 -0.1890  0.3256  0.2106
 8741TIP3    H147638   3.044   6.318   0.806  0.0262  1.8194 -0.0466
 8741TIP3    H247639   3.052   6.385   0.671 -1.1573 -0.0396 -1.0883
 8742TIP3   OH247640   5.641   3.251  13.048 -0.3133 -0.4080 -0.5386
 8742TIP3    H147641   5.661   3.158  13.062  2.3832 -0.1750 -2.0010
 8742TIP3    H247642   5.712   3.297  13.093 -0.6419  0.8625 -1.2717
 8743TIP3   OH247643   3.068   5.875   1.091 -0.5146 -0.4406 -0.2076
 8743TIP3    H147644   3.044   5.794   1.046  0.9913 -1.4646  0.7223
 8743TIP3    H247645   3.093   5.935   1.021 -2.9264 -0.2513 -1.0108
 8744TIP3   OH247646   5.361   2.988   2.531 -0.0569  0.3337  0.1119
 8744TIP3    H147647   5.455   2.977   2.516  0.2082  1.1439  1.0977
 8744TIP3    H247648   5.321   2.920   2.478  0.8908  1.8278 -2.7161
 8745TIP3   OH247649   3.104   1.017   4.772 -0.8831 -0.1866 -0.1296
 8745TIP3    H147650   3.067   0.960   4.706  0.1086 -2.2195  0.9760
 8745TIP3    H247651   3.116   0.961   4.849  3.5023  0.4076 -0.0812
 8746TIP3   OH247652   4.801   1.900   2.386  0.0466 -0.2659 -0.5914
 8746TIP3    H147653   4.888   1.891   2.348  1.0651  0.5420  1.3995
 8746TIP3    H247654   4.785   1.817   2.430  0.4028  0.0534  0.1558
 8747TIP3   OH247655   4.146   3.368   0.335  1.2189 -0.0852  0.5064
 8747TIP3    H147656   4.136   3.454   0.375  1.5352 -0.1722  0.7783
 8747TIP3    H247657   4.215   3.326   0.386  0.6377 -0.7366  0.7582
 8748TIP3   OH247658   6.281   2.387  14.136 -0.4395 -0.4020 -0.3682
 8748TIP3    H147659   6.359   2.443  14.141 -1.6971  1.5185 -1.1701
 8748TIP3    H247660   6.241   2.393  14.222 -1.4837  1.4201 -0.9207
 8749TIP3   OH247661   5.078   4.681  13.454 -0.1276 -0.0097 -0.4459
 8749TIP3    H147662   5.149   4.616  13.457  0.2547  0.2025 -2.9052
 8749TIP3    H247663   5.088   4.723  13.369 -3.1220  0.1316 -0.8187
 8750TIP3   OH247664   2.547   3.158  15.003 -0.2421 -0.1206  0.1406
 8750TIP3    H147665   2.479   3.112  14.953 -0.4549 -1.8944  1.9625
 8750TIP3    H247666   2.507   3.172  15.089  0.4658  1.9973  0.1829
 8751TIP3   OH247667   5.625   6.761   3.127  0.2389 -0.4332  0.0838
 8751TIP3    H147668   5.619   6.668   3.102  0.2649 -0.5210  0.3982
 8751TIP3    H247669   5.689   6.798   3.066  2.5996 -1.3104  1.8670
 8752TIP3   OH247670   3.498   5.384   1.352 -0.0936  0.0021  0.5991
 8752TIP3    H147671   3.552   5.371   1.274 -0.0229 -1.6362  0.8855
 8752TIP3    H247672   3.557   5.421   1.417 -0.1467  1.3594 -0.0794
 8753TIP3   OH247673   4.016   1.338   2.112 -0.2398 -0.1813  0.1894
 8753TIP3    H147674   3.998   1.330   2.206  0.3197  0.6948  0.3861
 8753TIP3    H247675   3.979   1.423   2.088  0.8837  0.2624 -0.0526
 8754TIP3   OH247676   2.242   5.707  14.398 -0.1382 -0.2178  0.4956
 8754TIP3    H147677   2.177   5.777  14.408 -1.9351 -1.3921 -1.9488
 8754TIP3    H247678   2.316   5.749  14.354 -0.7002  0.4267  0.1388
 8755TIP3   OH247679   1.009   4.077   0.247  0.0638 -0.5127 -0.0973
 8755TIP3    H147680   0.925   4.032   0.259 -0.0555 -0.3146 -0.1729
 8755TIP3    H247681   1.006   4.149   0.310 -0.7897  0.8568 -1.6108
 8756TIP3   OH247682   6.402   0.062   4.099  0.2640  0.1078 -0.2264
 8756TIP3    H147683   6.450   0.136   4.137 -0.1393 -0.0030  0.5149
 8756TIP3    H247684   6.317   0.098   4.073  0.6699  0.2690 -1.3954
 8757TIP3   OH247685   4.672   6.295  10.962 -0.1650 -0.3548  0.1912
 8757TIP3    H147686   4.726   6.373  10.975  0.5022 -0.8494  0.4320
 8757TIP3    H247687   4.705   6.257  10.880 -1.2161  0.1974 -0.5076
 8758TIP3   OH247688   2.629   5.366  15.434 -0.6993  0.1223  0.2622
 8758TIP3    H147689   2.560   5.427  15.406  1.1884  1.9767 -0.5725
 8758TIP3    H247690   2.656   5.322  15.353 -0.0892  0.2942  0.3700
 8759TIP3   OH247691   5.073   1.027   4.802  0.3800  0.0113  0.1361
 8759TIP3    H147692   5.010   0.956   4.788 -0.3374  0.3855  1.2764
 8759TIP3    H247693   5.158   0.988   4.782 -0.0307 -1.0871  0.4433
 8760TIP3   OH247694   3.143   2.561  14.663 -0.7396  0.0542  0.3063
 8760TIP3    H147695   3.138   2.470  14.691  0.5266 -0.6692 -1.5959
 8760TIP3    H247696   3.123   2.559  14.570 -0.0274  1.6307  0.0747
 8761TIP3   OH247697   4.215   2.092  16.431 -0.7586 -0.4734  0.1653
 8761TIP3    H147698   4.156   2.017  16.427 -0.2905 -0.8096 -1.1664
 8761TIP3    H247699   4.282   2.073  16.364 -0.0273  0.6226  0.5605
 8762TIP3   OH247700   6.058   6.068  12.129  0.0986  0.3423 -0.1804
 8762TIP3    H147701   6.096   6.108  12.207  0.7310  0.7909 -0.7024
 8762TIP3    H247702   6.060   6.138  12.063 -2.0395  0.5269 -0.1128
 8763TIP3   OH247703   5.863   3.308   3.301 -0.5905  0.4938  0.5264
 8763TIP3    H147704   5.928   3.351   3.245 -0.8689  1.5634  0.9991
 8763TIP3    H247705   5.781   3.353   3.283 -1.8504 -2.3872 -1.8674
 8764TIP3   OH247706   4.496   5.080  16.177 -0.3956 -0.4327  0.2361
 8764TIP3    H147707   4.520   5.021  16.248 -0.5322 -0.5418  0.1936
 8764TIP3    H247708   4.410   5.115  16.202  0.2643  0.7777  0.9024
 8765TIP3   OH247709   4.668   1.563  16.133  0.5950 -0.6543  0.1745
 8765TIP3    H147710   4.643   1.502  16.064  1.5300 -1.9819  0.9517
 8765TIP3    H247711   4.746   1.523  16.173  1.7439  1.4649  0.1950
 8766TIP3   OH247712   6.282   5.888  12.432 -0.1526  0.2592 -0.8231
 8766TIP3    H147713   6.219   5.817  12.443 -0.3614  0.6731  1.0973
 8766TIP3    H247714   6.229   5.968  12.435  0.4386  0.6561  1.7176
 8767TIP3   OH247715   1.559   2.252  13.232 -0.3984 -0.2237 -0.0475
 8767TIP3    H147716   1.544   2.159  13.218 -0.6423 -0.2013  0.0533
 8767TIP3    H247717   1.479   2.294  13.198 -0.1761 -0.0317 -0.3435
 8768TIP3   OH247718   0.031   2.104  12.237  0.4724 -0.4382  0.4614
 8768TIP3    H147719   0.061   2.157  12.163  0.7137 -1.2403 -0.0408
 8768TIP3    H247720  -0.054   2.141  12.261  0.0978 -0.5406 -0.6403
 8769TIP3   OH247721   6.748   2.607  15.724 -0.5304 -0.1733 -0.2079
 8769TIP3    H147722   6.678   2.668  15.700 -0.4292 -0.1257 -0.3748
 8769TIP3    H247723   6.827   2.643  15.685  0.1816  1.4568  2.4870
 8770TIP3   OH247724   5.960   3.265   1.917 -0.4607  0.0778 -0.4363
 8770TIP3    H147725   6.018   3.231   1.850  1.3656  0.5472  0.8170
 8770TIP3    H247726   6.011   3.334   1.960 -0.4944 -1.7749  3.0149
 8771TIP3   OH247727   2.732   4.304   4.571 -0.0046 -0.1731 -0.3210
 8771TIP3    H147728   2.805   4.261   4.528  0.5379 -0.7800  1.1520
 8771TIP3    H247729   2.654   4.263   4.532  0.3934  0.5005 -1.9122
 8772TIP3   OH247730   2.698   0.667   5.437 -0.3561 -0.1620  0.4810
 8772TIP3    H147731   2.772   0.619   5.400  1.4789  2.9853 -0.3244
 8772TIP3    H247732   2.686   0.629   5.523  2.3141 -0.7988  0.6775
 8773TIP3   OH247733   6.417   5.423   3.289 -0.0982 -0.4153  0.3012
 8773TIP3    H147734   6.341   5.481   3.294 -0.2938 -0.2897 -2.6087
 8773TIP3    H247735   6.486   5.469   3.338 -1.5440 -0.0606  2.1174
 8774TIP3   OH247736   3.833   3.292   1.833 -0.7435  0.3590  0.2991
 8774TIP3    H147737   3.898   3.276   1.901  0.1846  2.3458 -0.0562
 8774TIP3    H247738   3.833   3.211   1.781  1.0599  0.0927  0.6314
 8775TIP3   OH247739   2.941   2.376  14.205  0.2347 -0.2469 -0.0479
 8775TIP3    H147740   2.949   2.310  14.135 -1.8471 -0.3988 -0.2067
 8775TIP3    H247741   2.853   2.412  14.193  0.6128  1.1912  1.2597
 8776TIP3   OH247742   2.285   0.174   5.146  0.0844 -0.4557  0.6546
 8776TIP3    H147743   2.282   0.266   5.170 -2.0908 -0.8076  1.9600
 8776TIP3    H247744   2.208   0.161   5.091  0.8140 -1.3624 -0.2151
 8777TIP3   OH247745   3.432   0.788  11.264 -0.1636 -0.6093 -0.1649
 8777TIP3    H147746   3.424   0.697  11.290  1.0052  0.0125  2.8045
 8777TIP3    H247747   3.350   0.829  11.292 -0.2931 -0.5537 -0.6154
 8778TIP3   OH247748   3.662   0.967   5.623 -0.2831 -0.1070  0.4898
 8778TIP3    H147749   3.666   0.926   5.536 -1.6587  0.5602  0.0797
 8778TIP3    H247750   3.711   0.908   5.680 -2.4489 -2.5664 -0.0013
 8779TIP3   OH247751   0.698   4.911   2.541 -0.3751 -0.2619  0.6672
 8779TIP3    H147752   0.748   4.887   2.463 -0.4046 -0.0537  0.5824
 8779TIP3    H247753   0.764   4.930   2.608 -0.2731  1.4970  0.1248
 8780TIP3   OH247754   4.189   1.895  15.302 -0.6223 -1.0261 -0.1907
 8780TIP3    H147755   4.278   1.920  15.328 -0.6242 -0.6251 -0.5496
 8780TIP3    H247756   4.196   1.805  15.272 -0.4277 -1.1525  0.2378
 8781TIP3   OH247757   2.976   0.457   3.295  0.0939  0.6736  1.1194
 8781TIP3    H147758   2.928   0.374   3.303  1.2188 -0.2053 -0.5786
 8781TIP3    H247759   2.946   0.509   3.370 -3.1430  0.0365  0.4311
 8782TIP3   OH247760   1.163   4.240   5.117 -0.1584 -0.1177 -0.0853
 8782TIP3    H147761   1.141   4.227   5.210  0.5037 -0.9980 -0.0309
 8782TIP3    H247762   1.203   4.157   5.091 -1.3686 -0.2866 -1.4822
 8783TIP3   OH247763   6.478   0.351   5.724 -0.1048  1.0682 -0.2726
 8783TIP3    H147764   6.492   0.290   5.797  0.0558 -0.4808 -1.5449
 8783TIP3    H247765   6.567   0.375   5.697 -0.1317  0.6970 -0.7020
 8784TIP3   OH247766   2.277   4.043   1.728  0.1239 -0.4791 -0.4158
 8784TIP3    H147767   2.292   3.949   1.719  0.2518 -0.4327 -0.7213
 8784TIP3    H247768   2.364   4.080   1.741  0.2091 -0.2864 -1.4485
 8785TIP3   OH247769   2.589   0.418  15.604 -0.4250 -0.3889 -0.7316
 8785TIP3    H147770   2.571   0.330  15.636 -0.4238  0.3747  1.5664
 8785TIP3    H247771   2.673   0.411  15.559 -0.6580 -1.6471 -0.9909
 8786TIP3   OH247772   2.679   4.516  10.861  1.2787  0.2113 -0.7735
 8786TIP3    H147773   2.728   4.575  10.918 -0.7815  0.2946  1.0514
 8786TIP3    H247774   2.739   4.495  10.790  3.0078  2.3265 -0.0309
 8787TIP3   OH247775   6.774   0.236   5.832 -0.1856  0.3108  0.5421
 8787TIP3    H147776   6.756   0.148   5.799  3.1772  0.2440 -1.6752
 8787TIP3    H247777   6.730   0.294   5.771  0.4105  0.1419 -0.0605
 8788TIP3   OH247778   1.375   3.354  13.893  0.1799 -0.7254 -0.5902
 8788TIP3    H147779   1.294   3.380  13.849  0.9541  2.3149 -0.4416
 8788TIP3    H247780   1.444   3.397  13.844  1.6297 -2.1741  0.0854
 8789TIP3   OH247781   4.944   5.443  14.651 -0.2833  0.3840 -0.6945
 8789TIP3    H147782   4.953   5.530  14.611  0.1957  0.0906 -1.2495
 8789TIP3    H247783   4.853   5.418  14.635 -0.1108  0.2901 -1.5877
 8790TIP3   OH247784   5.421   0.777   0.729  0.1987 -0.8388  0.2631
 8790TIP3    H147785   5.379   0.762   0.813  1.6907  2.5538  1.8072
 8790TIP3    H247786   5.495   0.716   0.728 -0.3575 -1.5431  0.9777
 8791TIP3   OH247787   5.803   2.554  11.246  0.0642  0.4807  0.8110
 8791TIP3    H147788   5.748   2.495  11.194  0.1570 -1.2579  2.5635
 8791TIP3    H247789   5.882   2.565  11.194 -0.0489 -0.7999  0.3268
 8792TIP3   OH247790   6.013   2.175   5.634 -0.2121  0.0188 -0.5392
 8792TIP3    H147791   5.965   2.202   5.712 -2.2708 -0.1962 -1.6703
 8792TIP3    H247792   6.104   2.194   5.654 -0.7503  0.4483  1.7045
 8793TIP3   OH247793   3.661   4.710   5.256  0.4192 -0.0061  0.0515
 8793TIP3    H147794   3.631   4.694   5.345  0.4936 -0.7811 -0.0558
 8793TIP3    H247795   3.710   4.631   5.233  2.1544  1.0163  0.0658
 8794TIP3   OH247796   3.306   4.800   5.750 -0.0282 -0.1139  0.3209
 8794TIP3    H147797   3.353   4.801   5.833  0.2414 -2.0900  0.2493
 8794TIP3    H247798   3.373   4.781   5.685 -0.3838  0.5190 -0.2414
 8795TIP3   OH247799   3.413   1.850   1.799  0.1314 -0.2286 -0.3321
 8795TIP3    H147800   3.328   1.881   1.770 -0.3493 -1.7325 -0.6308
 8795TIP3    H247801   3.471   1.926   1.789 -1.0936  0.7275 -0.4070
 8796TIP3   OH247802   0.964   2.252  16.537  0.0293 -0.1237  0.1683
 8796TIP3    H147803   1.024   2.308  16.588  0.7547 -0.2525 -0.5140
 8796TIP3    H247804   0.916   2.202  16.603  0.4344  0.2297  0.7466
 8797TIP3   OH247805   0.254   6.513   5.033  0.5236 -0.4999  0.4760
 8797TIP3    H147806   0.228   6.518   5.125 -0.6559  0.0368  0.1279
 8797TIP3    H247807   0.173   6.496   4.986  0.7872  1.2072 -0.6659
 8798TIP3   OH247808   4.549   1.483  10.342 -0.2099 -0.6137  0.2128
 8798TIP3    H147809   4.479   1.422  10.318 -0.6178  0.2438 -0.8461
 8798TIP3    H247810   4.546   1.551  10.274  0.7713  0.1463  0.9065
 8799TIP3   OH247811   4.022   5.784   3.760 -0.3091 -0.7121 -0.2449
 8799TIP3    H147812   3.936   5.752   3.734 -0.6528 -1.2703  1.4473
 8799TIP3    H247813   4.013   5.880   3.760 -0.9841 -0.7721  0.0844
 8800TIP3   OH247814   3.509   2.236  11.665 -0.6816  0.2205 -0.1872
 8800TIP3    H147815   3.440   2.231  11.731 -0.3169  0.0155  0.1817
 8800TIP3    H247816   3.507   2.327  11.635  1.6633  1.4759  2.8789
 8801TIP3   OH247817   1.219   0.254   3.580  0.0855 -0.1825  0.7332
 8801TIP3    H147818   1.200   0.341   3.543 -1.8699 -1.4987 -1.6786
 8801TIP3    H247819   1.303   0.229   3.541 -0.0517  0.0424  0.2864
 8802TIP3   OH247820   1.865   3.679  13.887  0.2005  0.2364  0.1161
 8802TIP3    H147821   1.852   3.592  13.924 -0.5920 -0.0870 -0.8952
 8802TIP3    H247822   1.949   3.674  13.841 -0.2542 -0.2683 -0.6782
 8803TIP3   OH247823   4.958   6.018  12.072 -0.4051  0.6392  0.4897
 8803TIP3    H147824   4.937   5.969  12.151  2.4584 -0.2074  0.8430
 8803TIP3    H247825   4.998   6.099  12.104  0.7135  0.3248 -0.0641
 8804TIP3   OH247826   5.483   3.413  15.039 -0.6951  0.0592 -0.2927
 8804TIP3    H147827   5.430   3.488  15.066 -0.9506 -0.9838  2.4069
 8804TIP3    H247828   5.443   3.384  14.957 -1.0374  2.3830 -1.0074
 8805TIP3   OH247829   0.124   1.473  16.301 -0.1521 -0.3326 -0.2148
 8805TIP3    H147830   0.069   1.443  16.373 -1.3928  1.2769 -0.4311
 8805TIP3    H247831   0.170   1.548  16.336 -1.4826  1.0647 -1.3019
 8806TIP3   OH247832   3.266   3.518   2.079  0.1286 -0.3760  0.1675
 8806TIP3    H147833   3.312   3.439   2.051  1.6860  0.8315 -0.8032
 8806TIP3    H247834   3.197   3.530   2.014  0.5775 -0.3440 -0.3062
 8807TIP3   OH247835   4.246   4.575  16.653  0.4630 -0.2393  0.4275
 8807TIP3    H147836   4.311   4.533  16.597  0.1431  0.5184 -0.5342
 8807TIP3    H247837   4.162   4.541  16.622  0.3319 -0.5071  1.0566
 8808TIP3   OH247838   3.752   4.349   1.407  0.2062  0.2363 -0.2223
 8808TIP3    H147839   3.818   4.384   1.347 -0.6682 -0.0562 -1.3931
 8808TIP3    H247840   3.670   4.389   1.378 -0.3066 -0.2613  0.5061
 8809TIP3   OH247841   1.206   1.569   0.384  0.0239  0.2141 -0.0721
 8809TIP3    H147842   1.247   1.485   0.409  0.1234  0.7020  1.5515
 8809TIP3    H247843   1.113   1.549   0.376 -0.0775  0.0743  1.1413
 8810TIP3   OH247844   5.997   3.644   6.471  0.2227 -0.0738 -0.1126
 8810TIP3    H147845   6.090   3.642   6.451  0.4884 -1.5070  1.1053
 8810TIP3    H247846   5.958   3.580   6.410  0.1833 -0.1973  0.0422
 8811TIP3   OH247847   0.344   5.520  13.524 -0.2259 -0.2981 -0.1854
 8811TIP3    H147848   0.390   5.600  13.550 -0.3787 -0.6045  1.0991
 8811TIP3    H247849   0.373   5.454  13.587  1.4059 -1.8065 -2.3416
 8812TIP3   OH247850   0.460   0.785  10.967  0.0499 -0.8707 -0.3678
 8812TIP3    H147851   0.419   0.701  10.944 -0.0100 -0.9852  0.1413
 8812TIP3    H247852   0.399   0.851  10.935 -0.2813 -1.0344 -0.0796
 8813TIP3   OH247853   2.094   5.635  11.784 -0.9518 -0.0049  0.0848
 8813TIP3    H147854   2.041   5.565  11.745 -2.8771  0.9363  0.8751
 8813TIP3    H247855   2.064   5.715  11.741 -1.4190  0.7555  1.7317
 8814TIP3   OH247856   1.043   2.923  11.785  0.0303 -0.8052  1.0604
 8814TIP3    H147857   1.125   2.960  11.818  1.6340 -3.0546 -0.1433
 8814TIP3    H247858   1.052   2.926  11.690 -2.6930  1.7051  0.7419
 8815TIP3   OH247859   0.162   6.550   4.345  0.3306 -0.7452  0.2867
 8815TIP3    H147860   0.187   6.504   4.425  0.4128  0.5312  1.0093
 8815TIP3    H247861   0.202   6.497   4.275  0.5068 -1.7116  1.0865
 8816TIP3   OH247862   4.945   4.072  13.865 -0.1404 -0.3110  0.5405
 8816TIP3    H147863   4.903   4.151  13.830  0.4041 -0.0004  0.5819
 8816TIP3    H247864   4.917   4.002  13.805 -0.7583 -0.1222  0.5973
 8817TIP3   OH247865   3.810   2.225  11.357 -0.5397  0.4405 -0.1569
 8817TIP3    H147866   3.730   2.191  11.397 -0.7036 -1.2243 -1.7889
 8817TIP3    H247867   3.877   2.215  11.425 -0.7711 -2.4509 -0.2569
 8818TIP3   OH247868   0.980   4.535   4.612  0.5031  0.2002  0.2095
 8818TIP3    H147869   1.000   4.500   4.699  1.8662 -3.1541 -1.3004
 8818TIP3    H247870   1.014   4.470   4.551 -3.6689  0.4854 -2.8882
 8819TIP3   OH247871   1.523   1.149  12.720 -0.0231  0.0328  0.3146
 8819TIP3    H147872   1.608   1.192  12.714  0.2913 -0.6487 -0.2597
 8819TIP3    H247873   1.536   1.075  12.779 -0.9281  1.5149  2.5136
 8820TIP3   OH247874   2.668   5.963   2.128  0.2675 -0.3024 -0.0244
 8820TIP3    H147875   2.749   5.965   2.078  0.8989  0.9979  0.9667
 8820TIP3    H247876   2.603   5.928   2.068  1.5775 -1.4800 -0.8071
 8821TIP3   OH247877   3.250   5.560  11.813  0.6718 -0.6559  0.1170
 8821TIP3    H147878   3.220   5.511  11.890 -2.0055 -0.3008 -0.5706
 8821TIP3    H247879   3.231   5.503  11.739  0.5765  0.0964 -0.4572
 8822TIP3   OH247880   6.375   1.525   5.712  0.1121 -0.2746 -0.3455
 8822TIP3    H147881   6.428   1.569   5.779 -3.0112  2.8657  0.3218
 8822TIP3    H247882   6.318   1.467   5.762 -0.2219 -0.1386 -0.5674
 8823TIP3   OH247883   4.778   3.706   1.145  0.3251 -0.5534  0.1211
 8823TIP3    H147884   4.741   3.788   1.177  1.3258  0.5478 -1.4012
 8823TIP3    H247885   4.869   3.727   1.125  0.6408 -2.0810 -0.1610
 8824TIP3   OH247886   5.292   6.031   1.731  0.2826 -0.3492 -0.2302
 8824TIP3    H147887   5.270   5.981   1.652  2.0676  0.0587 -1.0172
 8824TIP3    H247888   5.289   6.122   1.703  2.6424 -0.2490 -0.3486
 8825TIP3   OH247889   2.523   1.832   5.607  0.5782  0.0471  0.8798
 8825TIP3    H147890   2.605   1.828   5.558  0.0206 -2.7227 -0.0504
 8825TIP3    H247891   2.516   1.923   5.636  3.5640  0.5461  0.3494
 8826TIP3   OH247892   5.390   2.336  13.525 -0.1506  0.9235 -0.2223
 8826TIP3    H147893   5.374   2.268  13.460 -0.1047  2.4534 -1.9015
 8826TIP3    H247894   5.459   2.300  13.581 -0.5278 -0.6133 -0.7029
 8827TIP3   OH247895   3.996   2.258   2.460 -0.2377 -0.1816 -0.2975
 8827TIP3    H147896   4.066   2.224   2.516 -0.4765 -0.2545 -0.0392
 8827TIP3    H247897   3.925   2.195   2.469 -0.6453  0.3186  0.1031
 8828TIP3   OH247898   2.275   3.230   2.460  0.1226 -0.1859  0.6696
 8828TIP3    H147899   2.289   3.298   2.526  0.8802  0.7416 -0.3937
 8828TIP3    H247900   2.353   3.175   2.466  0.4552  0.2182  0.2147
 8829TIP3   OH247901   5.748   0.738   0.630 -0.1788 -0.2497  0.1771
 8829TIP3    H147902   5.795   0.690   0.698  0.7112 -0.2456 -0.4122
 8829TIP3    H247903   5.765   0.830   0.650 -0.9573 -0.1992  0.6590
 8830TIP3   OH247904   2.602   4.032   3.856  0.1603 -0.1235  0.4162
 8830TIP3    H147905   2.607   4.052   3.949 -0.0017  0.4165  0.3108
 8830TIP3    H247906   2.564   3.945   3.852  1.2641 -0.6435  0.9053
 8831TIP3   OH247907   4.907   0.593   1.954  0.1865  0.4166  0.1107
 8831TIP3    H147908   4.906   0.613   2.048 -0.1472 -0.5730  0.3386
 8831TIP3    H247909   4.841   0.524   1.945  2.2296 -1.5631 -0.3649
 8832TIP3   OH247910   2.713   0.541   1.243  0.0558  0.4648 -0.5242
 8832TIP3    H147911   2.771   0.617   1.238 -1.6663  1.8423 -0.3454
 8832TIP3    H247912   2.698   0.529   1.337 -1.0886  1.0655 -0.6093
 8833TIP3   OH247913   3.466   4.461  16.544  0.7788 -0.5181  0.5122
 8833TIP3    H147914   3.485   4.419  16.460 -0.0181 -1.3190  0.7123
 8833TIP3    H247915   3.434   4.389  16.600 -0.3964  0.3117  0.9449
 8834TIP3   OH247916   3.141   0.405  15.493 -0.3093  0.1036  0.5213
 8834TIP3    H147917   3.089   0.439  15.421  1.1593 -0.7286 -0.9985
 8834TIP3    H247918   3.187   0.481  15.528  0.1630  0.2830 -0.4655
 8835TIP3   OH247919   5.423   3.200  13.227 -0.7409  0.5761 -0.0148
 8835TIP3    H147920   5.504   3.222  13.180 -0.8279 -0.0838 -0.4835
 8835TIP3    H247921   5.433   3.242  13.312 -0.4012  1.4607 -0.4743
 8836TIP3   OH247922   4.755   1.970   3.242 -0.1512 -0.1367 -0.1904
 8836TIP3    H147923   4.823   2.036   3.229  0.3109 -0.3476  0.9863
 8836TIP3    H247924   4.785   1.920   3.318  0.0599 -2.4411 -1.7116
 8837TIP3   OH247925   2.204   5.551  15.998  0.2037  0.5560  0.3525
 8837TIP3    H147926   2.138   5.567  16.066  1.8313  1.6274  1.7540
 8837TIP3    H247927   2.196   5.624  15.938  0.6895  1.1868  1.0334
 8838TIP3   OH247928   0.506   1.631   1.789  0.8224  0.1853  0.2843
 8838TIP3    H147929   0.483   1.622   1.881 -0.7263  1.4107  0.0675
 8838TIP3    H247930   0.599   1.654   1.790  1.5296 -2.3868  1.3541
 8839TIP3   OH247931   4.164   3.528   2.407  0.2881  0.1071 -0.3002
 8839TIP3    H147932   4.112   3.538   2.327  2.0221 -0.1718 -1.5003
 8839TIP3    H247933   4.220   3.606   2.409  0.1217  0.2126  0.7716
 8840TIP3   OH247934   4.311   3.493  16.679 -0.0744 -0.1030 -0.3977
 8840TIP3    H147935   4.384   3.527  16.626 -0.4217  0.6850 -0.3916
 8840TIP3    H247936   4.249   3.566  16.682  0.1047  0.0124  1.4393
 8841TIP3   OH247937   0.808   2.624  11.029  0.4027  0.3592 -0.7417
 8841TIP3    H147938   0.825   2.692  11.093  2.5293  0.8848 -1.7963
 8841TIP3    H247939   0.885   2.623  10.972 -1.0882 -0.5277 -2.9129
 8842TIP3   OH247940   5.058   4.905  12.710  0.3300 -0.0635 -0.0038
 8842TIP3    H147941   4.985   4.910  12.772 -0.3281  0.6603 -0.7957
 8842TIP3    H247942   5.018   4.927  12.626  1.3573 -0.2516 -0.5518
 8843TIP3   OH247943   6.308   2.675   4.698  0.4572 -0.2877 -0.3378
 8843TIP3    H147944   6.384   2.646   4.749  0.7669 -2.1865 -1.7593
 8843TIP3    H247945   6.327   2.766   4.676  1.5507 -0.2504  0.6634
 8844TIP3   OH247946   6.376   0.433   4.929  0.1696 -0.3204  0.4821
 8844TIP3    H147947   6.386   0.338   4.922  0.2916 -0.2526 -0.4264
 8844TIP3    H247948   6.451   0.461   4.982  1.0054 -0.5725 -0.5436
 8845TIP3   OH247949   2.318   5.513   0.182 -0.1271 -0.3720  0.2445
 8845TIP3    H147950   2.412   5.525   0.198 -0.1301 -1.3855  1.1190
 8845TIP3    H247951   2.301   5.422   0.204 -1.4162 -0.0738  0.5718
 8846TIP3   OH247952   3.785   4.208  12.707  0.4854 -0.0690 -0.6047
 8846TIP3    H147953   3.745   4.164  12.783  0.4661 -0.9552 -1.1094
 8846TIP3    H247954   3.879   4.194  12.720  0.5623  0.8449 -0.1179
 8847TIP3   OH247955   5.737   3.953   2.565  0.4566  0.0099 -0.5407
 8847TIP3    H147956   5.772   3.958   2.654  0.0043  1.0043 -0.4097
 8847TIP3    H247957   5.806   3.991   2.510 -0.3812  2.0591 -0.2722
 8848TIP3   OH247958   1.563   6.673   3.447  0.0682 -0.0750 -0.8176
 8848TIP3    H147959   1.501   6.700   3.379 -0.0386 -2.3705 -1.7431
 8848TIP3    H247960   1.623   6.747   3.455 -1.8068  1.5765 -1.0369
 8849TIP3   OH247961   0.356   4.794  16.172  0.3230  0.2415 -0.9096
 8849TIP3    H147962   0.369   4.733  16.245  1.2427  2.0651  0.5216
 8849TIP3    H247963   0.263   4.787  16.152 -0.0898  0.1251  0.8590
 8850TIP3   OH247964   6.720   0.796   2.050  0.2063  0.0570 -0.2466
 8850TIP3    H147965   6.702   0.854   2.124 -1.4115 -1.1149  0.3331
 8850TIP3    H247966   6.808   0.821   2.020  0.4593  1.2592  1.3972
 8851TIP3   OH247967   1.834   4.847  10.976 -0.3848  0.1932 -0.0097
 8851TIP3    H147968   1.858   4.922  10.921  0.6672  1.8516  2.4852
 8851TIP3    H247969   1.790   4.886  11.052 -1.4539 -1.9233  0.5459
 8852TIP3   OH247970   3.253   5.827   4.264  0.2882 -0.5140 -0.4924
 8852TIP3    H147971   3.294   5.828   4.177  0.8922 -1.9074 -0.2302
 8852TIP3    H247972   3.306   5.887   4.316 -0.4092  0.7809 -1.1999
 8853TIP3   OH247973   4.619   4.761  16.191 -0.1763 -0.2751 -0.0373
 8853TIP3    H147974   4.642   4.782  16.100 -2.5116  3.0273 -0.0537
 8853TIP3    H247975   4.693   4.793  16.242 -0.1932  0.8188 -0.6492
 8854TIP3   OH247976   6.561   5.511  14.315  0.1971 -0.3475 -0.1019
 8854TIP3    H147977   6.484   5.558  14.283  0.1471  0.6778  1.4646
 8854TIP3    H247978   6.559   5.428  14.266 -0.5426  0.6184 -1.8211
 8855TIP3   OH247979   0.782   2.601   5.829 -0.7441 -0.1075 -0.1766
 8855TIP3    H147980   0.784   2.610   5.924 -0.0547 -0.0006 -0.1917
 8855TIP3    H247981   0.689   2.599   5.806 -0.9158 -1.3465  0.5971
 8856TIP3   OH247982   4.283   5.328   4.418 -0.3016 -0.1766  0.0545
 8856TIP3    H147983   4.280   5.233   4.428 -0.4449 -0.0263  1.8564
 8856TIP3    H247984   4.193   5.356   4.431  0.1534  0.3875  2.4134
 8857TIP3   OH247985   4.099   2.110   5.712  0.1820 -0.0229 -0.6362
 8857TIP3    H147986   4.058   2.057   5.779  0.1927 -0.2643 -0.8178
 8857TIP3    H247987   4.120   2.193   5.755  0.2114 -0.1861 -0.3395
 8858TIP3   OH247988   1.456   1.289   3.661 -0.1259 -0.2986 -0.7787
 8858TIP3    H147989   1.432   1.363   3.606  0.9105 -0.8236 -1.9664
 8858TIP3    H247990   1.372   1.255   3.693 -0.7801 -0.2280 -2.3598
 8859TIP3   OH247991   3.510   3.569   3.391 -0.3923  0.3631 -0.1717
 8859TIP3    H147992   3.419   3.539   3.395 -0.0768 -0.6326 -0.4202
 8859TIP3    H247993   3.560   3.494   3.359  0.8548  0.1515  2.0592
 8860TIP3   OH247994   2.421   1.577   4.294  0.3071 -0.3152 -0.0592
 8860TIP3    H147995   2.496   1.518   4.284 -0.4115 -1.4823  1.2291
 8860TIP3    H247996   2.356   1.526   4.342 -1.2973  0.7134 -1.0507
 8861TIP3   OH247997   2.507   3.859   5.465  0.1431 -0.3022 -0.0341
 8861TIP3    H147998   2.506   3.776   5.416  0.8420 -0.6892  0.5843
 8861TIP3    H247999   2.453   3.841   5.542  2.4158 -1.0875  1.4772
 8862TIP3   OH248000   2.383   5.070   2.550  0.3412 -0.2361 -0.0594
 8862TIP3    H148001   2.404   4.981   2.522  1.2516 -0.6858  1.8467
 8862TIP3    H248002   2.468   5.108   2.574 -0.1657  0.7646  0.1889
 8863TIP3   OH248003   0.161   4.940   1.745  0.1727 -0.3502  0.0966
 8863TIP3    H148004   0.103   4.940   1.669  0.5038  0.2935 -0.1653
 8863TIP3    H248005   0.154   5.028   1.780  0.6867 -0.3892  0.3014
 8864TIP3   OH248006   4.824   6.062   1.930  0.4744  0.0462  0.2139
 8864TIP3    H148007   4.872   6.143   1.942  1.0844 -0.0463 -1.3129
 8864TIP3    H248008   4.878   6.011   1.870 -0.3062 -1.1406  0.4771
 8865TIP3   OH248009   5.463   6.317   3.612 -0.4421  0.2372  0.1066
 8865TIP3    H148010   5.532   6.276   3.559 -1.4237  0.4717 -1.4304
 8865TIP3    H248011   5.404   6.357   3.547 -1.4313  0.9851  1.4214
 8866TIP3   OH248012   0.229   1.369   2.699 -0.4761 -0.2290 -0.3910
 8866TIP3    H148013   0.317   1.377   2.736 -0.3216  0.8627 -0.9441
 8866TIP3    H248014   0.172   1.413   2.762 -0.4458  0.1434 -0.6184
 8867TIP3   OH248015   5.784   0.480   3.696  0.0309 -0.2299 -0.3582
 8867TIP3    H148016   5.760   0.522   3.779  1.9254  0.8758 -0.3091
 8867TIP3    H248017   5.837   0.546   3.650 -2.3871 -0.1083 -3.2769
 8868TIP3   OH248018   0.210   4.870  11.600 -0.1002  1.0143 -0.0271
 8868TIP3    H148019   0.122   4.895  11.572 -0.8256 -0.2503  0.9986
 8868TIP3    H248020   0.215   4.775  11.583  0.7499  0.9080  0.7113
 8869TIP3   OH248021   2.817   6.398   1.226 -0.5880 -0.1376 -0.3014
 8869TIP3    H148022   2.898   6.367   1.186 -0.3225  1.6753 -1.3195
 8869TIP3    H248023   2.751   6.388   1.157 -1.2228 -1.4231  0.4563
 8870TIP3   OH248024   5.223   0.226  16.893  0.5783 -0.2160 -0.1684
 8870TIP3    H148025   5.196   0.284  16.964  1.8427 -0.2122  0.3371
 8870TIP3    H248026   5.149   0.225  16.833  1.2889  3.6486 -1.3271
 8871TIP3   OH248027   4.394   6.601   0.986 -0.5310  0.3924 -0.0870
 8871TIP3    H148028   4.445   6.601   0.905 -1.8204  0.7925 -0.9300
 8871TIP3    H248029   4.412   6.686   1.025 -0.3472  0.4236 -0.2332
 8872TIP3   OH248030   6.567   1.844  16.174  0.1508  0.3043  0.4653
 8872TIP3    H148031   6.519   1.765  16.197 -0.3143 -0.0594 -1.5227
 8872TIP3    H248032   6.657   1.825  16.199  0.3323 -1.5113 -1.2537
 8873TIP3   OH248033   0.812   3.301  11.918 -0.1343 -0.2367  0.5068
 8873TIP3    H148034   0.897   3.279  11.878 -0.7676 -1.2931 -0.3084
 8873TIP3    H248035   0.758   3.330  11.844 -0.6456 -0.0657  0.9446
 8874TIP3   OH248036   2.194   6.412   0.852 -0.0699 -0.4786 -0.4454
 8874TIP3    H148037   2.197   6.318   0.870 -0.4790 -0.2715  0.8001
 8874TIP3    H248038   2.243   6.422   0.770 -0.4143 -1.8250 -0.8408
 8875TIP3   OH248039   2.996   0.210   6.240 -0.1780  0.0548 -0.1743
 8875TIP3    H148040   2.999   0.241   6.331  0.9141 -1.3435  0.3125
 8875TIP3    H248041   3.068   0.255   6.197 -0.7967  0.8417 -0.4085
 8876TIP3   OH248042   0.902   6.550  14.911  0.2525 -0.8739  0.3895
 8876TIP3    H148043   0.844   6.514  14.843 -0.9703  1.7157 -0.0528
 8876TIP3    H248044   0.851   6.542  14.992 -1.3983  2.4607 -0.1703
 8877TIP3   OH248045   5.664   2.118   4.375  0.2587 -0.1424 -0.2740
 8877TIP3    H148046   5.646   2.041   4.321 -0.0209 -0.0746 -0.2790
 8877TIP3    H248047   5.629   2.192   4.324  0.8977  0.0350 -0.4586
 8878TIP3   OH248048   3.724   2.049   1.122  0.6172  0.0806 -0.2856
 8878TIP3    H148049   3.650   2.027   1.065  0.2898  1.3947 -0.3881
 8878TIP3    H248050   3.684   2.087   1.200  1.1225 -0.7499  0.4066
 8879TIP3   OH248051   1.425   6.341   5.534 -0.4964  0.3838  0.2899
 8879TIP3    H148052   1.451   6.341   5.442 -2.2724  0.1335 -0.2478
 8879TIP3    H248053   1.503   6.311   5.581 -0.2030 -1.5801 -1.3313
 8880TIP3   OH248054   6.013   1.674   2.179  0.5080  0.4718  0.3873
 8880TIP3    H148055   6.102   1.709   2.172  0.3066  0.9549  0.2244
 8880TIP3    H248056   5.966   1.712   2.104  0.4164 -0.5391 -0.0881
 8881TIP3   OH248057   3.367   2.895  15.767 -0.1865 -0.2637  0.1103
 8881TIP3    H148058   3.297   2.834  15.792  0.5700 -1.6279 -0.9054
 8881TIP3    H248059   3.427   2.894  15.842  1.6584 -3.6899 -1.1516
 8882TIP3   OH248060   1.222   4.912  11.968 -0.1056  0.6410 -0.3303
 8882TIP3    H148061   1.164   4.837  11.980  0.7994 -0.2599 -1.3130
 8882TIP3    H248062   1.168   4.988  11.989 -1.4395 -0.2002 -0.5765
 8883TIP3   OH248063   1.143   2.049  11.571 -0.0471  0.0873  0.1151
 8883TIP3    H148064   1.211   2.074  11.509 -1.3508 -0.7645 -1.7426
 8883TIP3    H248065   1.116   2.132  11.611  1.9770  0.4483  0.8501
 8884TIP3   OH248066   6.140   0.192   6.071 -0.2448  0.3383  0.5009
 8884TIP3    H148067   6.125   0.285   6.056  1.6207  0.7462  0.8592
 8884TIP3    H248068   6.124   0.180   6.165  1.1680  0.6986  0.8125
 8885TIP3   OH248069   6.127   2.389   1.624  0.0639 -0.0780 -0.0353
 8885TIP3    H148070   6.094   2.473   1.591  0.5935  0.0013 -0.3845
 8885TIP3    H248071   6.055   2.354   1.677  0.7209  1.7767  2.2588
 8886TIP3   OH248072   4.679   4.892  12.175  0.1940  0.6049  0.1548
 8886TIP3    H148073   4.597   4.843  12.181  0.5693  0.0344  0.7843
 8886TIP3    H248074   4.736   4.837  12.121  0.4640  0.5562  0.4822
 8887TIP3   OH248075   3.933   0.773  16.337  0.0484  0.0546 -0.1521
 8887TIP3    H148076   3.869   0.844  16.333 -0.3186 -0.3150 -2.6300
 8887TIP3    H248077   4.001   0.797  16.274  0.8299 -0.9559  0.2663
 8888TIP3   OH248078   4.986   4.298  12.015  0.4814  0.2796  0.4181
 8888TIP3    H148079   4.965   4.244  11.939 -0.9660  0.1127  0.8989
 8888TIP3    H248080   5.000   4.235  12.086 -0.8223  0.5008  0.8901
 8889TIP3   OH248081   3.515   3.318  16.206 -0.0872 -0.1314 -0.0408
 8889TIP3    H148082   3.497   3.309  16.300 -1.0197 -0.2759 -0.2265
 8889TIP3    H248083   3.610   3.304  16.199 -0.2876 -2.2968  0.6211
 8890TIP3   OH248084   6.497   1.460   0.194 -0.6550 -0.1555 -0.2991
 8890TIP3    H148085   6.557   1.461   0.119 -1.1131 -1.9696 -0.7336
 8890TIP3    H248086   6.509   1.375   0.234  0.2344  1.1114  2.3170
 8891TIP3   OH248087   4.879   6.080  15.839  0.6691 -0.2212  0.3226
 8891TIP3    H148088   4.949   6.122  15.888  1.7697 -0.0411 -1.3383
 8891TIP3    H248089   4.923   6.012  15.788 -0.5157 -0.7498 -0.0388
 8892TIP3   OH248090   2.897   0.612  12.185 -0.9574 -0.0780 -0.1287
 8892TIP3    H148091   2.912   0.615  12.090 -0.9008  0.7232 -0.1027
 8892TIP3    H248092   2.868   0.523  12.202 -1.3119 -0.1305 -0.9572
 8893TIP3   OH248093   2.575   1.909   3.211  0.2221  0.6190 -1.1059
 8893TIP3    H148094   2.653   1.911   3.265 -0.4653 -2.0481  0.1711
 8893TIP3    H248095   2.599   1.852   3.137 -0.6555 -0.7906 -0.3447
 8894TIP3   OH248096   2.870   2.934  11.761  0.7000  0.0530 -0.0770
 8894TIP3    H148097   2.837   2.940  11.671  1.0588 -1.8086 -0.3712
 8894TIP3    H248098   2.792   2.941  11.816  0.0945 -1.5880 -0.6642
 8895TIP3   OH248099   4.225   2.216   1.414 -0.5339 -0.4133  0.0203
 8895TIP3    H148100   4.273   2.292   1.448 -1.0972 -0.6161  1.2979
 8895TIP3    H248101   4.220   2.155   1.487  1.4255 -2.5044 -1.4345
 8896TIP3   OH248102   1.738   2.922  15.486 -0.1486 -0.1116 -0.3497
 8896TIP3    H148103   1.724   2.860  15.557  0.7425  0.8901  0.7438
 8896TIP3    H248104   1.833   2.925  15.474 -0.2155  0.6302 -0.7649
 8897TIP3   OH248105   5.834   0.740  11.839 -0.1002  0.5071  0.2380
 8897TIP3    H148106   5.836   0.792  11.758  0.8421  0.5125  0.2565
 8897TIP3    H248107   5.885   0.791  11.902  1.0276 -0.5358  0.1931
 8898TIP3   OH248108   4.357   1.985   0.617 -0.7474 -0.1076 -0.2891
 8898TIP3    H148109   4.299   2.062   0.618  0.6230  0.9595  0.3695
 8898TIP3    H248110   4.339   1.943   0.533 -1.2433  1.1613 -0.8490
 8899TIP3   OH248111   3.935   2.562  15.468  0.0688 -0.1181 -0.7805
 8899TIP3    H148112   3.863   2.526  15.519 -0.8069  1.0218 -1.1615
 8899TIP3    H248113   3.997   2.595  15.532 -0.6055  0.4996 -0.4279
 8900TIP3   OH248114   4.132   1.250  12.353  0.4543 -0.1431  0.0538
 8900TIP3    H148115   4.062   1.277  12.413 -0.3937 -0.6393 -0.6722
 8900TIP3    H248116   4.212   1.260  12.403 -0.1033  0.8431  0.7836
 8901TIP3   OH248117   5.845   6.718   5.776 -0.0701  0.0974 -0.5143
 8901TIP3    H148118   5.932   6.758   5.779 -0.1268  0.1723  1.2578
 8901TIP3    H248119   5.785   6.790   5.799 -0.4854 -0.2191 -0.6002
 8902TIP3   OH248120   6.641   2.670  14.700 -0.4873 -0.0990 -0.5568
 8902TIP3    H148121   6.682   2.737  14.754 -2.0108  0.9299 -0.6147
 8902TIP3    H248122   6.680   2.588  14.729 -0.0787  0.6106  0.9646
 8903TIP3   OH248123   0.164   1.958  15.704  0.2741  0.1721 -0.2037
 8903TIP3    H148124   0.143   2.006  15.784 -0.8816 -0.9537  0.2034
 8903TIP3    H248125   0.095   1.984  15.641  1.0426  0.8744 -0.7834
 8904TIP3   OH248126   0.551   1.159   1.926 -0.3625  0.3900 -0.5003
 8904TIP3    H148127   0.635   1.179   1.966 -0.3019  0.6535 -0.7586
 8904TIP3    H248128   0.563   1.073   1.885 -1.2183 -1.2057  2.3469
 8905TIP3   OH248129   1.333   5.579   6.213 -0.4471  0.2340 -0.1091
 8905TIP3    H148130   1.256   5.636   6.215 -0.1406  0.6493 -0.1904
 8905TIP3    H248131   1.408   5.638   6.217 -0.1249 -0.1600 -0.2049
 8906TIP3   OH248132   2.466   6.059   5.261 -0.0041 -0.3000  0.0311
 8906TIP3    H148133   2.518   6.001   5.205 -1.9548 -1.9272 -0.2078
 8906TIP3    H248134   2.401   6.002   5.301 -0.4286  1.3238  1.7979
 8907TIP3   OH248135   4.812   1.159   1.892 -0.0918 -0.2032 -0.0135
 8907TIP3    H148136   4.752   1.170   1.819 -1.2640 -0.3555  0.9042
 8907TIP3    H248137   4.881   1.223   1.876 -0.8807  0.5047 -0.6922
 8908TIP3   OH248138   5.845   4.501   3.898 -0.4615  0.7773  0.2393
 8908TIP3    H148139   5.820   4.592   3.915  2.1603  1.4785  0.9280
 8908TIP3    H248140   5.910   4.508   3.828 -1.4315 -0.7648 -0.8403
 8909TIP3   OH248141   2.357   0.436   3.685  0.3798  0.3452  0.5125
 8909TIP3    H148142   2.304   0.371   3.638  1.8926 -0.7674  0.2597
 8909TIP3    H248143   2.305   0.458   3.762 -0.1651 -1.2137  0.6224
 8910TIP3   OH248144   5.644   2.229  13.634 -0.2198 -0.2323 -0.3908
 8910TIP3    H148145   5.697   2.151  13.649  0.5925  0.4666  0.5121
 8910TIP3    H248146   5.701   2.288  13.585 -0.0677  0.5810  0.7103
 8911TIP3   OH248147   3.849   5.898   0.016 -0.0097  0.0232 -0.5115
 8911TIP3    H148148   3.813   5.927  -0.068 -1.0791  0.2692  0.0059
 8911TIP3    H248149   3.790   5.937   0.081  1.4276  0.7463  0.4081
 8912TIP3   OH248150   3.345   0.927   2.748 -0.1048 -0.2151  0.6204
 8912TIP3    H148151   3.425   0.940   2.799  0.3703  0.1860 -0.2156
 8912TIP3    H248152   3.363   0.852   2.692  0.4025  0.9978 -0.9146
 8913TIP3   OH248153   1.220   2.547   1.051  0.4130  0.0609  0.0656
 8913TIP3    H148154   1.211   2.638   1.080  0.2823 -0.1808  0.7990
 8913TIP3    H248155   1.131   2.521   1.027  0.4730  0.1645 -0.2828
 8914TIP3   OH248156   2.818   5.173  10.180 -0.0355  0.4033 -0.7800
 8914TIP3    H148157   2.805   5.218  10.096  0.4179  1.7866 -0.1419
 8914TIP3    H248158   2.799   5.240  10.246 -1.1319 -0.8835  0.2514
 8915TIP3   OH248159   2.375   4.389  16.639  0.5102  0.6732  0.0081
 8915TIP3    H148160   2.343   4.478  16.628 -1.6670 -0.0061  0.4757
 8915TIP3    H248161   2.384   4.356  16.550  0.1182  0.9665 -0.1443
 8916TIP3   OH248162   0.520   4.490  13.472 -0.0714  0.2133 -0.6861
 8916TIP3    H148163   0.587   4.494  13.540 -0.2921  1.5958 -0.5185
 8916TIP3    H248164   0.506   4.581  13.446 -0.4322 -0.2334 -2.1583
 8917TIP3   OH248165   5.632   3.817  16.427  0.1903 -0.3800  0.0691
 8917TIP3    H148166   5.667   3.778  16.507 -1.3184 -1.0871  0.4208
 8917TIP3    H248167   5.647   3.750  16.359  1.4704  0.2197 -0.2867
 8918TIP3   OH248168   6.522   4.164  16.056 -0.1474 -0.4012  0.5922
 8918TIP3    H148169   6.601   4.145  16.004 -0.2448 -0.6808  0.5441
 8918TIP3    H248170   6.450   4.143  15.997 -0.2611 -1.1208  0.9737
 8919TIP3   OH248171   2.731   4.069  12.064 -0.2312 -0.3486 -0.3418
 8919TIP3    H148172   2.646   4.037  12.034 -1.0219  0.5869  0.7947
 8919TIP3    H248173   2.717   4.162  12.081  1.1239 -0.1038 -0.4810
 8920TIP3   OH248174   0.276   3.663   3.591  0.1132 -0.0063  0.4433
 8920TIP3    H148175   0.371   3.655   3.603  0.1144 -0.2988  0.2524
 8920TIP3    H248176   0.245   3.705   3.671  0.5747  1.3498 -0.0682
 8921TIP3   OH248177   4.324   5.933   2.434 -0.1502  0.0725 -0.1129
 8921TIP3    H148178   4.232   5.927   2.460 -0.3431 -0.2389 -0.8297
 8921TIP3    H248179   4.330   6.016   2.387 -0.3825 -0.5192 -1.2269
 8922TIP3   OH248180   4.033   0.812  15.672  0.4440 -0.5498 -0.5372
 8922TIP3    H148181   3.944   0.846  15.681  0.5281  0.3244 -2.4638
 8922TIP3    H248182   4.029   0.725  15.711 -1.2633 -0.5272 -0.5813
 8923TIP3   OH248183   3.897   3.917  15.347 -0.4470  0.2567  0.2927
 8923TIP3    H148184   3.920   3.973  15.273 -0.6613  0.5427  0.4394
 8923TIP3    H248185   3.906   3.828  15.314 -0.0342  0.3733  0.0771
 8924TIP3   OH248186   5.521   6.608   6.337 -0.1632  0.7887  0.4648
 8924TIP3    H148187   5.510   6.514   6.321 -0.0693  0.8688 -0.0870
 8924TIP3    H248188   5.513   6.617   6.432 -0.0832  0.2099  0.5317
 8925TIP3   OH248189   0.383   1.191  13.468  0.1482  0.4271  0.4792
 8925TIP3    H148190   0.470   1.190  13.426  1.0088 -1.6036  2.1354
 8925TIP3    H248191   0.336   1.119  13.426  0.6699 -0.9728  2.1668
 8926TIP3   OH248192   3.473   1.924   0.002 -0.0117  0.1112  0.1463
 8926TIP3    H148193   3.414   1.999   0.013 -0.9893 -0.2486 -2.0538
 8926TIP3    H248194   3.428   1.852   0.047 -1.4364 -0.1935 -1.6178
 8927TIP3   OH248195   3.778   4.784   2.978 -0.0000  0.9287 -0.1568
 8927TIP3    H148196   3.737   4.851   3.033 -2.4501  0.1238 -0.8754
 8927TIP3    H248197   3.793   4.828   2.894 -2.1150  0.5161 -0.8084
 8928TIP3   OH248198   4.032   5.391   4.870 -0.6447  0.1304 -0.3062
 8928TIP3    H148199   3.988   5.333   4.808 -1.1192  0.2472 -0.0849
 8928TIP3    H248200   4.118   5.351   4.884 -2.0802 -2.4759  2.4270
 8929TIP3   OH248201   0.122   4.618  10.342 -0.4378 -0.4563  0.4136
 8929TIP3    H148202   0.213   4.600  10.319 -0.6501 -0.0261 -0.7851
 8929TIP3    H248203   0.076   4.536  10.326 -0.5244 -0.2532 -0.3826
 8930TIP3   OH248204   1.287   5.835  16.296  0.4140 -0.1423  0.1080
 8930TIP3    H148205   1.242   5.788  16.367  1.9138 -0.4884  0.8776
 8930TIP3    H248206   1.378   5.807  16.304  1.1011  1.8551 -0.2936
 8931TIP3   OH248207   4.060   4.825  13.141  0.4355 -0.0685  0.0041
 8931TIP3    H148208   3.969   4.798  13.151  1.0108 -1.6436  1.8001
 8931TIP3    H248209   4.058   4.920  13.140 -1.0831  0.0394  2.7823
 8932TIP3   OH248210   4.693   2.795   2.630 -0.1623 -0.3190 -0.3754
 8932TIP3    H148211   4.603   2.765   2.648 -0.6446  0.1999 -1.7413
 8932TIP3    H248212   4.697   2.801   2.534  1.6623 -1.3085 -0.4082
 8933TIP3   OH248213   4.579   6.552  12.802  0.3312  0.3870  0.2123
 8933TIP3    H148214   4.664   6.560  12.846  1.5688 -1.4916 -1.6390
 8933TIP3    H248215   4.602   6.536  12.710 -2.0647  0.3767 -0.4299
 8934TIP3   OH248216   0.616   6.040   6.392  1.0463 -0.2243  0.4640
 8934TIP3    H148217   0.693   6.045   6.447  1.5996  1.8778 -0.3979
 8934TIP3    H248218   0.629   5.961   6.339  1.7291 -0.8537  1.5411
 8935TIP3   OH248219   0.729   3.119   4.783  0.0938  0.1803  0.7191
 8935TIP3    H148220   0.677   3.039   4.794 -0.8734  0.6517 -0.3371
 8935TIP3    H248221   0.819   3.090   4.799  0.0135 -1.5733 -1.4816
 8936TIP3   OH248222   4.144   2.049  15.069 -0.1216  0.0046  0.0161
 8936TIP3    H148223   4.122   1.995  15.145 -1.3899  1.4315  0.7140
 8936TIP3    H248224   4.239   2.041  15.060 -0.2232 -1.9904  0.3274
 8937TIP3   OH248225   2.298   1.614  15.701 -0.1124  0.1575 -0.4961
 8937TIP3    H148226   2.226   1.636  15.760  0.9193 -0.6793  1.1388
 8937TIP3    H248227   2.270   1.532  15.658 -0.2926  0.0369 -0.1501
 8938TIP3   OH248228   6.406   3.585  11.424  0.1603  0.1001  0.0606
 8938TIP3    H148229   6.381   3.670  11.387 -0.7046 -0.0646  0.2310
 8938TIP3    H248230   6.501   3.583  11.420  0.1540  0.8106 -0.5431
 8939TIP3   OH248231   6.425   4.060  11.975  0.3087  0.0227 -0.2479
 8939TIP3    H148232   6.337   4.079  11.944 -0.0164  0.8901  1.1724
 8939TIP3    H248233   6.450   4.136  12.027  1.3500 -0.8190  0.5280
 8940TIP3   OH248234   1.475   2.909  13.101 -0.0365 -0.6419 -0.5705
 8940TIP3    H148235   1.543   2.929  13.167  0.6686 -1.3037 -1.0779
 8940TIP3    H248236   1.429   2.834  13.137 -1.7466  0.8911  0.6494
 8941TIP3   OH248237   3.194   5.168   4.934 -0.2188 -0.4132 -0.0552
 8941TIP3    H148238   3.219   5.238   4.994 -1.0798 -1.5894  1.7547
 8941TIP3    H248239   3.251   5.094   4.959 -0.0900 -0.7137 -1.1850
 8942TIP3   OH248240   0.018   4.353  16.193  0.1862  0.2977 -0.1447
 8942TIP3    H148241  -0.006   4.381  16.105 -0.0625 -0.6809 -0.3941
 8942TIP3    H248242  -0.044   4.399  16.250 -0.8899 -0.5315 -0.6213
 8943TIP3   OH248243   6.365   2.417   6.006  0.0675  0.0617 -0.1232
 8943TIP3    H148244   6.320   2.387   6.085  1.7064 -0.6252  0.5982
 8943TIP3    H248245   6.367   2.512   6.014  0.0559  0.0068  0.5660
 8944TIP3   OH248246   2.566   0.765  14.360 -0.2293  0.2690  0.0001
 8944TIP3    H148247   2.613   0.836  14.315 -0.3217 -0.3705 -1.1461
 8944TIP3    H248248   2.494   0.809  14.405  0.5627  1.0755  0.5407
 8945TIP3   OH248249   3.887   6.171  16.010  0.4834  0.4027  0.0705
 8945TIP3    H148250   3.898   6.081  16.041  0.1668 -0.5462 -2.3380
 8945TIP3    H248251   3.929   6.225  16.077  1.1531 -1.5703  1.3267
 8946TIP3   OH248252   6.707   5.581  15.178  0.0437 -0.0649 -0.3846
 8946TIP3    H148253   6.658   5.632  15.243 -0.1268 -0.2971 -0.3324
 8946TIP3    H248254   6.646   5.571  15.105  0.5358  0.9744 -0.9701
 8947TIP3   OH248255   1.564   2.559   4.615  0.0521  0.0590 -0.5659
 8947TIP3    H148256   1.561   2.654   4.624  0.4495  0.0325 -0.1159
 8947TIP3    H248257   1.647   2.534   4.656 -1.1787 -0.7185  1.6333
 8948TIP3   OH248258   3.541   4.460  14.678  0.0120  0.3103 -0.2534
 8948TIP3    H148259   3.526   4.523  14.749 -2.3365 -0.9829  0.5518
 8948TIP3    H248260   3.468   4.474  14.617  1.8818  1.2535 -2.3867
 8949TIP3   OH248261   5.552   3.034  11.765  0.6253 -0.0351  0.0126
 8949TIP3    H148262   5.502   3.059  11.842  1.1074 -1.0222  0.6695
 8949TIP3    H248263   5.595   2.952  11.790 -0.0869 -0.9854 -1.6623
 8950TIP3   OH248264   0.541   6.022  14.338 -0.0215 -0.8880 -0.0245
 8950TIP3    H148265   0.470   5.987  14.392 -1.3361  0.1816 -0.9576
 8950TIP3    H248266   0.610   6.044  14.400 -0.6861 -1.5362  0.9864
 8951TIP3   OH248267   4.738   6.753   1.367  0.5458  0.4409 -0.5116
 8951TIP3    H148268   4.643   6.754   1.354  0.5316  3.7407 -0.8256
 8951TIP3    H248269   4.754   6.674   1.419 -2.4373  0.1292  0.0971
 8952TIP3   OH248270   5.212   0.345   3.633  0.1856 -0.0697  0.2540
 8952TIP3    H148271   5.292   0.299   3.656  0.8801  0.5593 -0.7973
 8952TIP3    H248272   5.141   0.285   3.657  0.9946 -0.9332  0.5296
 8953TIP3   OH248273   2.175   4.571  15.707 -0.2051  0.7413 -0.1234
 8953TIP3    H148274   2.251   4.594  15.759  0.0775  4.1945 -1.7758
 8953TIP3    H248275   2.121   4.517  15.765  2.4141  0.0381  1.8377
 8954TIP3   OH248276   0.591   3.721   4.545  0.0725 -0.2579 -0.7268
 8954TIP3    H148277   0.506   3.689   4.515  0.2317 -1.8100  0.3279
 8954TIP3    H248278   0.585   3.720   4.640  1.1014  0.0818 -0.6448
 8955TIP3   OH248279   5.544   6.199   4.266  0.0120  0.2293 -0.0985
 8955TIP3    H148280   5.609   6.268   4.280 -1.1310  1.2479  0.3817
 8955TIP3    H248281   5.591   6.131   4.217  1.4385  0.9031  0.2752
 8956TIP3   OH248282   4.158   2.824   0.082 -0.5579 -0.2471  0.2638
 8956TIP3    H148283   4.091   2.782   0.028 -1.4445  0.5399  0.7298
 8956TIP3    H248284   4.186   2.756   0.143  0.5843 -1.2048 -1.2678
 8957TIP3   OH248285   3.801   2.181   4.044 -0.6743 -0.4157 -0.2570
 8957TIP3    H148286   3.888   2.205   4.076  1.2637  0.3659 -5.1724
 8957TIP3    H248287   3.774   2.108   4.099  3.1950 -0.8614  1.3684
 8958TIP3   OH248288   3.438   2.508   2.451  0.8502 -0.2168  0.3246
 8958TIP3    H148289   3.440   2.540   2.361  0.7856 -0.3304  0.2828
 8958TIP3    H248290   3.478   2.421   2.447  2.3066  0.4001  0.6619
 8959TIP3   OH248291   5.674   4.606   1.249 -0.0991  1.1441 -0.2538
 8959TIP3    H148292   5.659   4.643   1.162  0.3761  3.5542  0.6151
 8959TIP3    H248293   5.595   4.628   1.298 -0.4348 -0.3429 -0.0999
 8960TIP3   OH248294   2.526   2.254  13.144  1.1245  0.2604  0.2929
 8960TIP3    H148295   2.433   2.253  13.164  1.3029  0.4210  1.1454
 8960TIP3    H248296   2.551   2.346  13.148  1.3285  0.2133  0.1130
 8961TIP3   OH248297   5.299   2.069   4.626 -0.5607 -0.3921 -0.1820
 8961TIP3    H148298   5.353   1.994   4.600 -0.1232 -0.4538  0.8737
 8961TIP3    H248299   5.362   2.139   4.645 -0.8850 -0.2741  0.4634
 8962TIP3   OH248300   2.724   2.469  16.226 -0.2597 -0.5064  0.3511
 8962TIP3    H148301   2.719   2.428  16.312 -0.2177  0.2125  0.7030
 8962TIP3    H248302   2.632   2.481  16.199 -0.3620 -3.5280 -1.0999
 8963TIP3   OH248303   6.127   2.055   3.436  0.2635  0.0902 -0.1522
 8963TIP3    H148304   6.102   2.104   3.358  0.2651 -2.0730 -1.6232
 8963TIP3    H248305   6.067   1.981   3.438  0.9559 -0.4725  1.3061
 8964TIP3   OH248306   0.462   0.354  13.857  0.0791  0.4542 -0.1486
 8964TIP3    H148307   0.554   0.365  13.881  0.2159  1.0221 -0.8792
 8964TIP3    H248308   0.465   0.322  13.767 -0.4338 -0.4839  0.1507
 8965TIP3   OH248309   2.145   2.576  14.481  0.0256 -0.0371 -0.0735
 8965TIP3    H148310   2.074   2.598  14.421  0.2010  1.7084  0.3039
 8965TIP3    H248311   2.193   2.659  14.493 -0.0051 -0.2963  2.4605
 8966TIP3   OH248312   4.703   2.406  13.089 -0.4537  0.2843 -0.3633
 8966TIP3    H148313   4.647   2.477  13.122  0.6311  1.8545 -1.7516
 8966TIP3    H248314   4.790   2.445  13.083  0.1350 -1.1108 -1.3963
 8967TIP3   OH248315   5.468   5.421  12.645  0.6710  0.1256 -0.2724
 8967TIP3    H148316   5.420   5.476  12.583  1.2873  0.2454 -0.6506
 8967TIP3    H248317   5.467   5.470  12.727 -1.3137 -0.6384  0.2057
 8968TIP3   OH248318   6.580   4.180  16.317 -0.1732  0.1172 -0.7148
 8968TIP3    H148319   6.632   4.257  16.341 -2.4296  1.4467  0.1493
 8968TIP3    H248320   6.568   4.188  16.223  0.3863  0.2875 -0.7796
 8969TIP3   OH248321   5.693   0.483  13.849 -0.3973 -0.3752  0.2696
 8969TIP3    H148322   5.700   0.578  13.841 -1.9561 -0.3875 -2.3097
 8969TIP3    H248323   5.616   0.469  13.904 -1.6383 -0.0623 -1.3138
 8970TIP3   OH248324   2.207   5.750  15.816  0.9845  0.0931  0.6063
 8970TIP3    H148325   2.135   5.743  15.754  0.2689 -0.1221  1.4382
 8970TIP3    H248326   2.198   5.839  15.853 -1.2804 -1.1605  3.5103
 8971TIP3   OH248327   2.855   3.539   0.778  0.5129  0.0152  0.7953
 8971TIP3    H148328   2.768   3.563   0.810  0.4450 -1.4007  1.7531
 8971TIP3    H248329   2.844   3.450   0.744  1.5300 -0.0802  0.6857
 8972TIP3   OH248330   3.067   4.294  12.847  0.1768  0.4309 -0.7296
 8972TIP3    H148331   3.010   4.365  12.874  0.7352  0.8443 -0.6243
 8972TIP3    H248332   3.008   4.227  12.812 -0.5145  0.1420  0.9149
 8973TIP3   OH248333   2.846   5.638  12.369  0.0632 -0.5268  0.2230
 8973TIP3    H148334   2.857   5.546  12.345  1.4289 -0.7404  1.4939
 8973TIP3    H248335   2.862   5.641  12.464 -0.1788  0.9892  0.2566
 8974TIP3   OH248336   4.167   5.718   1.593  0.5227 -0.1834  0.0015
 8974TIP3    H148337   4.106   5.710   1.520 -0.6806 -0.2683  0.9852
 8974TIP3    H248338   4.118   5.685   1.668  1.9494 -0.6797  0.7414
 8975TIP3   OH248339   4.125   0.915  12.268  0.5248  0.1735  0.3410
 8975TIP3    H148340   4.176   0.959  12.199 -2.3609  2.5584 -0.4665
 8975TIP3    H248341   4.118   0.980  12.337 -2.7905  0.7087 -0.3394
 8976TIP3   OH248342   3.310   1.456  16.257  0.0694  0.3420  0.2516
 8976TIP3    H148343   3.330   1.542  16.222 -0.7032  0.0865 -0.8469
 8976TIP3    H248344   3.277   1.474  16.346  0.3363  1.1267  0.2040
 8977TIP3   OH248345   5.182   5.173  12.308 -0.0200  0.2165  0.3242
 8977TIP3    H148346   5.185   5.078  12.322 -2.1937  0.2134  1.0173
 8977TIP3    H248347   5.181   5.210  12.396 -1.5727  0.7595  0.1013
 8978TIP3   OH248348   5.973   5.126  12.083  0.1850 -0.2882  0.5527
 8978TIP3    H148349   5.888   5.170  12.092  0.1327 -0.4625  0.9547
 8978TIP3    H248350   5.958   5.038  12.119  0.2426 -0.6938 -0.3919
 8979TIP3   OH248351   1.614   2.178  12.372  0.0252 -0.1458  0.4320
 8979TIP3    H148352   1.590   2.120  12.444  1.0145  1.3174  1.9984
 8979TIP3    H248353   1.710   2.183  12.376  0.1199 -0.1516 -1.1102
 8980TIP3   OH248354   4.930   5.936   4.012  0.3681 -0.7066 -0.0562
 8980TIP3    H148355   4.981   5.876   4.066  0.6111  0.5099  1.1162
 8980TIP3    H248356   4.843   5.935   4.051  0.7896  0.9096  1.0331
 8981TIP3   OH248357   2.815   0.422   5.058  0.6715  0.2207 -0.1017
 8981TIP3    H148358   2.784   0.499   5.009  0.7967  1.6806  2.0070
 8981TIP3    H248359   2.736   0.370   5.071  0.4171  0.4129 -0.7868
 8982TIP3   OH248360   3.726   6.499  14.535  0.2167 -0.1338 -0.2892
 8982TIP3    H148361   3.756   6.578  14.489  0.7522 -0.0436  0.2030
 8982TIP3    H248362   3.753   6.426  14.480  1.1696 -0.0434  0.0434
 8983TIP3   OH248363   5.008   3.289  12.158  0.4550 -0.0469  0.1099
 8983TIP3    H148364   5.028   3.371  12.203  2.4587  1.3223 -2.9793
 8983TIP3    H248365   4.941   3.247  12.213  0.2461  3.0193  2.4428
 8984TIP3   OH248366   3.284   3.300   6.315 -0.3324  0.5131  0.0593
 8984TIP3    H148367   3.376   3.319   6.294  0.4230 -0.1918  2.4771
 8984TIP3    H248368   3.245   3.387   6.328  0.4595  0.7887  0.7314
 8985TIP3   OH248369   1.259   5.239  14.975  0.6941  0.0474  0.4202
 8985TIP3    H148370   1.270   5.265  15.067  1.2773 -1.4364  0.7963
 8985TIP3    H248371   1.323   5.170  14.962 -0.0113 -0.3924 -0.8621
 8986TIP3   OH248372   4.143   4.101   5.513 -0.5549  0.6132 -0.0067
 8986TIP3    H148373   4.180   4.013   5.522  0.1662  0.8459 -0.5589
 8986TIP3    H248374   4.162   4.126   5.423 -1.5734  0.9780 -0.1312
 8987TIP3   OH248375   6.036   5.814  14.180  0.1068 -0.2372  0.2008
 8987TIP3    H148376   5.997   5.787  14.263  0.8473 -1.2242  0.2362
 8987TIP3    H248377   6.110   5.869  14.205 -0.3196  0.3722  0.1580
 8988TIP3   OH248378   1.091   5.215  11.804  0.3420 -0.0775 -0.8237
 8988TIP3    H148379   1.094   5.167  11.887 -1.0096  1.1403 -0.0207
 8988TIP3    H248380   1.000   5.208  11.776  0.5451  0.4721 -1.6432
 8989TIP3   OH248381   3.130   0.045  12.552  0.4368  0.6014  0.0488
 8989TIP3    H148382   3.131   0.136  12.522 -1.8871  0.0553 -2.0548
 8989TIP3    H248383   3.062   0.003  12.499  1.6486 -2.4646  0.7011
 8990TIP3   OH248384   3.279   4.651   2.025 -0.0067 -0.4375 -0.5518
 8990TIP3    H148385   3.229   4.671   2.105  0.5955  0.2859 -0.3328
 8990TIP3    H248386   3.340   4.725   2.017  0.7368 -1.0917 -1.0341
 8991TIP3   OH248387   1.572   2.681  10.737 -0.6240  0.2829  0.1402
 8991TIP3    H148388   1.622   2.607  10.772  0.1269  1.4206  1.5987
 8991TIP3    H248389   1.516   2.643  10.669 -0.1325 -1.5777  0.7268
 8992TIP3   OH248390   4.206   0.995   0.692 -0.5074  0.5615  0.1459
 8992TIP3    H148391   4.281   1.026   0.744 -1.0902  0.7074  0.9123
 8992TIP3    H248392   4.242   0.982   0.605  0.2966  1.1473  0.3732
 8993TIP3   OH248393   3.044   1.763  16.143 -0.4795  0.9413  0.3848
 8993TIP3    H148394   2.989   1.778  16.220 -1.6784 -0.4150 -0.1680
 8993TIP3    H248395   3.079   1.849  16.121 -3.0118  2.0107  0.3042
 8994TIP3   OH248396   2.314   6.819   3.002  0.2556  0.4225  0.1033
 8994TIP3    H148397   2.330   6.764   3.078  2.2926  1.9831  0.9058
 8994TIP3    H248398   2.379   6.791   2.938 -1.9051 -1.3871 -1.4873
 8995TIP3   OH248399   6.568   6.190   0.947  0.5893 -0.0287  0.1065
 8995TIP3    H148400   6.596   6.112   0.900 -0.5265 -0.6032  0.3518
 8995TIP3    H248401   6.633   6.257   0.924  1.9903 -1.2141  0.4862
 8996TIP3   OH248402   6.225   2.498  10.929  0.0483  0.0909  0.2628
 8996TIP3    H148403   6.208   2.566  10.864 -0.2767 -1.2843 -1.1442
 8996TIP3    H248404   6.312   2.519  10.963  0.8300  0.0673 -1.6392
 8997TIP3   OH248405   6.058   5.177  11.473 -0.2125 -0.0546 -0.1005
 8997TIP3    H148406   6.038   5.214  11.559 -1.4974  1.3580 -0.9642
 8997TIP3    H248407   6.076   5.253  11.417  1.6992 -0.9902 -0.8552
 8998TIP3   OH248408   6.663   1.489  14.521 -0.8040 -0.1583  0.3828
 8998TIP3    H148409   6.650   1.505  14.427 -1.2425  0.2052  0.5015
 8998TIP3    H248410   6.612   1.410  14.539 -1.6550  0.4054  0.5355
 8999TIP3   OH248411   1.811   3.953  16.337  0.2015  0.6283 -0.2862
 8999TIP3    H148412   1.878   3.894  16.302  0.1050  0.3586 -0.0246
 8999TIP3    H248413   1.810   3.934  16.431 -1.3691 -0.5425 -0.4987
 9000TIP3   OH248414   4.266   3.740   4.444 -0.1791  0.2259 -0.1188
 9000TIP3    H148415   4.172   3.733   4.427 -0.3584  0.1774  0.8255
 9000TIP3    H248416   4.285   3.665   4.500  0.3275  0.4995  0.0764
 9001TIP3   OH248417   4.951   3.825  12.936  0.1652 -0.3745 -0.3781
 9001TIP3    H148418   4.912   3.740  12.915  0.4087 -0.2561 -1.3816
 9001TIP3    H248419   4.969   3.821  13.029  0.0082 -1.3617 -0.3812
 9002TIP3   OH248420   4.392   0.996   1.538  0.3459  0.4488  0.3344
 9002TIP3    H148421   4.412   1.018   1.629  0.6071  0.6787  0.2220
 9002TIP3    H248422   4.305   1.033   1.524 -0.1107 -0.4207  0.7758
 9003TIP3   OH248423   6.383   0.372  12.656 -0.1938 -0.0054 -0.3467
 9003TIP3    H148424   6.423   0.297  12.613  0.0471  0.3286 -0.7092
 9003TIP3    H248425   6.443   0.393  12.728 -0.3108 -0.2135 -0.1848
 9004TIP3   OH248426   6.753   6.406   0.828 -0.3620 -0.8123 -0.6150
 9004TIP3    H148427   6.785   6.345   0.761  0.8066 -0.3904 -0.4731
 9004TIP3    H248428   6.758   6.492   0.785  1.6982 -0.3602  0.4028
 9005TIP3   OH248429   4.465   1.653  16.311 -0.1835 -0.0779  0.6135
 9005TIP3    H148430   4.521   1.703  16.370  0.8975 -1.0268  0.4263
 9005TIP3    H248431   4.525   1.616  16.246 -0.7907 -2.3855  1.2809
 9006TIP3   OH248432   5.898   3.447   0.298 -0.1259  0.1803  0.1778
 9006TIP3    H148433   5.981   3.470   0.257  0.1693  0.1455  0.7534
 9006TIP3    H248434   5.879   3.519   0.358 -0.1789 -0.1241  0.5363
 9007TIP3   OH248435   4.029   5.710   5.281 -0.1438 -0.1904  0.4669
 9007TIP3    H148436   4.080   5.789   5.264 -2.3760  1.7283  2.1308
 9007TIP3    H248437   4.081   5.639   5.242  1.4254  2.1753 -2.0979
 9008TIP3   OH248438   5.423   3.754  11.034  0.3306  0.0359 -0.3824
 9008TIP3    H148439   5.361   3.826  11.047  1.2753  0.7107  0.5413
 9008TIP3    H248440   5.401   3.691  11.103 -0.1063 -0.3043 -0.8216
 9009TIP3   OH248441   1.943   5.668  15.732 -0.6948  0.1767  0.2732
 9009TIP3    H148442   1.983   5.586  15.703  0.7842  0.6124  0.9859
 9009TIP3    H248443   1.862   5.642  15.776 -1.1105 -0.7515 -0.9878
 9010TIP3   OH248444   4.546   3.595   1.423 -0.3726 -0.0477 -0.3665
 9010TIP3    H148445   4.534   3.682   1.461  0.1771  0.0944 -0.5103
 9010TIP3    H248446   4.641   3.584   1.419 -0.4329 -0.9110  0.2434
 9011TIP3   OH248447   2.210   0.322   0.357 -0.1700  0.4610 -0.4135
 9011TIP3    H148448   2.129   0.279   0.331 -2.0231  2.4576  1.6892
 9011TIP3    H248449   2.251   0.260   0.418 -1.3547  0.4411  0.3841
 9012TIP3   OH248450   4.326   3.584  16.274 -0.1653 -0.4534 -0.6808
 9012TIP3    H148451   4.341   3.499  16.234  0.9462 -0.2385 -0.7753
 9012TIP3    H248452   4.328   3.646  16.201 -0.0512 -0.2558 -0.5135
 9013TIP3   OH248453   3.914   1.258   0.355 -0.6848  0.0771 -0.1164
 9013TIP3    H148454   3.960   1.306   0.424  0.9245 -2.5558  0.7900
 9013TIP3    H248455   3.974   1.187   0.330 -1.9273 -0.0920 -3.0565
 9014TIP3   OH248456   4.175   1.200  14.906  0.4420 -0.0479 -0.5173
 9014TIP3    H148457   4.141   1.146  14.978  0.8436  1.3257  0.7409
 9014TIP3    H248458   4.114   1.184  14.834 -0.0600 -1.3418  0.1577
 9015TIP3   OH248459   0.199   1.045  13.278  0.1385  0.0139 -0.5589
 9015TIP3    H148460   0.239   1.049  13.191  0.3505  2.4321 -0.4162
 9015TIP3    H248461   0.161   1.132  13.291 -0.3454 -0.4625  1.5655
 9016TIP3   OH248462   6.623   4.589  13.442  0.0173  0.1522  0.1825
 9016TIP3    H148463   6.707   4.605  13.398  0.5896 -2.2074  0.2379
 9016TIP3    H248464   6.558   4.625  13.382  0.9651  0.0647 -0.9565
 9017TIP3   OH248465   2.297   0.602  12.663  0.1874  0.4185 -0.0315
 9017TIP3    H148466   2.208   0.620  12.692  0.2644  1.7801 -0.5592
 9017TIP3    H248467   2.343   0.576  12.743 -0.3394  1.0866  0.5053
 9018TIP3   OH248468   0.732   2.472   4.152 -0.1523  0.0030 -0.6247
 9018TIP3    H148469   0.806   2.523   4.185  0.0129 -0.8820  0.4698
 9018TIP3    H248470   0.664   2.537   4.135  0.4380  0.7019 -0.4052
 9019TIP3   OH248471   1.995   1.371   3.394  0.2969 -0.0751  0.4888
 9019TIP3    H148472   1.917   1.416   3.428  0.5001 -0.5643  1.6322
 9019TIP3    H248473   2.069   1.422   3.427  0.5387 -1.3506  2.0120
 9020TIP3   OH248474   5.846   4.802  10.794 -0.0480 -0.3637 -0.3211
 9020TIP3    H148475   5.852   4.874  10.856  0.2688  0.6027 -1.4372
 9020TIP3    H248476   5.922   4.747  10.813  0.4595  0.3256 -0.3544
 9021TIP3   OH248477   1.253   3.403  11.990 -0.3805 -0.0186 -0.6181
 9021TIP3    H148478   1.255   3.373  12.081  0.4310 -0.8969 -0.9064
 9021TIP3    H248479   1.276   3.495  11.994 -2.8168  0.6325  0.2971
 9022TIP3   OH248480   1.303   3.779   1.489 -0.3409  0.8298 -0.2045
 9022TIP3    H148481   1.254   3.767   1.570 -1.6134 -0.7898 -1.1353
 9022TIP3    H248482   1.394   3.758   1.512 -0.3764  2.0089  1.1279
 9023TIP3   OH248483   0.907   6.703  14.447 -0.7508  0.2304 -0.3234
 9023TIP3    H148484   0.958   6.629  14.414 -1.5596 -1.0527  1.1895
 9023TIP3    H248485   0.951   6.780  14.411  0.6699 -0.9323 -1.1881
 9024TIP3   OH248486   3.871   6.252  13.101  0.2123 -0.2104 -0.0851
 9024TIP3    H148487   3.881   6.213  13.015  0.6337  0.4137 -0.3289
 9024TIP3    H248488   3.865   6.346  13.084 -1.2862 -0.1779  0.4404
 9025TIP3   OH248489   2.755   5.595   4.327  0.3596 -0.0473 -0.0271
 9025TIP3    H148490   2.725   5.540   4.255  1.8025  0.0509 -0.7330
 9025TIP3    H248491   2.851   5.595   4.319  0.6110 -0.6043  2.3131
 9026TIP3   OH248492   4.583   6.021  11.974 -0.3224 -0.0358 -0.5200
 9026TIP3    H148493   4.659   6.052  11.924 -0.5601 -0.8338 -1.4171
 9026TIP3    H248494   4.572   6.085  12.043  1.3340 -0.0379 -0.2118
 9027TIP3   OH248495   0.002   0.895  13.069 -0.3980  0.4292 -0.8348
 9027TIP3    H148496   0.062   0.821  13.064 -0.7293  0.2188 -1.9355
 9027TIP3    H248497   0.059   0.972  13.075  0.0230  0.0550  3.4534
 9028TIP3   OH248498   1.073   4.412  16.244  0.0858  0.3680 -0.3027
 9028TIP3    H148499   1.059   4.357  16.167  1.0442 -0.5489  0.1695
 9028TIP3    H248500   1.031   4.365  16.316  3.2264 -1.2408  0.6678
 9029TIP3   OH248501   5.972   5.985  15.020 -0.4064  0.6779  0.2093
 9029TIP3    H148502   6.031   6.047  15.064 -0.4227  0.6277  0.3020
 9029TIP3    H248503   6.009   5.899  15.039  0.2965  0.7103 -0.9090
 9030TIP3   OH248504   3.536   0.419   4.905 -0.0192  0.0673 -1.0172
 9030TIP3    H148505   3.531   0.424   4.810  0.9514 -0.4286 -1.1077
 9030TIP3    H248506   3.555   0.508   4.934  0.9940 -0.0243 -1.3890
 9031TIP3   OH248507   0.281   6.286  11.273 -0.1752 -0.4077  0.2053
 9031TIP3    H148508   0.213   6.280  11.341 -0.3926  1.1038  0.1730
 9031TIP3    H248509   0.273   6.205  11.223 -2.8245  0.2296 -0.5679
 9032TIP3   OH248510   3.863   0.551  12.228 -0.2410 -0.3337  0.5835
 9032TIP3    H148511   3.887   0.500  12.151 -1.0373  0.2759 -0.0899
 9032TIP3    H248512   3.821   0.489  12.286 -1.4015 -0.4196 -0.3221
 9033TIP3   OH248513   2.082   3.723  13.721  0.2607  0.1027  0.1640
 9033TIP3    H148514   2.146   3.748  13.655  0.3449  0.0540  0.2277
 9033TIP3    H248515   2.118   3.644  13.761  0.6691  0.6751  0.9355
 9034TIP3   OH248516   1.722   5.737  12.324  0.3515 -0.1851  0.7016
 9034TIP3    H148517   1.788   5.750  12.255  1.6061  1.4552  2.1226
 9034TIP3    H248518   1.764   5.676  12.385  1.1708  1.7787  2.2295
 9035TIP3   OH248519   2.652   1.339   2.494 -0.1560  0.9158  0.4560
 9035TIP3    H148520   2.673   1.428   2.523 -1.0511  1.1326  0.4658
 9035TIP3    H248521   2.644   1.346   2.399  1.5435  0.4599  0.2436
 9036TIP3   OH248522   1.311   4.812   6.204 -0.0468  0.1392 -0.2250
 9036TIP3    H148523   1.244   4.754   6.241 -0.0479  0.2247 -0.0944
 9036TIP3    H248524   1.311   4.888   6.261  0.1759  0.1323 -0.2159
 9037TIP3   OH248525   2.570   4.448   2.939 -0.1480  0.1882 -0.2326
 9037TIP3    H148526   2.597   4.398   3.016 -1.6415  0.5555  0.5817
 9037TIP3    H248527   2.475   4.460   2.951 -0.4159  0.2937 -2.1149
 9038TIP3   OH248528   6.138   4.243  16.154  0.2557 -0.3690  0.5644
 9038TIP3    H148529   6.076   4.213  16.087 -2.7466  0.3631  2.7950
 9038TIP3    H248530   6.155   4.166  16.208 -0.8252 -0.0373  1.4257
 9039TIP3   OH248531   6.403   4.940  15.143  0.1653  0.1195  0.0499
 9039TIP3    H148532   6.320   4.925  15.187 -0.2779 -0.4729 -0.9417
 9039TIP3    H248533   6.426   5.030  15.163 -0.1362 -0.0639  1.2681
 9040TIP3   OH248534   1.543   1.796   2.620 -0.2363  0.1309 -0.0597
 9040TIP3    H148535   1.459   1.791   2.574  0.0133 -1.1688 -0.4161
 9040TIP3    H248536   1.520   1.789   2.713 -0.5991  0.9053 -0.0822
 9041TIP3   OH248537   1.949   0.235   3.678  0.0361  0.2712 -0.3503
 9041TIP3    H148538   1.879   0.243   3.613 -1.0379  1.8706  0.9322
 9041TIP3    H248539   1.906   0.252   3.762  1.7332  0.0407  0.6087
 9042TIP3   OH248540   1.417   5.756  12.850  0.2445 -0.3140  0.2730
 9042TIP3    H148541   1.510   5.751  12.824  0.7260 -0.3793  1.9118
 9042TIP3    H248542   1.377   5.810  12.783  2.0482  2.0771  0.9768
 9043TIP3   OH248543   2.162   4.216   2.722  0.8413 -0.0853 -0.9512
 9043TIP3    H148544   2.085   4.165   2.697 -0.0228  0.6659  0.0498
 9043TIP3    H248545   2.208   4.232   2.640 -1.8036  2.2089 -2.1563
 9044TIP3   OH248546   2.825   0.626   2.777  0.1832 -0.6255  0.0274
 9044TIP3    H148547   2.842   0.590   2.864  0.5601 -0.6352 -0.0515
 9044TIP3    H248548   2.775   0.558   2.732  1.4267 -1.3225 -0.3367
 9045TIP3   OH248549   3.823   2.465  14.060 -0.2298 -0.1058 -0.5920
 9045TIP3    H148550   3.915   2.482  14.081 -0.0538 -0.4445 -1.0926
 9045TIP3    H248551   3.776   2.538  14.101  0.2761  0.1675 -0.4876
 9046TIP3   OH248552   3.698   3.638  12.386 -0.5817  0.5929 -0.1022
 9046TIP3    H148553   3.671   3.728  12.367 -0.4594  0.4254 -1.1187
 9046TIP3    H248554   3.679   3.590  12.306 -0.3993 -0.2389  0.3437
 9047TIP3   OH248555   6.761   6.435  15.773 -1.1843  0.3644  0.2226
 9047TIP3    H148556   6.667   6.435  15.753 -0.7088 -0.4681 -2.4585
 9047TIP3    H248557   6.795   6.511  15.727 -0.4446  0.3051  0.6617
 9048TIP3   OH248558   3.869   6.044  13.265  0.8350 -0.0049  0.4569
 9048TIP3    H148559   3.951   6.026  13.312  1.3846 -1.1635 -0.8782
 9048TIP3    H248560   3.887   6.124  13.216  1.0708 -0.1046  0.3800
 9049TIP3   OH248561   5.431   2.786  16.080 -0.1700 -0.4795 -0.2409
 9049TIP3    H148562   5.494   2.786  16.009  0.7865  3.0366  0.4262
 9049TIP3    H248563   5.388   2.871  16.074  0.2323  0.1553  3.5245
 9050TIP3   OH248564   0.476   2.478   4.885  0.1973 -0.1443  0.1144
 9050TIP3    H148565   0.532   2.551   4.910 -0.7030  0.6489 -0.1433
 9050TIP3    H248566   0.529   2.426   4.825 -0.1805  2.0452 -2.3201
 9051TIP3   OH248567   5.513   4.346  14.681  0.5179  0.1399  0.0173
 9051TIP3    H148568   5.476   4.327  14.596  0.8629  0.4434 -0.2035
 9051TIP3    H248569   5.607   4.327  14.672  0.5715  0.2509  0.3049
 9052TIP3   OH248570   4.439   4.855   3.867 -0.6439 -0.8358  0.0437
 9052TIP3    H148571   4.456   4.925   3.804  0.4845 -1.1827 -0.0511
 9052TIP3    H248572   4.497   4.874   3.941 -1.0478 -1.1287  0.4453
 9053TIP3   OH248573   2.362   0.792   3.168  0.0676  0.2363  0.0340
 9053TIP3    H148574   2.286   0.839   3.202  0.7404  0.3684  1.4262
 9053TIP3    H248575   2.412   0.767   3.246  1.2922 -0.1090 -0.8269
 9054TIP3   OH248576   6.762   2.036  16.551 -0.0922  0.3743 -0.0957
 9054TIP3    H148577   6.715   2.113  16.584 -0.5327  0.2530 -0.4320
 9054TIP3    H248578   6.815   2.068  16.478 -0.0587  0.4087 -0.0562
 9055TIP3   OH248579   1.821   5.322  13.704 -0.0412 -0.6952 -0.0023
 9055TIP3    H148580   1.877   5.352  13.632 -0.4626  1.3287  0.4559
 9055TIP3    H248581   1.738   5.299  13.662 -0.1576  0.1067 -0.2272
 9056TIP3   OH248582   2.833   2.520   0.954 -0.5054 -0.4413 -0.3854
 9056TIP3    H148583   2.807   2.441   0.907 -0.2640  0.8485 -2.8691
 9056TIP3    H248584   2.928   2.521   0.950 -0.4698 -0.3648  0.2865
 9057TIP3   OH248585   1.337   5.280  11.711 -0.2062  0.0820  0.4898
 9057TIP3    H148586   1.386   5.241  11.784 -2.0760  0.2185  1.8925
 9057TIP3    H248587   1.246   5.257  11.729 -0.8776  1.4456 -0.9962
 9058TIP3   OH248588   1.670   6.592   5.908  0.5507 -0.1847 -0.7211
 9058TIP3    H148589   1.675   6.666   5.968 -0.3204 -0.7326  0.0609
 9058TIP3    H248590   1.732   6.528   5.943  0.7393 -0.1364 -0.9596
 9059TIP3   OH248591   3.541   5.400  15.216 -0.0219 -0.5352 -0.0367
 9059TIP3    H148592   3.571   5.480  15.259 -1.3180 -0.2766  0.4333
 9059TIP3    H248593   3.448   5.396  15.236 -0.6997 -0.4585 -2.7498
 9060TIP3   OH248594   4.792   4.794  16.000  0.0610 -0.0105  0.4775
 9060TIP3    H148595   4.782   4.865  15.936  0.6041  0.1209  0.5333
 9060TIP3    H248596   4.875   4.813  16.043  0.4920 -0.9914  0.1023
 9061TIP3   OH248597   0.442   3.503   4.261  0.7622 -0.5298  0.1016
 9061TIP3    H148598   0.351   3.477   4.246  0.0650  0.6141  1.9283
 9061TIP3    H248599   0.444   3.596   4.239  1.4137 -0.4868  0.3326
 9062TIP3   OH248600   5.439   0.217  15.180 -0.0655  0.1984 -0.6737
 9062TIP3    H148601   5.444   0.182  15.091 -2.1988  0.5794 -0.9884
 9062TIP3    H248602   5.351   0.196  15.209  0.5357  0.2111  1.3289
 9063TIP3   OH248603   4.098   6.580  15.108  0.2768  0.0269  0.6325
 9063TIP3    H148604   4.192   6.569  15.088  0.5054 -1.6784  2.3650
 9063TIP3    H248605   4.096   6.604  15.200 -0.9696  1.8246  0.1843
 9064TIP3   OH248606   5.741   4.608   3.611 -0.3385  0.0245 -0.0512
 9064TIP3    H148607   5.778   4.600   3.523 -0.6888  0.9829 -0.3006
 9064TIP3    H248608   5.657   4.563   3.605 -0.3937  0.1488 -0.2358
 9065TIP3   OH248609   4.814   3.533   2.657 -0.3247  0.0950 -0.5661
 9065TIP3    H148610   4.811   3.438   2.671 -1.8367 -0.2642 -2.6928
 9065TIP3    H248611   4.795   3.543   2.563  1.7144  2.4324 -0.8217
 9066TIP3   OH248612   4.713   6.430  11.234 -0.5756 -0.3841  0.0293
 9066TIP3    H148613   4.651   6.489  11.276  0.0518 -0.4835  1.1176
 9066TIP3    H248614   4.659   6.364  11.191 -1.2242 -0.7218  1.3162
 9067TIP3   OH248615   6.261   4.898   2.326  0.2919  0.6642  0.1480
 9067TIP3    H148616   6.178   4.852   2.339  0.3633  0.8108  1.1499
 9067TIP3    H248617   6.246   4.986   2.361  1.0363  0.5232  0.8507
 9068TIP3   OH248618   3.784   3.485  14.396  0.2396 -0.0967 -0.4609
 9068TIP3    H148619   3.855   3.532  14.440 -1.3429  1.6160  0.4525
 9068TIP3    H248620   3.823   3.403  14.367  1.9351 -0.4016  2.3204
 9069TIP3   OH248621   2.335   5.399  14.328  0.2905  0.0722  0.1561
 9069TIP3    H148622   2.353   5.466  14.262  0.0057 -0.4983 -0.5165
 9069TIP3    H248623   2.290   5.330  14.280  0.5171 -0.5743  0.8531
 9070TIP3   OH248624   3.444   0.127   3.093 -0.5774  0.5782 -0.4983
 9070TIP3    H148625   3.519   0.117   3.153 -0.1782  1.0311 -0.9134
 9070TIP3    H248626   3.402   0.041   3.093 -1.3356  0.9036  1.4192
 9071TIP3   OH248627   4.838   1.183   0.715  0.0647  0.1396  0.0715
 9071TIP3    H148628   4.898   1.249   0.748 -1.6921  0.9888  1.7984
 9071TIP3    H248629   4.852   1.182   0.621  1.5531  1.5163  0.2444
 9072TIP3   OH248630   6.143   5.760  11.555  0.7673 -0.1009  0.1791
 9072TIP3    H148631   6.213   5.753  11.619  1.0185 -0.8319 -0.1641
 9072TIP3    H248632   6.172   5.830  11.495 -0.6841  2.5355  2.3023
 9073TIP3   OH248633   4.198   5.551   0.151 -0.2187  0.0001  0.0009
 9073TIP3    H148634   4.221   5.598   0.070 -0.1674 -1.2762 -0.7488
 9073TIP3    H248635   4.123   5.497   0.126 -0.1431 -0.4731  0.7990
 9074TIP3   OH248636   4.613   1.262   5.745  0.4952 -0.3857 -0.5428
 9074TIP3    H148637   4.659   1.344   5.766  1.2262 -0.4756 -1.7079
 9074TIP3    H248638   4.682   1.199   5.729 -0.0370 -0.7558 -1.4616
 9075TIP3   OH248639   1.469   3.593  14.851  0.3885  0.6070 -0.4711
 9075TIP3    H148640   1.391   3.603  14.907  1.2618  0.6820  0.7638
 9075TIP3    H248641   1.441   3.627  14.766 -1.8558 -1.9908 -0.9195
 9076TIP3   OH248642   3.115   5.208   1.720 -0.3165 -0.2624  0.9307
 9076TIP3    H148643   3.199   5.162   1.726  0.8232  1.7356  0.8617
 9076TIP3    H248644   3.118   5.273   1.790 -1.6807  0.0559  0.7160
 9077TIP3   OH248645   6.031   5.365   5.374 -0.4754  0.1575 -0.6854
 9077TIP3    H148646   5.994   5.452   5.391  0.4442  0.2132  1.4300
 9077TIP3    H248647   5.962   5.317   5.329 -1.9255  1.2371  0.3045
 9078TIP3   OH248648   5.867   5.094  15.765 -0.1338 -0.3794  0.0319
 9078TIP3    H148649   5.917   5.015  15.785  0.9570  0.4526  0.7231
 9078TIP3    H248650   5.932   5.165  15.770 -0.7216  0.3976 -2.1797
 9079TIP3   OH248651   0.927   2.255   1.136 -0.3490  0.8234 -0.2354
 9079TIP3    H148652   0.914   2.199   1.213  0.9083 -0.8348 -1.1710
 9079TIP3    H248653   0.839   2.289   1.117 -0.8351  0.6075  1.3989
 9080TIP3   OH248654   2.497   0.892   0.846 -0.6844 -0.2176  0.0082
 9080TIP3    H148655   2.408   0.873   0.817 -0.4922 -0.5673 -0.3730
 9080TIP3    H248656   2.504   0.851   0.932 -0.0044 -2.7340 -1.1501
 9081TIP3   OH248657   3.948   4.733   4.043 -0.2846  0.1194  0.4904
 9081TIP3    H148658   4.007   4.796   4.001  0.9229 -0.1466  1.7392
 9081TIP3    H248659   3.861   4.761   4.015  0.2519  2.0171  0.5623
 9082TIP3   OH248660   4.496   5.942  12.554  0.0502 -0.1558 -0.3906
 9082TIP3    H148661   4.403   5.959  12.567  0.4333  0.7246  1.6667
 9082TIP3    H248662   4.534   6.028  12.536  0.3888 -0.6127 -2.0173
 9083TIP3   OH248663   6.408   6.785   4.700  0.6154 -0.4588  0.1440
 9083TIP3    H148664   6.461   6.827   4.633 -0.7687 -1.7709 -1.8899
 9083TIP3    H248665   6.400   6.851   4.769  2.2377  0.8889 -0.8714
 9084TIP3   OH248666   2.902   2.165  16.148  0.2215 -0.1129  0.0234
 9084TIP3    H148667   2.835   2.096  16.150 -1.5188  1.4897 -0.4660
 9084TIP3    H248668   2.965   2.139  16.215 -1.1935 -1.3894  0.9335
 9085TIP3   OH248669   1.784   1.931  12.337 -0.5095  0.0335 -0.0839
 9085TIP3    H148670   1.857   1.870  12.331 -1.1748 -1.2655  2.9735
 9085TIP3    H248671   1.716   1.893  12.281 -0.9939 -2.3182  1.9232
 9086TIP3   OH248672   5.968   6.697  10.785  0.1532  0.4503 -0.2340
 9086TIP3    H148673   5.890   6.674  10.736 -1.3500 -0.6936  2.4746
 9086TIP3    H248674   6.029   6.625  10.770 -0.5509 -0.2215  0.1089
 9087TIP3   OH248675   4.469   1.811   4.735  0.3468 -0.4613  0.0194
 9087TIP3    H148676   4.418   1.891   4.725  0.7364 -0.2620 -0.4465
 9087TIP3    H248677   4.411   1.749   4.779  0.2607  0.2856  0.9647
 9088TIP3   OH248678   6.687   0.724   4.679 -0.2848 -0.0923 -0.8165
 9088TIP3    H148679   6.633   0.646   4.692  0.3458 -0.3742  0.2646
 9088TIP3    H248680   6.753   0.698   4.614 -0.1606 -0.4199 -0.5605
 9089TIP3   OH248681   1.978   3.143   5.297 -0.1170  0.2370  0.4230
 9089TIP3    H148682   2.037   3.182   5.361 -1.7240  0.0060  2.1449
 9089TIP3    H248683   2.021   3.061   5.272  0.6230  0.3991  1.1208
 9090TIP3   OH248684   6.787   5.333   1.945  0.3367 -0.9666  0.2399
 9090TIP3    H148685   6.708   5.386   1.950 -0.3459 -1.7034 -1.7157
 9090TIP3    H248686   6.857   5.392   1.974 -0.4877  0.7754 -1.1040
 9091TIP3   OH248687   1.949   5.884   6.006  0.0446  0.3513  0.3900
 9091TIP3    H148688   1.860   5.851   5.998 -0.0457  0.7716 -0.5149
 9091TIP3    H248689   1.941   5.963   6.059 -0.3096  1.0337 -0.6423
 9092TIP3   OH248690   3.090   0.565  11.057 -0.3193 -0.2659  0.0116
 9092TIP3    H148691   3.051   0.480  11.078  0.3214 -0.5958 -0.1191
 9092TIP3    H248692   3.033   0.629  11.100 -0.3765 -0.7995  0.7410
 9093TIP3   OH248693   0.222   0.789   1.706 -0.2876  0.2393  0.0245
 9093TIP3    H148694   0.298   0.730   1.714 -1.1799 -1.0300 -0.5971
 9093TIP3    H248695   0.236   0.834   1.622 -0.2504 -0.0270 -0.1128
 9094TIP3   OH248696   3.404   4.409   2.700  0.3841 -0.0571  0.1030
 9094TIP3    H148697   3.440   4.322   2.684  0.0178 -0.7847  2.8316
 9094TIP3    H248698   3.342   4.397   2.772 -0.2820  2.3320  0.0031
 9095TIP3   OH248699   1.018   1.365   4.325  0.4830 -0.3163 -0.5168
 9095TIP3    H148700   1.011   1.461   4.321  1.2393 -0.2274  0.1228
 9095TIP3    H248701   0.954   1.334   4.261  0.5273  0.6257 -1.0382
 9096TIP3   OH248702   4.809   0.311  11.068 -0.1302  0.9586 -0.2237
 9096TIP3    H148703   4.784   0.226  11.105 -4.0022  1.9237 -0.2699
 9096TIP3    H248704   4.830   0.291  10.977 -4.3176  0.2751 -1.2439
 9097TIP3   OH248705   3.738   4.459   5.176 -0.1130  0.2291  0.1144
 9097TIP3    H148706   3.794   4.385   5.199  0.5774  0.9317  0.8024
 9097TIP3    H248707   3.655   4.440   5.220  0.4199  0.3830  1.2370
 9098TIP3   OH248708   4.126   0.031   2.796 -0.0419 -0.4301 -0.4557
 9098TIP3    H148709   4.177   0.111   2.786 -0.1292 -0.2886  0.2021
 9098TIP3    H248710   4.047   0.047   2.744 -0.7030  0.4815  0.7626
 9099TIP3   OH248711   5.210   5.037   2.226  0.4969 -0.1642  0.3389
 9099TIP3    H148712   5.288   5.011   2.177  1.8478  2.9349  0.6427
 9099TIP3    H248713   5.208   5.132   2.220 -3.0767 -0.0634  0.7116
 9100TIP3   OH248714   4.072   5.704   0.478  0.0318 -0.2659 -0.4059
 9100TIP3    H148715   4.006   5.748   0.532  0.6324 -0.3768  0.4490
 9100TIP3    H248716   4.029   5.689   0.394  0.1027  2.9466 -1.1715
 9101TIP3   OH248717   4.472   1.839   1.595 -0.2995 -0.0140  0.1900
 9101TIP3    H148718   4.509   1.836   1.683  0.4529  0.1225 -0.1154
 9101TIP3    H248719   4.381   1.864   1.608 -0.5445 -1.2370  1.0250
 9102TIP3   OH248720   1.918   2.836   3.762  0.4369 -0.2379 -0.0805
 9102TIP3    H148721   2.006   2.856   3.792 -0.0798  1.2336  0.5752
 9102TIP3    H248722   1.879   2.921   3.744 -0.2272 -0.9452 -2.2453
 9103TIP3   OH248723   6.799   0.673   1.707 -0.2170  0.9454 -0.1184
 9103TIP3    H148724   6.871   0.736   1.709  0.5427  0.1028 -0.2785
 9103TIP3    H248725   6.788   0.646   1.799  0.8002 -0.1553 -0.2979
 9104TIP3   OH248726   5.045   0.986  14.470 -0.5562  0.6492 -0.0272
 9104TIP3    H148727   4.979   1.012  14.405 -1.8730 -2.4271 -0.0789
 9104TIP3    H248728   5.000   0.925  14.528  1.5368  0.5909  1.6782
 9105TIP3   OH248729   4.991   0.476   3.321 -0.2692 -0.6434 -0.0153
 9105TIP3    H148730   4.952   0.509   3.402 -1.5546 -1.7610 -0.1277
 9105TIP3    H248731   5.077   0.444   3.347 -0.3429 -0.2475  0.7436
 9106TIP3   OH248732   4.516   5.697   0.801 -0.0623 -0.1917 -0.2567
 9106TIP3    H148733   4.584   5.746   0.847 -2.0314  2.2908  0.2279
 9106TIP3    H248734   4.531   5.605   0.825  1.8203  0.5190  1.5009
 9107TIP3   OH248735   4.182   4.945   5.793 -0.2120  0.2045 -0.4683
 9107TIP3    H148736   4.218   4.925   5.707 -1.1112 -0.0955 -0.7801
 9107TIP3    H248737   4.259   4.966   5.846  0.3084  0.8745 -1.4567
 9108TIP3   OH248738   4.333   5.968   3.091 -0.3928 -0.7099 -0.2989
 9108TIP3    H148739   4.318   6.029   3.018  0.1867  1.4844  1.3190
 9108TIP3    H248740   4.421   5.934   3.076 -0.3723 -0.4643 -0.7495
 9109TIP3   OH248741   3.089   1.834  13.467 -0.1214 -0.1016  0.1301
 9109TIP3    H148742   3.017   1.866  13.522 -0.7081 -1.8153  0.4143
 9109TIP3    H248743   3.154   1.905  13.469 -2.3550  2.1737 -1.3386
 9110TIP3   OH248744   3.183   0.510   2.931  0.1377  0.0412 -0.1553
 9110TIP3    H148745   3.156   0.594   2.968  0.7368 -0.0359  0.4785
 9110TIP3    H248746   3.165   0.446   2.999 -0.6259 -0.4093 -0.7596
 9111TIP3   OH248747   6.306   3.723   0.129  0.1878  0.0220 -0.9007
 9111TIP3    H148748   6.286   3.798   0.075 -0.7183 -1.1648 -2.2774
 9111TIP3    H248749   6.222   3.698   0.168  0.5152 -0.1749 -0.3038
 9112TIP3   OH248750   3.432   3.189   4.165 -0.6320 -0.2802  0.2431
 9112TIP3    H148751   3.455   3.104   4.129 -2.1965 -0.5741 -0.1656
 9112TIP3    H248752   3.491   3.251   4.121  0.6137 -1.1540  0.6551
 9113TIP3   OH248753   1.683   4.780   2.023 -0.6083 -0.6108  0.2902
 9113TIP3    H148754   1.729   4.697   2.012 -3.0371 -1.9625 -0.4376
 9113TIP3    H248755   1.593   4.755   2.043 -1.4329  1.8720  0.0214
 9114TIP3   OH248756   5.045   5.652   3.087 -0.5775  0.4491 -0.0333
 9114TIP3    H148757   5.084   5.588   3.028  1.0249  1.6552 -0.3598
 9114TIP3    H248758   4.979   5.603   3.136  0.3136 -1.3407 -0.5480
 9115TIP3   OH248759   1.616   5.275   2.920 -0.8034  0.3896 -0.1644
 9115TIP3    H148760   1.693   5.252   2.972 -2.1934 -2.1218  0.9446
 9115TIP3    H248761   1.650   5.297   2.834  1.1384 -0.9882  0.2036
 9116TIP3   OH248762   1.776   2.047  14.717 -0.1315  0.2646 -0.1177
 9116TIP3    H148763   1.743   2.016  14.633  1.3958 -0.1674 -0.5913
 9116TIP3    H248764   1.830   2.123  14.695 -1.4640  1.5086  0.7262
 9117TIP3   OH248765   1.986   0.770   4.423  0.1631 -0.3587 -0.1718
 9117TIP3    H148766   2.068   0.764   4.472  0.2268  0.9508 -0.0805
 9117TIP3    H248767   2.000   0.715   4.346  0.6311 -1.1880  0.4880
 9118TIP3   OH248768   0.008   4.407  11.586  0.6630  0.0968  0.2113
 9118TIP3    H148769   0.038   4.352  11.513  0.0880  0.3462 -0.2202
 9118TIP3    H248770  -0.065   4.358  11.624  0.8251  0.0703  0.4940
 9119TIP3   OH248771   0.340   3.688  14.859 -0.5452 -0.0956 -0.0305
 9119TIP3    H148772   0.327   3.615  14.799  2.2175 -0.6324 -0.1413
 9119TIP3    H248773   0.390   3.752  14.809  2.6065 -0.9271  1.7627
 9120TIP3   OH248774   6.281   0.227   3.126  0.6614 -0.1233 -0.1528
 9120TIP3    H148775   6.307   0.191   3.041  0.8104 -0.2103 -0.0713
 9120TIP3    H248776   6.362   0.262   3.162 -0.0097  3.4436 -1.7246
 9121TIP3   OH248777   0.314   5.873   2.653 -0.1468  0.2112  0.0450
 9121TIP3    H148778   0.398   5.909   2.682 -1.4447  3.1371  0.5537
 9121TIP3    H248779   0.286   5.816   2.724  0.0221  1.6471  1.3034
 9122TIP3   OH248780   5.665   2.340   0.238  0.6832 -0.2696 -1.2045
 9122TIP3    H148781   5.671   2.399   0.163  0.6292  1.5768  0.1769
 9122TIP3    H248782   5.755   2.311   0.253  1.5576  3.0095  0.7412
 9123TIP3   OH248783   6.095   3.530   3.518 -0.0579  0.4101  0.0004
 9123TIP3    H148784   6.127   3.588   3.587 -0.5549  0.4140  0.2329
 9123TIP3    H248785   6.167   3.470   3.502 -0.8546 -1.3583  2.4627
 9124TIP3   OH248786   6.799   6.248  16.944 -0.6398 -0.2489  0.1853
 9124TIP3    H148787   6.815   6.304  16.868  2.8262  1.3511  1.8832
 9124TIP3    H248788   6.822   6.160  16.914  0.5686  0.3298 -0.6860
 9125TIP3   OH248789   0.967   2.148   2.853 -0.3305 -0.1678 -0.5137
 9125TIP3    H148790   1.021   2.220   2.819 -1.2843 -0.2221 -2.2967
 9125TIP3    H248791   0.993   2.139   2.944  1.3042  1.0537 -0.8120
 9126TIP3   OH248792   1.325   1.918   0.061  0.6757  0.4520  0.4986
 9126TIP3    H148793   1.269   1.966  -0.001  1.1683  0.0071 -0.3098
 9126TIP3    H248794   1.367   1.851   0.007  1.1148  0.0562  1.3280
 9127TIP3   OH248795   0.479   6.718   3.939  0.1253  0.2326 -0.2772
 9127TIP3    H148796   0.571   6.699   3.954 -0.3146 -1.4749  0.6007
 9127TIP3    H248797   0.444   6.740   4.026 -0.7211 -1.3845 -0.1604
 9128TIP3   OH248798   4.163   2.729  15.589 -0.0013 -0.0367 -0.1891
 9128TIP3    H148799   4.091   2.787  15.615 -1.1288 -0.2646 -2.5523
 9128TIP3    H248800   4.159   2.657  15.653 -0.7384  0.8003  0.7628
 9129TIP3   OH248801   6.651   0.530  12.681 -0.3418 -0.0505  0.3521
 9129TIP3    H148802   6.610   0.524  12.766  1.2739 -1.6379  1.0906
 9129TIP3    H248803   6.721   0.594  12.692  0.1892 -0.6254  0.3790
 9130TIP3   OH248804   3.912   1.006   5.127 -0.3838  0.5073  0.0447
 9130TIP3    H148805   3.957   0.971   5.203  0.1113  0.2028 -0.3815
 9130TIP3    H248806   3.881   1.093   5.154  1.6564  1.3222 -0.0678
 9131TIP3   OH248807   5.344   4.733  11.985 -0.5139  0.1021 -0.0707
 9131TIP3    H148808   5.368   4.817  12.026 -1.1281  0.0783  0.3345
 9131TIP3    H248809   5.250   4.726  11.996 -0.4480 -0.7208  0.0233
 9132TIP3   OH248810   1.494   5.837   0.413 -0.2148  0.4953 -0.0171
 9132TIP3    H148811   1.544   5.918   0.409  1.3065 -0.4280 -1.3050
 9132TIP3    H248812   1.451   5.830   0.328 -0.0435 -0.2098 -0.0571
 9133TIP3   OH248813   3.966   4.574  14.365  0.0662 -0.3557 -0.3013
 9133TIP3    H148814   4.039   4.629  14.337 -0.9497  0.1811 -2.1170
 9133TIP3    H248815   3.953   4.596  14.457  3.4809 -2.0519  0.7398
 9134TIP3   OH248816   0.058   1.188   2.454  0.1584  0.2350 -0.0764
 9134TIP3    H148817  -0.008   1.137   2.501  0.7094  0.7488  1.3053
 9134TIP3    H248818   0.049   1.160   2.363 -0.8893 -0.8585  0.3323
 9135TIP3   OH248819   3.684   2.216   4.607  0.2143 -0.6694  0.4635
 9135TIP3    H148820   3.633   2.141   4.635  1.5453 -1.4879  0.8118
 9135TIP3    H248821   3.632   2.292   4.632 -0.2570 -1.4403  1.8939
 9136TIP3   OH248822   3.029   1.687   3.393 -0.1359 -0.2769 -0.1017
 9136TIP3    H148823   3.029   1.764   3.450  1.4347  1.5756 -2.3996
 9136TIP3    H248824   2.958   1.703   3.332 -0.4749 -1.2101  0.0323
 9137TIP3   OH248825   1.712   6.600   2.567 -0.3447 -0.4244 -0.3389
 9137TIP3    H148826   1.755   6.515   2.577 -0.1682 -0.4522 -1.2459
 9137TIP3    H248827   1.771   6.662   2.609 -0.2751 -0.6932 -0.0368
 9138TIP3   OH248828   0.006   3.740   0.039 -0.6045 -0.2151 -0.0877
 9138TIP3    H148829  -0.030   3.747  -0.049 -0.9766 -0.2278  0.0605
 9138TIP3    H248830  -0.057   3.786   0.095 -0.4618 -0.3573  0.1954
 9139TIP3   OH248831   1.506   4.742  12.106 -0.1112  0.7151  0.1184
 9139TIP3    H148832   1.414   4.722  12.088  0.1523 -0.2871 -0.1737
 9139TIP3    H248833   1.545   4.658  12.131  0.8780  0.9959 -0.4081
 9140TIP3   OH248834   1.893   3.135  10.994 -0.4497 -0.3221 -0.5114
 9140TIP3    H148835   1.918   3.071  10.927 -0.9895 -0.2989 -0.7431
 9140TIP3    H248836   1.854   3.082  11.064  0.6603 -0.4069  0.0660
 9141TIP3   OH248837   3.203   0.959   2.472  0.2692  0.1741  0.6984
 9141TIP3    H148838   3.294   0.935   2.456 -0.6280 -2.9178 -0.5880
 9141TIP3    H248839   3.170   0.892   2.532 -1.1252  1.4287  1.4257
 9142TIP3   OH248840   5.273   1.141   5.738 -0.1146 -0.0722 -0.5996
 9142TIP3    H148841   5.280   1.077   5.667  0.3652 -0.7904  0.0795
 9142TIP3    H248842   5.180   1.165   5.739  0.1609  1.2931 -2.6057
 9143TIP3   OH248843   1.855   0.805   1.650  0.3216  0.3367  0.5721
 9143TIP3    H148844   1.921   0.866   1.617 -0.5523  0.2892 -1.4097
 9143TIP3    H248845   1.780   0.861   1.671 -0.1881  0.0809 -0.4660
 9144TIP3   OH248846   6.089   4.564  14.567 -0.2801 -0.5305  0.7318
 9144TIP3    H148847   6.138   4.569  14.649 -0.6262  0.8514  0.8836
 9144TIP3    H248848   6.098   4.651  14.529 -0.5327 -1.0158 -0.4635
 9145TIP3   OH248849   1.037   1.327   2.529 -0.2651  0.7184 -0.3734
 9145TIP3    H148850   1.120   1.290   2.558 -0.3744  1.0365  0.3664
 9145TIP3    H248851   0.972   1.291   2.590 -0.3800  2.0846  0.3684
 9146TIP3   OH248852   4.443   5.361  14.998 -0.4143  0.4395  1.2043
 9146TIP3    H148853   4.439   5.368  14.902 -0.8511 -3.4232  0.7738
 9146TIP3    H248854   4.514   5.300  15.015 -1.3112 -0.1160  3.2480
 9147TIP3   OH248855   5.008   6.810   0.608  0.0021 -0.2548 -0.2836
 9147TIP3    H148856   5.000   6.843   0.698  1.2098  0.2704 -0.3504
 9147TIP3    H248857   5.057   6.878   0.562  1.2309 -1.4465 -0.8112
 9148TIP3   OH248858   6.585   3.721   1.303 -0.3132  0.1736 -0.3260
 9148TIP3    H148859   6.529   3.643   1.306 -1.0844  0.7364  1.4811
 9148TIP3    H248860   6.540   3.780   1.242 -1.3735  0.3642  0.6158
 9149TIP3   OH248861   5.333   0.862   5.264 -0.2014  0.2374 -0.1930
 9149TIP3    H148862   5.273   0.799   5.306  0.7798  0.0736  1.0009
 9149TIP3    H248863   5.402   0.876   5.328 -0.1379  2.2014 -0.6294
 9150TIP3   OH248864   6.101   3.959   4.618 -0.1349 -0.0320 -0.1434
 9150TIP3    H148865   6.028   3.945   4.558  1.1614  0.7172 -2.0125
 9150TIP3    H248866   6.077   4.038   4.667 -0.6696  0.1056 -0.6134
 9151TIP3   OH248867   5.977   3.383  16.998  0.2244  0.1006 -0.2066
 9151TIP3    H148868   5.912   3.420  16.938  1.1421 -0.4884 -1.6077
 9151TIP3    H248869   6.016   3.458  17.041 -0.5098  0.5252 -0.2613
 9152TIP3   OH248870   0.094   4.975   2.047 -0.0799 -0.1770 -0.4995
 9152TIP3    H148871   0.026   5.040   2.032  1.4309  1.7166  0.5031
 9152TIP3    H248872   0.176   5.022   2.033  1.0752 -2.3607 -1.5668
 9153TIP3   OH248873   2.405   3.174  16.848  0.8145  0.5524  0.2879
 9153TIP3    H148874   2.360   3.254  16.825  1.4220  0.7966 -0.0747
 9153TIP3    H248875   2.497   3.201  16.861  0.6103  0.3717  2.5602
 9154TIP3   OH248876   6.530   0.492  12.914 -0.6643  0.1244 -0.4994
 9154TIP3    H148877   6.443   0.505  12.953  0.0756  0.4388  1.1283
 9154TIP3    H248878   6.569   0.423  12.967 -0.4719 -1.1397 -2.2085
 9155TIP3   OH248879   1.154   3.224   0.203 -0.6280 -0.6567  0.2807
 9155TIP3    H148880   1.222   3.200   0.141 -1.3503 -1.5488 -0.1993
 9155TIP3    H248881   1.192   3.206   0.289 -0.2381 -1.1217  0.0172
 9156TIP3   OH248882   5.108   5.311   0.107  0.3817 -0.3522  0.5120
 9156TIP3    H148883   5.113   5.322   0.202  1.1506 -2.2312  0.7260
 9156TIP3    H248884   5.155   5.387   0.072  1.6281 -0.5434  1.6925
 9157TIP3   OH248885   1.706   6.363   4.201  0.3437  0.1697  0.0701
 9157TIP3    H148886   1.622   6.354   4.156  0.9225 -0.9414 -0.8365
 9157TIP3    H248887   1.686   6.341   4.292 -0.2380 -0.7482 -0.2651
 9158TIP3   OH248888   4.299   5.117   3.433  0.5775  0.1030 -0.0856
 9158TIP3    H148889   4.305   5.168   3.514 -2.6441 -1.5559  1.3440
 9158TIP3    H248890   4.295   5.026   3.461 -2.1730 -0.4570 -1.9431
 9159TIP3   OH248891   6.191   1.414   3.716  0.2083 -0.1352 -0.2081
 9159TIP3    H148892   6.248   1.415   3.793  0.3560  1.3754 -0.3158
 9159TIP3    H248893   6.175   1.321   3.700  1.5546 -0.5468  0.6274
 9160TIP3   OH248894   6.197   0.376  15.957  0.1719 -0.4685 -0.0501
 9160TIP3    H148895   6.240   0.369  15.871  0.8325 -0.7465  0.2908
 9160TIP3    H248896   6.218   0.464  15.987 -2.3355  0.6645 -1.3264
 9161TIP3   OH248897   3.523   0.903  12.756  0.0676  0.3775 -0.6095
 9161TIP3    H148898   3.500   0.835  12.819  0.3936  0.0946 -0.7968
 9161TIP3    H248899   3.537   0.981  12.810  0.3044  0.1466 -0.3298
 9162TIP3   OH248900   0.838   0.314  10.731 -0.1351 -0.1893  0.5655
 9162TIP3    H148901   0.846   0.219  10.745  1.9543  0.2878  3.6483
 9162TIP3    H248902   0.764   0.340  10.785 -2.5930 -0.2890 -2.4969
 9163TIP3   OH248903   0.684   5.462   1.934 -0.2227 -0.4068 -0.0033
 9163TIP3    H148904   0.637   5.541   1.908  0.1967 -0.2503 -0.2960
 9163TIP3    H248905   0.769   5.470   1.892 -0.6782 -1.7172 -1.2403
 9164TIP3   OH248906   0.031   0.422  13.681 -0.1910 -0.4317 -0.3938
 9164TIP3    H148907   0.112   0.416  13.631 -1.5189  1.8476 -3.0678
 9164TIP3    H248908   0.032   0.510  13.719 -0.5278 -1.1232  1.3434
 9165TIP3   OH248909   5.821   3.293   0.696 -0.0314 -0.2756  0.3389
 9165TIP3    H148910   5.815   3.208   0.740 -0.9289 -0.1774  0.4223
 9165TIP3    H248911   5.732   3.329   0.701  0.0639  0.1371 -0.7673
 9166TIP3   OH248912   5.253   0.946  11.867 -0.1760  0.7708 -0.1529
 9166TIP3    H148913   5.198   1.007  11.917 -0.1632  0.7853 -0.1564
 9166TIP3    H248914   5.194   0.874  11.843 -0.0953  0.5870  0.1935
 9167TIP3   OH248915   5.982   2.428   3.394  0.0348 -0.5284  0.7906
 9167TIP3    H148916   5.947   2.457   3.478  1.7986  2.5629  0.5976
 9167TIP3    H248917   5.977   2.505   3.338  1.5640 -1.6777 -1.0264
 9168TIP3   OH248918   1.472   0.662   3.917 -0.2255  0.4015 -0.3586
 9168TIP3    H148919   1.414   0.606   3.865 -0.6282  0.0151  0.4824
 9168TIP3    H248920   1.543   0.604   3.944  0.7385  0.9366 -1.6120
 9169TIP3   OH248921   2.327   2.095   0.671 -0.0761 -0.4002 -0.2276
 9169TIP3    H148922   2.336   2.180   0.715  2.1779  0.3585 -1.9415
 9169TIP3    H248923   2.234   2.091   0.647 -0.1144  1.9620 -0.7328
 9170TIP3   OH248924   3.075   4.073   4.752  0.1736  0.0741  0.2977
 9170TIP3    H148925   3.121   4.002   4.707  0.9350  0.0403  1.0910
 9170TIP3    H248926   3.002   4.031   4.797 -1.5499  0.3174 -2.1026
 9171TIP3   OH248927   0.135   3.630  15.450  0.4029 -0.4435 -0.8322
 9171TIP3    H148928   0.091   3.590  15.525  0.4391  1.2056  0.1013
 9171TIP3    H248929   0.066   3.680  15.405  0.6002 -0.6022 -1.3247
 9172TIP3   OH248930   3.657   1.453  12.022 -0.3227  0.4106 -0.2627
 9172TIP3    H148931   3.649   1.373  11.969  0.0093  0.4810 -0.4241
 9172TIP3    H248932   3.732   1.436  12.079 -0.2113  0.6345 -0.3435
 9173TIP3   OH248933   5.564   0.942  12.473  0.7297  0.2119 -0.1435
 9173TIP3    H148934   5.480   0.934  12.518 -0.1921  0.6878 -1.7116
 9173TIP3    H248935   5.601   0.854  12.476 -0.0323 -0.1063  0.1641
 9174TIP3   OH248936   3.829   2.436   2.750  0.1643  0.5382 -0.1828
 9174TIP3    H148937   3.892   2.504   2.727  1.3500  0.2968  2.0384
 9174TIP3    H248938   3.750   2.484   2.777  1.0713  1.1182  1.5906
 9175TIP3   OH248939   3.881   0.722   1.389  0.4208  0.3856  0.2258
 9175TIP3    H148940   3.913   0.750   1.303  0.6939 -0.7689 -0.0758
 9175TIP3    H248941   3.858   0.630   1.376 -0.9774  0.6066  1.0077
 9176TIP3   OH248942   5.169   2.132   3.279  0.0973  0.1129 -0.1490
 9176TIP3    H148943   5.212   2.110   3.362 -1.2859  3.2504  1.5696
 9176TIP3    H248944   5.241   2.148   3.218  1.1617 -1.9306  0.4742
 9177TIP3   OH248945   1.872   2.909  12.689 -0.2645  0.5118  0.0729
 9177TIP3    H148946   1.856   2.996  12.725  1.0688  0.9101 -0.2275
 9177TIP3    H248947   1.800   2.855  12.722  1.1639  0.6595  3.8566
 9178TIP3   OH248948   6.248   1.679  15.130  0.0770  0.2491  0.1909
 9178TIP3    H148949   6.272   1.718  15.213  3.2628 -0.7478 -0.1589
 9178TIP3    H248950   6.309   1.717  15.066 -1.4349  0.0174 -1.5006
 9179TIP3   OH248951   6.222   3.318   5.630 -0.4281 -0.2923  0.0299
 9179TIP3    H148952   6.261   3.231   5.632 -0.3920 -0.2682  0.5132
 9179TIP3    H248953   6.145   3.311   5.685  1.3297  0.7903  2.8621
 9180TIP3   OH248954   2.717   5.341  14.290 -0.3680 -0.1995  0.6727
 9180TIP3    H148955   2.661   5.316  14.363 -2.1262  0.9769 -0.1996
 9180TIP3    H248956   2.754   5.259  14.259 -1.1350 -0.9465  1.6447
 9181TIP3   OH248957   4.656   4.128   2.552  0.1742 -0.4068 -0.2946
 9181TIP3    H148958   4.620   4.171   2.474  0.1769 -0.9670 -0.6163
 9181TIP3    H248959   4.751   4.131   2.539  0.1373 -2.4778 -1.4451
 9182TIP3   OH248960   6.678   4.083   1.725 -0.9665 -0.2870 -0.3239
 9182TIP3    H148961   6.641   4.100   1.812 -0.0455 -2.5506  0.5852
 9182TIP3    H248962   6.602   4.085   1.666 -1.4668  2.3867  0.2832
 9183TIP3   OH248963   0.113   1.914  14.369  0.0845 -0.3288 -0.3726
 9183TIP3    H148964   0.041   1.877  14.420  1.4752  0.1432  2.0577
 9183TIP3    H248965   0.190   1.904  14.425  1.5450  1.1292 -2.0028
 9184TIP3   OH248966   1.138   6.324   3.357 -0.3887  0.5692  0.2100
 9184TIP3    H148967   1.135   6.229   3.351 -0.0054  0.6231 -1.8063
 9184TIP3    H248968   1.140   6.343   3.450 -0.6454 -1.3844  0.6522
 9185TIP3   OH248969   2.691   4.315  14.491  0.1869 -0.0581  0.4475
 9185TIP3    H148970   2.691   4.374  14.566  2.3715  0.3573  0.1928
 9185TIP3    H248971   2.759   4.251  14.510  1.0040  0.2291 -1.2829
 9186TIP3   OH248972   5.673   3.568   3.407 -0.1457  0.4321 -0.4230
 9186TIP3    H148973   5.591   3.609   3.378 -0.5512  1.0706  1.5262
 9186TIP3    H248974   5.652   3.474   3.409 -1.2957  0.6839  1.3171
 9187TIP3   OH248975   5.632   0.241  11.614  0.0769 -0.0295 -0.2444
 9187TIP3    H148976   5.728   0.240  11.618  0.2164  0.8545 -2.2100
 9187TIP3    H248977   5.610   0.334  11.604 -0.7019 -0.4605 -3.7199
 9188TIP3   OH248978   2.896   5.450  14.008 -0.2061  0.2692  0.4417
 9188TIP3    H148979   2.866   5.453  13.917  0.9898 -1.1505 -0.0380
 9188TIP3    H248980   2.927   5.361  14.020 -1.4598  0.0594  2.6447
 9189TIP3   OH248981   1.357   2.588  14.767  0.3842 -1.0353 -0.2555
 9189TIP3    H148982   1.410   2.668  14.762 -0.5491 -0.3927 -0.3065
 9189TIP3    H248983   1.420   2.517  14.771  1.2425 -0.2762  0.0176
 9190TIP3   OH248984   6.519   1.921   4.555 -0.0739  0.5743  0.4633
 9190TIP3    H148985   6.488   1.921   4.645 -0.2370  1.8768  0.4230
 9190TIP3    H248986   6.613   1.936   4.563  0.2772 -1.3753  0.4886
 9191TIP3   OH248987   1.816   6.199   5.923 -0.1055  0.3706 -0.2648
 9191TIP3    H148988   1.789   6.281   5.962 -0.2988  0.3025 -0.2547
 9191TIP3    H248989   1.760   6.133   5.963  2.6595 -0.3928  2.8197
 9192TIP3   OH248990   3.095   4.466   4.253 -0.2454 -0.3454 -0.6020
 9192TIP3    H148991   3.086   4.482   4.159 -1.0585 -0.8567 -0.6183
 9192TIP3    H248992   3.006   4.475   4.288  0.1726  0.6709  0.2602
 9193TIP3   OH248993   4.306   6.760  14.414  0.7001 -0.0338  0.1990
 9193TIP3    H148994   4.361   6.702  14.361  0.5737  0.0947 -0.0745
 9193TIP3    H248995   4.367   6.822  14.454  1.0568 -1.3376  1.8117
 9194TIP3   OH248996   1.601   5.389  12.763  0.6613  0.3462  0.5921
 9194TIP3    H148997   1.686   5.432  12.758  0.8239 -0.1196 -1.8674
 9194TIP3    H248998   1.597   5.333  12.685 -2.0880  0.7575  0.3260
 9195TIP3   OH248999   3.002   0.279  11.464  0.1094  0.4608  0.2476
 9195TIP3    H149000   2.938   0.346  11.488  0.2648  0.4651  0.6485
 9195TIP3    H249001   2.969   0.199  11.505 -0.6107  0.0621 -1.0428
 9196TIP3   OH249002   5.934   3.198   0.164 -0.6496 -0.0759 -0.6105
 9196TIP3    H149003   5.961   3.243   0.084  0.4024  0.5254  0.0486
 9196TIP3    H249004   5.918   3.269   0.227  0.2428 -0.5786  0.2132
 9197TIP3   OH249005   1.024   0.790  14.639  0.2860 -0.6343 -0.0716
 9197TIP3    H149006   1.058   0.762  14.724  1.5112 -2.1742 -1.0193
 9197TIP3    H249007   1.072   0.870  14.619  0.8607 -0.9087  0.1797
 9198TIP3   OH249008   2.794   1.687   5.677  0.6855  0.6689  0.3658
 9198TIP3    H149009   2.812   1.767   5.726  1.5057  0.9346 -0.3452
 9198TIP3    H249010   2.802   1.712   5.585 -1.0473  0.2326  0.0588
 9199TIP3   OH249011   3.905   3.713   1.703 -0.0497 -0.7267  0.2267
 9199TIP3    H149012   3.984   3.676   1.741 -0.4432 -0.5153  1.2796
 9199TIP3    H249013   3.935   3.763   1.627  0.9289  0.0381  1.0992
 9200TIP3   OH249014   2.180   2.863  12.258  0.2185  0.6281 -0.4860
 9200TIP3    H149015   2.185   2.931  12.326  0.2447 -0.7392  0.9353
 9200TIP3    H249016   2.262   2.815  12.266 -0.3403 -0.3695 -0.5727
 9201TIP3   OH249017   6.204   2.844   0.221  0.0747 -0.1195 -0.9636
 9201TIP3    H149018   6.251   2.870   0.300 -0.1135 -1.2569 -0.4494
 9201TIP3    H249019   6.151   2.920   0.198 -0.0720  0.1387  0.1668
 9202TIP3   OH249020   3.372   0.898   4.712  0.2280 -0.1543 -0.2982
 9202TIP3    H149021   3.297   0.958   4.721  1.3338  1.1291  0.7174
 9202TIP3    H249022   3.449   0.955   4.717  1.2951 -1.5170 -0.7577
 9203TIP3   OH249023   5.210   0.970  12.210 -0.2499 -0.1384  0.3724
 9203TIP3    H149024   5.209   0.991  12.117  0.4450 -2.9326 -0.3435
 9203TIP3    H249025   5.302   0.970  12.234 -0.3246 -0.8306  0.6873
 9204TIP3   OH249026   4.056   4.190  12.702 -0.2615  0.1442 -0.1200
 9204TIP3    H149027   4.128   4.198  12.765  0.8668  1.9960 -1.5581
 9204TIP3    H249028   4.079   4.115  12.647 -0.7406 -0.8352  0.9637
 9205TIP3   OH249029   0.168   1.763   5.437  0.5253 -0.4090 -0.2956
 9205TIP3    H149030   0.089   1.818   5.432  1.0388  0.3240 -0.4544
 9205TIP3    H249031   0.158   1.715   5.520 -0.9547 -1.6996 -1.1702
 9206TIP3   OH249032   6.628   2.439   0.254 -0.0319 -0.4531  0.2885
 9206TIP3    H149033   6.550   2.419   0.203 -0.9288  0.8480  1.0603
 9206TIP3    H249034   6.646   2.360   0.304 -0.1343 -1.1663 -0.7811
 9207TIP3   OH249035   1.807   6.202  15.079 -0.7909  0.2584 -0.1107
 9207TIP3    H149036   1.848   6.144  15.143 -0.2346  0.1387 -0.5766
 9207TIP3    H249037   1.757   6.264  15.133 -2.6803 -1.5453  0.3558
 9208TIP3   OH249038   4.291   4.207  14.019  0.0413  0.4279  0.3801
 9208TIP3    H149039   4.245   4.134  14.060  1.0374  0.1523  1.0396
 9208TIP3    H249040   4.222   4.269  13.996 -1.0064 -1.3618 -1.5963
 9209TIP3   OH249041   4.821   0.299  13.177  0.3183  0.2874 -0.1730
 9209TIP3    H149042   4.770   0.219  13.194  2.0552 -0.9715 -0.6579
 9209TIP3    H249043   4.829   0.303  13.082  2.0886 -0.2082 -0.0770
 9210TIP3   OH249044   3.874   4.568  12.624 -0.7530 -0.0128  0.2467
 9210TIP3    H149045   3.900   4.525  12.706 -0.1314 -1.2935 -0.5999
 9210TIP3    H249046   3.873   4.498  12.559  2.3567  1.5147 -1.6518
 9211TIP3   OH249047   3.223   2.147  11.075 -0.0874 -0.3450 -0.1457
 9211TIP3    H149048   3.149   2.207  11.072  0.2677  0.1929  1.1358
 9211TIP3    H249049   3.291   2.195  11.122 -0.2547 -2.2213  2.1914
 9212TIP3   OH249050   2.542   4.357  12.847 -0.3045  0.1038 -0.2305
 9212TIP3    H149051   2.528   4.315  12.932  0.5853  0.5010  0.1222
 9212TIP3    H249052   2.563   4.284  12.788 -1.8143 -0.2825 -0.3474
 9213TIP3   OH249053   3.216   5.265  13.506  0.2968 -0.4285  0.5456
 9213TIP3    H149054   3.185   5.305  13.588 -0.3505 -0.6520  0.4123
 9213TIP3    H249055   3.301   5.307  13.490  0.2302 -0.0678  1.1043
 9214TIP3   OH249056   5.265   6.649   4.964 -0.0165 -0.1140  0.1766
 9214TIP3    H149057   5.272   6.600   5.046 -0.1751 -0.7627 -0.1839
 9214TIP3    H249058   5.220   6.589   4.904 -0.1285  0.4429 -0.3119
 9215TIP3   OH249059   4.241   5.188  10.986 -0.4308 -0.1154 -0.6247
 9215TIP3    H149060   4.247   5.128  11.060  1.1100 -0.4522 -0.9988
 9215TIP3    H249061   4.184   5.144  10.923 -2.4032  0.5066  0.6182
 9216TIP3   OH249062   3.491   1.373  16.076 -0.7640  0.1361 -0.1436
 9216TIP3    H149063   3.414   1.402  16.125 -1.1934  0.7866 -1.1459
 9216TIP3    H249064   3.558   1.356  16.142 -1.7799 -0.4881  0.7558
 9217TIP3   OH249065   5.537   1.607  14.623  0.1326 -0.0639  0.3338
 9217TIP3    H149066   5.554   1.649  14.708 -0.5477  0.1052  0.3919
 9217TIP3    H249067   5.489   1.673  14.573  1.5033  0.2730 -0.6213
 9218TIP3   OH249068   4.054   4.723  16.950 -0.1108 -0.1719  0.0275
 9218TIP3    H149069   4.119   4.655  16.935  1.0903  1.1661 -1.2088
 9218TIP3    H249070   4.035   4.758  16.863 -2.7281 -0.6811  0.3311
 9219TIP3   OH249071   4.911   4.486   1.300 -0.0489  0.6406 -0.4381
 9219TIP3    H149072   4.847   4.465   1.232 -1.4388  1.2964  0.6292
 9219TIP3    H249073   4.928   4.402   1.343  0.1861  0.3796 -1.0230
 9220TIP3   OH249074   1.228   0.170  12.544  0.2692  0.7127  0.1158
 9220TIP3    H149075   1.141   0.189  12.581  0.9937  1.5648  1.4878
 9220TIP3    H249076   1.214   0.096  12.486 -1.4963  1.2445 -0.1899
 9221TIP3   OH249077   6.028   0.850  11.059 -0.5090 -0.6711  0.7046
 9221TIP3    H149078   6.031   0.921  10.994 -4.2203 -0.5512  0.4240
 9221TIP3    H249079   6.063   0.774  11.012 -0.8045 -0.0315 -0.6201
 9222TIP3   OH249080   1.597   0.582   3.204 -0.0262 -0.4981 -0.1163
 9222TIP3    H149081   1.692   0.587   3.211 -0.0472 -0.3879  0.0953
 9222TIP3    H249082   1.570   0.673   3.192 -0.0644 -0.5815 -0.7045
 9223TIP3   OH249083   5.833   2.576  16.329  0.0892 -0.2324  0.7695
 9223TIP3    H149084   5.878   2.533  16.256 -2.5802 -0.3300 -0.9787
 9223TIP3    H249085   5.784   2.647  16.288 -0.4973  0.5326  2.6910
 9224TIP3   OH249086   5.584   6.453   4.395  0.4849  0.1921  0.0118
 9224TIP3    H149087   5.639   6.405   4.457  0.5545 -1.6351 -1.3616
 9224TIP3    H249088   5.510   6.484   4.447  1.1756 -0.1778  1.2516
 9225TIP3   OH249089   4.298   4.406   3.062  0.0413  0.2899 -0.3930
 9225TIP3    H149090   4.221   4.352   3.079 -0.0209  0.3281 -0.5513
 9225TIP3    H249091   4.361   4.345   3.021 -0.6380  0.6954 -2.1482
 9226TIP3   OH249092   0.166   0.767   4.282  0.1991  0.0733  0.4306
 9226TIP3    H149093   0.262   0.764   4.284  0.2666  1.1570 -0.0805
 9226TIP3    H249094   0.146   0.819   4.204 -0.8096 -0.2719  0.4540
 9227TIP3   OH249095   0.090   0.074   2.930  0.1468  0.0552  0.0318
 9227TIP3    H149096   0.060  -0.017   2.924  2.3199 -0.8059  1.3331
 9227TIP3    H249097   0.151   0.084   2.857  0.3657  0.2846  0.2436
 9228TIP3   OH249098   2.155   0.656   1.508  0.2738  0.4335 -0.3798
 9228TIP3    H149099   2.190   0.703   1.432  1.6559 -1.1682 -0.8038
 9228TIP3    H249100   2.088   0.598   1.471  0.2662  0.3479 -0.2306
 9229TIP3   OH249101   4.369   0.643   2.480 -0.4014  0.5146 -0.5537
 9229TIP3    H149102   4.444   0.666   2.424 -1.5423  0.6956 -2.0604
 9229TIP3    H249103   4.292   0.660   2.426 -1.5901  0.9813  1.1962
 9230TIP3   OH249104   4.892   6.059  16.471 -0.0110  0.4299  0.1906
 9230TIP3    H149105   4.969   6.061  16.529  0.3279  2.9878 -0.2622
 9230TIP3    H249106   4.928   6.036  16.385  0.4286  2.4257 -0.1948
 9231TIP3   OH249107   4.763   5.025   3.156 -0.6253  1.1201 -0.4250
 9231TIP3    H149108   4.731   5.057   3.241  0.1310  0.4948  0.1051
 9231TIP3    H249109   4.838   5.081   3.136 -0.8734  1.3412 -0.7409
 9232TIP3   OH249110   2.458   0.139  12.794 -0.0141 -0.2794 -0.4618
 9232TIP3    H149111   2.495   0.076  12.857  2.3746  0.0853 -1.3784
 9232TIP3    H249112   2.460   0.092  12.710 -2.0598 -0.3498 -0.5207
 9233TIP3   OH249113   3.083   1.221   4.195 -0.6050 -0.2334 -0.4469
 9233TIP3    H149114   3.132   1.207   4.114  1.3101 -0.2647  0.6459
 9233TIP3    H249115   3.040   1.137   4.212 -1.7194  0.0263 -1.8343
 9234TIP3   OH249116   4.451   2.862  12.624  0.3034 -0.1815 -0.3276
 9234TIP3    H149117   4.358   2.873  12.646  0.2239 -0.3993 -0.5409
 9234TIP3    H249118   4.496   2.931  12.672 -0.0503  0.3632 -0.7730
 9235TIP3   OH249119   2.818   0.178   4.753  0.5624  0.4709 -0.0219
 9235TIP3    H149120   2.727   0.202   4.771  0.8649  1.5655  0.1373
 9235TIP3    H249121   2.826   0.088   4.784 -0.6860  0.0569 -0.8277
 9236TIP3   OH249122   2.242   0.378  16.391  0.4841 -0.0319  0.6519
 9236TIP3    H149123   2.203   0.299  16.355  1.0819  0.0769 -0.2515
 9236TIP3    H249124   2.321   0.348  16.436  0.3099 -0.0341  0.9609
 9237TIP3   OH249125   1.612   6.471  13.871 -0.3540  0.1899 -0.0675
 9237TIP3    H149126   1.612   6.460  13.967 -0.8693 -0.5956 -0.1463
 9237TIP3    H249127   1.705   6.465  13.847  0.0122  2.3971  0.5639
 9238TIP3   OH249128   5.764   0.521   2.888 -0.3585  0.5847  0.3509
 9238TIP3    H149129   5.691   0.535   2.828  0.2421 -0.3815 -0.6306
 9238TIP3    H249130   5.723   0.514   2.974 -1.4365  0.0310 -0.1843
 9239TIP3   OH249131   5.118   5.476   4.155 -0.6140 -0.4153  0.2649
 9239TIP3    H149132   5.116   5.398   4.210 -2.5319 -1.0702 -0.6363
 9239TIP3    H249133   5.201   5.470   4.108  0.8140 -0.1067  2.6365
 9240TIP3   OH249134   0.151   5.736  16.618  0.4396 -0.1903  0.5621
 9240TIP3    H149135   0.128   5.769  16.704  2.2991  0.5341  0.8057
 9240TIP3    H249136   0.195   5.808  16.574 -0.0948 -0.6800 -0.8553
 9241TIP3   OH249137   1.985   5.386   0.046  0.3634 -0.0379  1.2477
 9241TIP3    H149138   1.891   5.399   0.061  0.6777  2.9207  1.2301
 9241TIP3    H249139   2.010   5.317   0.107 -1.6726 -0.3545  1.7899
 9242TIP3   OH249140   3.904   0.507   4.667 -0.1137 -0.1191 -0.1046
 9242TIP3    H149141   3.971   0.453   4.625 -0.5146 -0.0738 -0.8206
 9242TIP3    H249142   3.920   0.496   4.761  0.8080 -0.2116 -0.2625
 9243TIP3   OH249143   5.836   0.194   1.709 -0.1059 -0.2426  0.1887
 9243TIP3    H149144   5.776   0.171   1.639 -0.0484  0.4589 -0.0900
 9243TIP3    H249145   5.887   0.267   1.675 -0.3109  0.3303  1.0878
 9244TIP3   OH249146   2.844   2.781   1.615  0.3438  0.0634 -1.0162
 9244TIP3    H149147   2.921   2.750   1.664  1.0969  0.2608 -2.0258
 9244TIP3    H249148   2.772   2.774   1.676  1.3178  0.6597  0.2535
 9245TIP3   OH249149   5.424   0.496   4.952  0.3513 -0.0728 -0.6256
 9245TIP3    H149150   5.396   0.585   4.975 -1.0784 -0.5946 -0.2264
 9245TIP3    H249151   5.349   0.458   4.908  0.3059 -1.6499  0.7399
 9246TIP3   OH249152   3.471   2.792  12.579  0.0199  0.3064  0.1541
 9246TIP3    H149153   3.462   2.740  12.659 -2.4197 -0.4293 -0.4914
 9246TIP3    H249154   3.509   2.732  12.515  0.5341  0.4248  0.3462
 9247TIP3   OH249155   3.890   6.286   3.925 -0.2992  0.3192  0.4913
 9247TIP3    H149156   3.852   6.297   3.837  0.3141  2.0167  0.3989
 9247TIP3    H249157   3.971   6.337   3.922 -0.1700  0.2260  1.9815
 9248TIP3   OH249158   1.451   0.243  12.977  0.1148 -0.4445 -0.3102
 9248TIP3    H149159   1.364   0.282  12.969 -0.0525 -0.5612  0.8858
 9248TIP3    H249160   1.508   0.301  12.927 -0.4806  0.1780 -0.2723
 9249TIP3   OH249161   4.414   6.297   1.774  0.7490  0.5015 -0.1330
 9249TIP3    H149162   4.336   6.261   1.815  0.7886  0.9779  0.3802
 9249TIP3    H249163   4.487   6.256   1.821  0.7971  0.7048 -0.0272
 9250TIP3   OH249164   6.049   2.580  11.119 -0.0663  0.2260 -0.4850
 9250TIP3    H149165   6.089   2.533  11.046  1.8769  1.6594 -0.4302
 9250TIP3    H249166   6.092   2.665  11.119  1.0394 -0.1548  3.0915
 9251TIP3   OH249167   6.415   1.072   2.645 -0.0870 -0.2067  0.0073
 9251TIP3    H149168   6.341   1.055   2.703  0.8831 -2.2167  0.7542
 9251TIP3    H249169   6.440   0.986   2.612  0.0621  0.7375 -2.6376
 9252TIP3   OH249170   5.419   3.495   4.818 -0.0674 -0.1229 -0.0882
 9252TIP3    H149171   5.367   3.471   4.741  2.0471 -1.0164 -1.3208
 9252TIP3    H249172   5.460   3.413   4.846 -0.8071  0.1915  2.0410
 9253TIP3   OH249173   6.806   6.712   5.527  0.2161  0.0843 -0.3601
 9253TIP3    H149174   6.736   6.706   5.461  0.0705 -2.9831 -0.0950
 9253TIP3    H249175   6.772   6.771   5.593 -1.4625 -0.0792 -1.0278
 9254TIP3   OH249176   5.866   0.088   2.661  0.0065  0.1903 -0.0491
 9254TIP3    H149177   5.832   0.015   2.610 -1.0894  0.7480 -0.1379
 9254TIP3    H249178   5.794   0.150   2.666  0.5176  0.7221  1.0929
 9255TIP3   OH249179   4.858   6.487  15.298  0.5377 -0.8392 -0.2189
 9255TIP3    H149180   4.846   6.472  15.205 -0.6766 -1.7027  0.0647
 9255TIP3    H249181   4.806   6.565  15.317  0.1455 -1.1237 -0.1175
 9256TIP3   OH249182   6.756   1.958   0.010  0.1244  0.4758 -0.4567
 9256TIP3    H149183   6.738   1.947   0.104 -1.0219  0.2720 -0.6778
 9256TIP3    H249184   6.803   1.878  -0.015 -0.2290  0.1847 -0.2041
 9257TIP3   OH249185   3.172   1.503  14.304  0.5513 -0.0111  0.2537
 9257TIP3    H149186   3.101   1.568  14.304  1.2886  0.8609 -1.1682
 9257TIP3    H249187   3.130   1.421  14.326 -1.4659 -0.0398 -3.0092
 9258TIP3   OH249188   5.507   2.216  12.460  0.1110  0.1789 -0.1249
 9258TIP3    H149189   5.489   2.170  12.378  2.0621 -2.0627  0.5857
 9258TIP3    H249190   5.603   2.218  12.466  0.0239  1.2651  1.5936
 9259TIP3   OH249191   0.958   1.629   0.826 -0.1355  0.1454  0.4600
 9259TIP3    H149192   0.991   1.663   0.909  0.2225  2.0195 -0.4066
 9259TIP3    H249193   0.991   1.690   0.760  1.1691 -2.3194 -1.3138
 9260TIP3   OH249194   3.085   5.926   0.650  0.4033  0.2433 -0.0221
 9260TIP3    H149195   2.990   5.926   0.657  0.4209 -0.2547  0.2181
 9260TIP3    H249196   3.103   5.980   0.573  0.0425  2.6839  1.4936
 9261TIP3   OH249197   4.147   6.808   1.647  0.1054  0.5022 -0.5891
 9261TIP3    H149198   4.103   6.724   1.635  0.8277 -0.1898  1.2422
 9261TIP3    H249199   4.241   6.787   1.641  0.3143  1.0243  0.6203
 9262TIP3   OH249200   2.468   1.339   3.889  0.1595 -0.2756  0.5428
 9262TIP3    H149201   2.510   1.412   3.844  1.2327 -1.5954 -0.7080
 9262TIP3    H249202   2.383   1.329   3.845 -0.3263  0.6839  1.2423
 9263TIP3   OH249203   2.802   6.343  12.590  0.1812 -0.3644 -0.3085
 9263TIP3    H149204   2.732   6.292  12.630 -0.1546 -0.7744 -1.3716
 9263TIP3    H249205   2.757   6.399  12.526  0.8353 -0.9600 -1.3333
 9264TIP3   OH249206   5.045   4.856  14.699 -0.1833 -0.5883  0.0814
 9264TIP3    H149207   5.108   4.841  14.769 -1.0622 -0.4501  0.9126
 9264TIP3    H249208   5.093   4.833  14.619  0.4130 -2.0246  0.8168
 9265TIP3   OH249209   1.146   4.904  16.147  0.2146  0.0048  0.3532
 9265TIP3    H149210   1.066   4.933  16.190 -1.6828 -1.9847 -1.5968
 9265TIP3    H249211   1.211   4.970  16.172 -2.5582  3.1231  0.1106
 9266TIP3   OH249212   0.086   3.317  13.118 -0.0780 -0.4911 -0.4219
 9266TIP3    H149213   0.153   3.310  13.050  0.3313  1.9145 -0.3549
 9266TIP3    H249214   0.050   3.406  13.108 -1.7060 -0.9296  0.9671
 9267TIP3   OH249215   2.403   5.449   2.008  0.1846  0.1920 -0.1866
 9267TIP3    H149216   2.425   5.463   2.100  0.8020  0.0616 -0.3061
 9267TIP3    H249217   2.487   5.458   1.962  0.5347 -3.0031 -0.3818
 9268TIP3   OH249218   3.334   1.841  15.471  0.1615  0.1568  0.9104
 9268TIP3    H149219   3.386   1.778  15.421 -0.9400  0.7500 -1.1141
 9268TIP3    H249220   3.359   1.826  15.562  0.0370 -3.1183  0.5333
 9269TIP3   OH249221   5.841   4.991   6.616  0.6000 -0.5033 -0.2587
 9269TIP3    H149222   5.799   5.063   6.568 -0.5392 -1.3992 -0.6652
 9269TIP3    H249223   5.915   5.032   6.661  0.3527  0.7978 -0.9737
 9270TIP3   OH249224   4.795   0.224   4.327  0.1096 -0.1761 -1.0012
 9270TIP3    H149225   4.759   0.199   4.412  0.1940 -0.2761 -0.9940
 9270TIP3    H249226   4.890   0.209   4.336  0.1438  0.0110 -1.0441
 9271TIP3   OH249227   5.453   0.442  17.004  0.0216  0.2983  0.0075
 9271TIP3    H149228   5.366   0.416  17.035  0.0253 -0.9106 -0.8989
 9271TIP3    H249229   5.460   0.402  16.917  1.8804 -0.4927  0.4730
 9272TIP3   OH249230   2.763   1.713  11.274  0.0210 -0.1441 -0.2901
 9272TIP3    H149231   2.713   1.670  11.205  0.3742 -0.7363 -0.1822
 9272TIP3    H249232   2.774   1.647  11.342  1.4202 -0.2232 -0.5528
 9273TIP3   OH249233   1.357   1.490   2.650 -0.1267  0.4019 -0.0706
 9273TIP3    H149234   1.276   1.514   2.695 -1.1797 -0.5112 -1.3962
 9273TIP3    H249235   1.346   1.523   2.561  0.3786 -0.8547 -0.6287
 9274TIP3   OH249236   1.393   2.565  16.721  0.4253  0.5906 -0.1555
 9274TIP3    H149237   1.410   2.570  16.815  2.1229 -2.8799 -0.1292
 9274TIP3    H249238   1.302   2.592  16.711 -0.1799 -0.1204  2.6668
 9275TIP3   OH249239   3.802   4.409  15.729 -0.3851  0.2357  0.1174
 9275TIP3    H149240   3.835   4.431  15.642 -0.6754 -1.3076 -0.4257
 9275TIP3    H249241   3.837   4.321  15.746 -4.6438 -1.9097 -0.8266
 9276TIP3   OH249242   2.844   3.200   3.652  0.0153 -0.3155 -0.1262
 9276TIP3    H149243   2.771   3.149   3.618  0.8811 -1.4320 -0.3999
 9276TIP3    H249244   2.845   3.180   3.746  1.4155 -2.3004 -0.4947
 9277TIP3   OH249245   0.078   2.389   1.314  0.5550  0.0537 -0.6686
 9277TIP3    H149246   0.065   2.448   1.240  1.9648  0.0613 -0.9281
 9277TIP3    H249247   0.116   2.310   1.275 -0.0632 -0.5213 -0.1395
 9278TIP3   OH249248   3.685   3.962  15.668 -0.0723  0.3273 -0.0030
 9278TIP3    H149249   3.624   3.934  15.599 -0.4161 -0.0130  0.4325
 9278TIP3    H249250   3.628   3.993  15.738  0.2771  0.6630  0.1345
 9279TIP3   OH249251   2.323   0.897   3.870 -0.4491  0.0730 -0.1097
 9279TIP3    H149252   2.276   0.860   3.944  0.3729  0.2599  0.5139
 9279TIP3    H249253   2.406   0.929   3.906  0.3356 -0.5772 -1.2309
 9280TIP3   OH249254   2.076   3.832  16.793  0.3409  0.3675 -0.4819
 9280TIP3    H149255   2.125   3.819  16.712  1.0581  2.0108 -0.3623
 9280TIP3    H249256   2.118   3.908  16.834 -0.2416 -0.2056  1.2570
 9281TIP3   OH249257   4.088   0.730   0.660 -0.1429  0.3200 -0.5879
 9281TIP3    H149258   4.080   0.745   0.754 -0.8641  0.1819 -0.6197
 9281TIP3    H249259   4.163   0.783   0.633  1.6049 -1.4600  0.4701
 9282TIP3   OH249260   2.363   5.617  11.002 -0.4351  0.0346  0.4828
 9282TIP3    H149261   2.388   5.609  10.910  1.5843 -1.8984  1.1055
 9282TIP3    H249262   2.442   5.646  11.047 -1.0853 -0.0262  1.7342
 9283TIP3   OH249263   0.595   5.529   0.803 -0.6300 -0.1309  0.3629
 9283TIP3    H149264   0.592   5.484   0.887 -0.0901 -0.1448  0.3769
 9283TIP3    H249265   0.594   5.622   0.825  2.3055 -0.0510  0.5583
 9284TIP3   OH249266   2.278   4.546  16.314  0.1693  0.0314 -0.3361
 9284TIP3    H149267   2.283   4.641  16.322  0.0933 -0.0870  1.4471
 9284TIP3    H249268   2.368   4.515  16.326  0.4066 -0.0798 -2.1454
 9285TIP3   OH249269   4.046   2.479   2.283 -0.1240  0.2655 -0.4613
 9285TIP3    H149270   4.021   2.414   2.349 -1.7964  1.5289  0.2255
 9285TIP3    H249271   4.142   2.474   2.281 -0.1630 -1.7375  0.0210
 9286TIP3   OH249272   5.920   0.804   0.141  0.1945 -0.4068  0.2667
 9286TIP3    H149273   5.902   0.852   0.222  0.2088  1.6452 -0.8701
 9286TIP3    H249274   5.893   0.714   0.159 -0.0672  0.0678  2.4376
 9287TIP3   OH249275   5.811   4.144   5.444 -0.1790  0.0520  0.2030
 9287TIP3    H149276   5.779   4.234   5.436 -1.2930 -0.0102  2.7799
 9287TIP3    H249277   5.732   4.090   5.441 -0.0212 -0.4524  2.5130
 9288TIP3   OH249278   3.483   3.194   4.691 -0.0612 -0.0640 -0.6729
 9288TIP3    H149279   3.509   3.251   4.763 -2.6053  0.2857  0.0792
 9288TIP3    H249280   3.554   3.201   4.627  0.9307  1.8634  0.5571
 9289TIP3   OH249281   6.416   5.194   6.057 -0.2042  0.1445  0.2012
 9289TIP3    H149282   6.466   5.244   6.121  0.9251 -1.1259  0.3489
 9289TIP3    H249283   6.476   5.183   5.983 -1.2620  1.0229 -0.8137
 9290TIP3   OH249284   3.414   3.480   1.704  0.0932  0.0560  0.1399
 9290TIP3    H149285   3.501   3.514   1.683 -0.5989  0.5415 -2.2390
 9290TIP3    H249286   3.429   3.388   1.728  1.0950 -0.5974 -2.6096
 9291TIP3   OH249287   3.613   6.622  11.359  0.3446  0.1098  0.1394
 9291TIP3    H149288   3.534   6.596  11.312 -0.0319  1.7617 -0.2220
 9291TIP3    H249289   3.676   6.552  11.341 -1.7017 -2.5913  2.4886
 9292TIP3   OH249290   2.149   5.985   5.295  0.2092 -0.0696 -0.7261
 9292TIP3    H149291   2.208   6.017   5.227  2.1605  0.6347  1.1570
 9292TIP3    H249292   2.143   5.891   5.280  1.5543 -0.1011 -1.1955
 9293TIP3   OH249293   3.519   3.616   2.098  0.1374  0.0852 -0.5268
 9293TIP3    H149294   3.561   3.550   2.043  0.5508 -0.8427  0.8318
 9293TIP3    H249295   3.425   3.594   2.094 -0.2388  1.8295 -3.1304
 9294TIP3   OH249296   0.745   1.934   5.292  0.6238  0.0774 -0.5670
 9294TIP3    H149297   0.716   1.936   5.383 -0.8271 -0.8380 -0.9819
 9294TIP3    H249298   0.820   1.874   5.291  0.3072 -0.3238 -0.0727
 9295TIP3   OH249299   1.920   0.217   4.657 -0.8336  0.1279  0.0734
 9295TIP3    H149300   1.845   0.164   4.683 -1.4327  0.5245 -0.7639
 9295TIP3    H249301   1.885   0.307   4.653  0.3912  0.7800  2.4111
 9296TIP3   OH249302   3.282   4.031   1.266 -0.3414  0.1586 -0.3923
 9296TIP3    H149303   3.349   4.039   1.334 -2.0066 -0.7069  1.4191
 9296TIP3    H249304   3.270   4.121   1.234  0.6848  0.5269  0.1994
 9297TIP3   OH249305   6.572   0.043  11.227  0.0629 -0.1826 -0.3032
 9297TIP3    H149306   6.502   0.068  11.166 -0.6100 -0.0781  0.4752
 9297TIP3    H249307   6.542   0.079  11.311 -0.2512 -2.4118  0.5970
 9298TIP3   OH249308   0.885   2.739   0.783 -0.5499  0.1057 -0.3496
 9298TIP3    H149309   0.946   2.678   0.825  0.2045  0.2516 -1.2021
 9298TIP3    H249310   0.894   2.820   0.834 -0.8165 -0.1904  0.1724
 9299TIP3   OH249311   0.155   5.670   0.854  0.3813  0.1974 -0.0445
 9299TIP3    H149312   0.196   5.681   0.769 -3.3569  1.9333 -1.8755
 9299TIP3    H249313   0.194   5.738   0.909  1.5364  0.2859 -0.9470
 9300TIP3   OH249314   2.930   1.985  13.622 -0.6061  0.3008 -0.4055
 9300TIP3    H149315   2.871   2.015  13.691 -0.8099  1.2639 -0.9677
 9300TIP3    H249316   2.899   2.030  13.543 -1.0147 -1.5581 -1.3599
 9301TIP3   OH249317   3.091   5.679   0.755 -0.0325 -0.4267 -0.2281
 9301TIP3    H149318   3.094   5.761   0.706  0.8646  0.3011  0.9938
 9301TIP3    H249319   3.007   5.681   0.801  0.0473 -0.1162 -0.0932
 9302TIP3   OH249320   1.863   0.928  12.727 -0.3729  0.5259 -0.4699
 9302TIP3    H149321   1.932   0.926  12.660  0.4622 -1.7946  0.3724
 9302TIP3    H249322   1.826   1.016  12.720  0.4502  0.7554 -3.1775
 9303TIP3   OH249323   5.786   3.558   1.850 -0.2834 -0.4447  0.0135
 9303TIP3    H149324   5.712   3.617   1.834 -0.7047 -1.6791 -3.4785
 9303TIP3    H249325   5.749   3.486   1.900 -1.0122 -0.2001 -0.1624
 9304TIP3   OH249326   6.714   3.038  15.946  0.0056  0.0072  0.5000
 9304TIP3    H149327   6.684   3.128  15.958 -2.1343 -0.7575  1.3565
 9304TIP3    H249328   6.634   2.987  15.942  1.1315 -1.7273 -1.4406
 9305TIP3   OH249329   3.980   0.319  15.608 -0.1159 -0.3254  0.0121
 9305TIP3    H149330   3.921   0.330  15.683  1.0852 -1.5674  1.2112
 9305TIP3    H249331   4.017   0.231  15.620  1.5312  0.1865 -0.9836
 9306TIP3   OH249332   6.176   1.958  13.309 -0.6845 -0.3483 -0.2587
 9306TIP3    H149333   6.117   1.890  13.342 -0.1369 -1.4069 -1.3741
 9306TIP3    H249334   6.262   1.932  13.341 -0.5657  0.1915 -0.1419
 9307TIP3   OH249335   1.485   4.149   1.440 -0.0683  0.1704 -0.2986
 9307TIP3    H149336   1.569   4.152   1.395 -0.1537 -4.2142 -1.2645
 9307TIP3    H249337   1.502   4.099   1.520 -1.3014  1.5697  0.9039
 9308TIP3   OH249338   4.388   0.431  12.746 -0.5698 -0.2336  0.1537
 9308TIP3    H149339   4.431   0.389  12.670 -0.7061  0.1158 -0.1195
 9308TIP3    H249340   4.438   0.400  12.821  0.1633  0.1509 -0.1606
 9309TIP3   OH249341   5.762   5.039   3.832 -0.1148 -0.2453 -0.1146
 9309TIP3    H149342   5.730   5.077   3.750  2.1848 -0.9422 -1.4350
 9309TIP3    H249343   5.788   5.115   3.885 -0.9701  0.1896 -0.3001
 9310TIP3   OH249344   6.668   1.297   2.641 -0.3770 -0.7121  0.2287
 9310TIP3    H149345   6.587   1.249   2.626 -0.7436 -0.5365  1.4739
 9310TIP3    H249346   6.663   1.324   2.733 -0.2848  1.8548 -0.4260
 9311TIP3   OH249347   1.352   4.385  16.398  0.1105 -0.2212 -0.5936
 9311TIP3    H149348   1.435   4.378  16.350 -0.0001  2.0253 -1.1978
 9311TIP3    H249349   1.308   4.461  16.360 -1.9702 -0.9814  0.1506
 9312TIP3   OH249350   0.885   6.420  12.243  0.0314  0.6896 -0.2178
 9312TIP3    H149351   0.926   6.412  12.157 -0.6492  0.3442 -0.5157
 9312TIP3    H249352   0.810   6.360  12.240  1.8407 -1.8917  1.7518
 9313TIP3   OH249353   1.726   1.021  14.608  0.8770  0.7538  0.3975
 9313TIP3    H149354   1.731   1.114  14.628  1.8258  0.8801 -0.3497
 9313TIP3    H249355   1.788   0.980  14.669 -0.0749  0.5023  1.2301
 9314TIP3   OH249356   4.376   0.350  14.221 -0.2490 -0.5713  0.3633
 9314TIP3    H149357   4.315   0.296  14.171  0.7634 -0.7212 -0.7485
 9314TIP3    H249358   4.458   0.344  14.173 -0.2355  2.4520 -0.1520
 9315TIP3   OH249359   1.348   1.557  14.039  0.0330  0.2529  0.2198
 9315TIP3    H149360   1.326   1.509  13.959  1.5839  1.1452 -0.8122
 9315TIP3    H249361   1.270   1.552  14.093 -0.7705 -1.0938 -1.0013
 9316TIP3   OH249362   5.850   4.223  13.053 -0.0198 -0.0775 -0.7824
 9316TIP3    H149363   5.882   4.141  13.092  1.6087  0.3978 -1.0596
 9316TIP3    H249364   5.924   4.256  13.002 -0.3903  1.9589 -0.0763
 9317TIP3   OH249365   2.002   1.780   5.908  0.0197 -0.2665 -0.0264
 9317TIP3    H149366   1.938   1.710   5.921  0.4862 -0.6034  0.5678
 9317TIP3    H249367   2.006   1.824   5.993  0.0733  0.1768 -0.2609
 9318TIP3   OH249368   4.024   1.228   0.704 -0.2665  0.5382 -0.0076
 9318TIP3    H149369   4.040   1.134   0.696  0.3820  0.7991 -2.4539
 9318TIP3    H249370   4.105   1.263   0.741 -0.3821  0.1971  0.5868
 9319TIP3   OH249371   5.622   0.014   2.162 -0.6353 -0.5171  0.1756
 9319TIP3    H149372   5.582   0.099   2.183  0.3091 -0.1677  0.6166
 9319TIP3    H249373   5.668   0.029   2.080 -1.1981 -0.8531 -0.2071
 9320TIP3   OH249374   1.436   3.245  13.493 -0.3743  0.3600 -0.3007
 9320TIP3    H149375   1.380   3.167  13.491  0.7422 -0.4551 -1.6873
 9320TIP3    H249376   1.488   3.234  13.573  1.7785 -1.8772 -1.8618
 9321TIP3   OH249377   4.583   4.404   3.560  0.4528  0.2301  0.8670
 9321TIP3    H149378   4.525   4.440   3.493  0.0584 -1.8127  0.0515
 9321TIP3    H249379   4.525   4.381   3.633  0.2443 -1.3326  0.2532
 9322TIP3   OH249380   2.384   2.300   3.794 -0.5197 -0.1821 -0.0677
 9322TIP3    H149381   2.431   2.244   3.732 -0.8971 -0.2303 -0.3218
 9322TIP3    H249382   2.440   2.304   3.871  0.5773  0.9335 -0.8869
 9323TIP3   OH249383   3.395   0.734  12.263  0.4440  0.1048 -0.0698
 9323TIP3    H149384   3.311   0.692  12.277  0.5254 -0.2309 -0.5768
 9323TIP3    H249385   3.395   0.808  12.324 -0.1556  0.0237  0.0352
 9324TIP3   OH249386   3.618   6.365  14.960 -0.3179  0.4015 -0.1802
 9324TIP3    H149387   3.651   6.455  14.962 -0.0857  0.4395 -2.7171
 9324TIP3    H249388   3.578   6.356  14.874  0.2623 -2.1377 -0.2664
 9325TIP3   OH249389   1.517   1.643  10.466  0.0912  0.3364  0.0195
 9325TIP3    H149390   1.434   1.602  10.491  0.0599  0.9731  1.0334
 9325TIP3    H249391   1.517   1.643  10.371 -0.0260 -1.7561 -0.0306
 9326TIP3   OH249392   4.247   4.666   3.032 -0.2668  0.1349  0.2045
 9326TIP3    H149393   4.218   4.710   3.112 -0.7166  0.4181 -0.1131
 9326TIP3    H249394   4.277   4.580   3.062  1.6515  1.0217  0.9741
 9327TIP3   OH249395   3.275   2.377  12.556 -0.2678 -0.0920  0.2334
 9327TIP3    H149396   3.363   2.356  12.588  0.1346  0.3240 -0.5756
 9327TIP3    H249397   3.279   2.469  12.532 -1.3548  0.3272  1.5437
 9328TIP3   OH249398   3.756   0.210  13.258  0.0523 -0.2544 -1.1854
 9328TIP3    H149399   3.739   0.124  13.218 -0.8124  0.1955 -1.8209
 9328TIP3    H249400   3.788   0.189  13.346  1.4195 -1.2608 -1.8798
 9329TIP3   OH249401   3.157   1.284  13.606 -0.2150 -0.7572  0.1948
 9329TIP3    H149402   3.190   1.331  13.683 -1.9084  1.7309 -0.4557
 9329TIP3    H249403   3.201   1.325  13.532 -0.4914 -1.3592 -0.3178
 9330TIP3   OH249404   4.222   1.776   1.697 -0.0891 -0.2851 -0.4962
 9330TIP3    H149405   4.162   1.843   1.729 -0.2535 -0.0099 -1.3477
 9330TIP3    H249406   4.255   1.733   1.776  1.4158  1.9730  0.2033
 9331TIP3   OH249407   3.239   1.216   0.566 -0.0051 -0.1643  0.3266
 9331TIP3    H149408   3.309   1.257   0.516 -0.9093  0.0325 -0.8210
 9331TIP3    H249409   3.281   1.140   0.607  0.8655 -0.0761 -0.3687
 9332TIP3   OH249410   6.240   2.361   3.008  0.1953  0.0149 -0.1787
 9332TIP3    H149411   6.266   2.375   3.099 -1.3621  3.2826 -0.0944
 9332TIP3    H249412   6.190   2.279   3.009 -0.8792  0.6384  2.1717
 9333TIP3   OH249413   3.971   6.349  14.448 -0.1748  0.3738  0.4146
 9333TIP3    H149414   4.048   6.359  14.392 -0.9724  2.5029 -0.3736
 9333TIP3    H249415   3.993   6.396  14.529 -0.1651 -0.1377  0.7161
 9334TIP3   OH249416   2.474   5.676   0.808  0.1125  0.5158 -0.5345
 9334TIP3    H149417   2.415   5.643   0.740  0.0329  1.0782 -0.7474
 9334TIP3    H249418   2.557   5.690   0.762  0.7617 -1.3108 -0.0067
 9335TIP3   OH249419   5.356   5.676  14.717 -0.0428  1.0282 -0.6090
 9335TIP3    H149420   5.347   5.581  14.708  0.1041  0.8844  0.5830
 9335TIP3    H249421   5.270   5.711  14.693 -0.8541  0.4020  1.2150
 9336TIP3   OH249422   2.933   1.365  15.176  0.3327 -0.3326  0.7258
 9336TIP3    H149423   2.891   1.307  15.240 -1.0271  0.4828  0.6252
 9336TIP3    H249424   2.962   1.440  15.227  2.9470 -1.4457  1.0132
 9337TIP3   OH249425   1.721   3.472  14.116  0.7641  0.8038  0.0225
 9337TIP3    H149426   1.632   3.505  14.104  0.9729  1.1000 -0.7457
 9337TIP3    H249427   1.721   3.435  14.205 -0.3824 -0.0346 -0.3087
 9338TIP3   OH249428   3.660   5.147  11.326 -0.5448  0.1483 -0.0290
 9338TIP3    H149429   3.736   5.090  11.338 -0.1416  0.5877 -0.4508
 9338TIP3    H249430   3.653   5.195  11.408  0.7003  1.3553 -0.5873
 9339TIP3   OH249431   6.616   0.233  15.258 -0.7817 -0.3095 -0.1335
 9339TIP3    H149432   6.566   0.312  15.233  0.2252 -0.1549 -1.8240
 9339TIP3    H249433   6.665   0.259  15.336  0.4888  1.1969 -1.3602
 9340TIP3   OH249434   5.768   5.319   1.482 -0.0172  0.5373 -0.6444
 9340TIP3    H149435   5.857   5.338   1.452 -0.7733  0.9077 -2.8006
 9340TIP3    H249436   5.722   5.403   1.475 -0.3898  0.5071  1.1002
 9341TIP3   OH249437   3.477   0.156  16.479  0.2257 -0.1683  0.7729
 9341TIP3    H149438   3.422   0.113  16.545 -1.6357  1.1995  0.1749
 9341TIP3    H249439   3.505   0.084  16.422 -1.2204 -0.8651  0.8945
 9342TIP3   OH249440   3.357   4.687   6.022 -0.0977 -0.0647 -0.0642
 9342TIP3    H149441   3.421   4.727   6.081 -0.8827  2.9503 -1.0246
 9342TIP3    H249442   3.394   4.603   5.998  2.1624  0.3902  1.5305
 9343TIP3   OH249443   0.961   4.013  16.797 -0.0082  0.3366  0.2049
 9343TIP3    H149444   0.963   4.104  16.826 -0.2432 -0.0711  1.5660
 9343TIP3    H249445   0.921   3.966  16.870 -1.2306 -0.6590 -1.0498
 9344TIP3   OH249446   2.651   6.228  11.449 -0.8629  0.3320 -0.0408
 9344TIP3    H149447   2.692   6.157  11.399  0.0805  0.5214  0.4513
 9344TIP3    H249448   2.694   6.227  11.534 -1.0861  1.2631  0.1022
 9345TIP3   OH249449   3.111   4.881  14.126  0.1676  0.1209 -0.0778
 9345TIP3    H149450   3.068   4.827  14.059 -0.1083  0.4494 -0.1679
 9345TIP3    H249451   3.164   4.819  14.175 -0.8272 -0.3935  0.3825
 9346TIP3   OH249452   6.473   3.018   0.310  0.4018 -0.1426 -0.0027
 9346TIP3    H149453   6.468   3.036   0.216 -1.1587 -2.4704 -0.4569
 9346TIP3    H249454   6.565   2.994   0.325  0.7496  0.6122 -0.8300
 9347TIP3   OH249455   0.585   3.746   0.307  0.3651 -0.5734 -0.0451
 9347TIP3    H149456   0.500   3.772   0.341  1.8616  1.2371  2.6387
 9347TIP3    H249457   0.607   3.666   0.355  0.3975 -0.7889 -0.4107
 9348TIP3   OH249458   5.265   3.962  13.106 -0.3642 -0.6045 -0.2818
 9348TIP3    H149459   5.313   4.017  13.045 -1.5478  0.7414 -0.0394
 9348TIP3    H249460   5.331   3.899  13.138  1.2283  1.1091 -0.0004
 9349TIP3   OH249461   2.244   6.668   3.535 -0.6609  0.4518 -0.8303
 9349TIP3    H149462   2.153   6.677   3.564 -0.7355  0.9384 -1.2044
 9349TIP3    H249463   2.251   6.577   3.507 -0.6775  0.0473  0.3866
 9350TIP3   OH249464   5.947   3.764  10.352  0.6132  0.7705  0.0680
 9350TIP3    H149465   5.915   3.703  10.285  0.4821 -0.1163  0.9173
 9350TIP3    H249466   5.870   3.784  10.404  0.4207  2.5331 -0.8339
 9351TIP3   OH249467   0.668   5.863  15.915 -0.2581  0.2654 -0.1881
 9351TIP3    H149468   0.604   5.932  15.933 -1.0714 -0.9175  1.6942
 9351TIP3    H249469   0.626   5.809  15.847 -0.9693 -0.0820  0.5071
 9352TIP3   OH249470   0.115   5.524  16.909  0.0139  0.4379 -0.0277
 9352TIP3    H149471   0.072   5.508  16.825 -0.5545  1.2093  0.1020
 9352TIP3    H249472   0.183   5.458  16.915 -1.7931 -1.4945  0.2016
 9353TIP3   OH249473   4.971   3.742   3.582 -0.6033  0.3097  0.2364
 9353TIP3    H149474   5.010   3.815   3.535  0.4883 -0.6281 -0.3786
 9353TIP3    H249475   4.898   3.780   3.630 -1.6408  1.3825 -2.0388
 9354TIP3   OH249476   1.313   3.043   2.894  0.0091  0.3627  0.2679
 9354TIP3    H149477   1.240   3.101   2.871  0.1812  0.7822  0.7478
 9354TIP3    H249478   1.289   2.958   2.857 -0.0045  0.8618 -0.8983
 9355TIP3   OH249479   4.296   2.505  12.157 -0.2028  0.1495 -0.4891
 9355TIP3    H149480   4.383   2.467  12.152 -0.1670  0.3069 -1.1800
 9355TIP3    H249481   4.245   2.459  12.090  0.3351  2.5197 -2.6902
 9356TIP3   OH249482   6.685   1.520  15.480 -0.4531  0.5544  0.5023
 9356TIP3    H149483   6.691   1.615  15.488  0.8919  0.5683 -0.2747
 9356TIP3    H249484   6.720   1.486  15.562  0.2815  0.7334  0.2688
 9357TIP3   OH249485   5.543   0.497  11.611 -0.8171  0.1331 -1.1161
 9357TIP3    H149486   5.597   0.543  11.546  0.1435 -0.0246 -0.4582
 9357TIP3    H249487   5.531   0.561  11.681 -2.2218  0.4530 -1.6082
 9358TIP3   OH249488   3.605   4.166  15.400  0.7463  0.3967  0.6423
 9358TIP3    H149489   3.650   4.135  15.322  1.1383 -0.3733  1.1654
 9358TIP3    H249490   3.589   4.259  15.383 -0.8361 -0.1261 -1.1274
 9359TIP3   OH249491   5.012   6.232   4.432 -0.7053  0.6659  0.3174
 9359TIP3    H149492   5.090   6.273   4.470 -0.3793 -1.1592  1.7521
 9359TIP3    H249493   5.035   6.216   4.341  0.4442  0.5108  0.6192
 9360TIP3   OH249494   5.288   4.049   5.634 -0.3187 -0.1301  0.0938
 9360TIP3    H149495   5.310   4.108   5.706 -0.9758 -0.4277  0.5529
 9360TIP3    H249496   5.196   4.026   5.649 -0.1436 -1.0871 -0.1921
 9361TIP3   OH249497   3.775   1.054   0.012 -0.1408 -0.3610  0.4559
 9361TIP3    H149498   3.846   1.008  -0.034  0.6584 -0.8083  2.0780
 9361TIP3    H249499   3.790   1.146  -0.007 -0.0165 -0.5561 -0.4341
 9362TIP3   OH249500   6.123   0.260   0.001  0.6270 -0.0740  0.4575
 9362TIP3    H149501   6.147   0.288  -0.088  0.6771 -0.8488  0.2230
 9362TIP3    H249502   6.032   0.232  -0.007 -0.2445  2.2689  1.2097
 9363TIP3   OH249503   2.619   3.555   3.293 -0.0827  0.2398  0.4070
 9363TIP3    H149504   2.586   3.482   3.240 -0.4166  2.0191 -2.0043
 9363TIP3    H249505   2.562   3.556   3.370 -1.2535 -0.9043 -0.4008
 9364TIP3   OH249506   4.800   5.053   1.318  0.9477  0.0843  0.4931
 9364TIP3    H149507   4.711   5.018   1.315  0.7802  0.4886 -2.4739
 9364TIP3    H249508   4.789   5.146   1.339  0.9329 -0.3095  2.4569
 9365TIP3   OH249509   3.803   4.471  11.933 -0.1478 -0.0477  0.0208
 9365TIP3    H149510   3.771   4.559  11.952  0.0182 -0.2603  1.4308
 9365TIP3    H249511   3.841   4.478  11.846 -0.8001  1.0908 -0.1979
 9366TIP3   OH249512   2.921   2.053  14.903  0.5345 -0.1417 -0.0257
 9366TIP3    H149513   2.888   2.142  14.890  1.6771  0.1761 -0.9842
 9366TIP3    H249514   2.848   1.996  14.879 -0.1173  0.5378  0.3178
 9367TIP3   OH249515   4.101   3.353   2.938  0.2558  0.2055 -0.2078
 9367TIP3    H149516   4.174   3.412   2.923  0.4331  0.1747  0.5103
 9367TIP3    H249517   4.038   3.405   2.987  0.3886 -0.1825  0.3801
 9368TIP3   OH249518   1.856   5.903  16.573 -0.1021 -0.0495  0.0662
 9368TIP3    H149519   1.858   5.959  16.651 -0.3157 -2.2983  1.7960
 9368TIP3    H249520   1.893   5.820  16.603 -2.8611 -1.9586 -1.3786
 9369TIP3   OH249521   6.406   2.479  15.004 -0.1205  0.7018 -0.0930
 9369TIP3    H149522   6.340   2.516  14.945 -0.9027  0.7045  0.7659
 9369TIP3    H249523   6.451   2.413  14.950  0.3292  1.8793 -1.2011
 9370TIP3   OH249524   6.468   4.038  14.371  0.2066 -0.0505 -0.5877
 9370TIP3    H149525   6.375   4.035  14.393  0.3945 -1.0190  0.1119
 9370TIP3    H249526   6.483   3.962  14.315  0.7269 -0.3304 -0.0756
 9371TIP3   OH249527   4.680   3.072  12.098  0.2687  0.0825 -0.2755
 9371TIP3    H149528   4.760   3.090  12.047  0.3846 -0.8281 -0.4215
 9371TIP3    H249529   4.671   2.977  12.096  1.2148 -0.1958  2.8049
 9372TIP3   OH249530   1.998   1.733  12.700 -0.2533  0.2019 -0.5007
 9372TIP3    H149531   1.933   1.762  12.635  1.1841  1.4618 -1.4389
 9372TIP3    H249532   2.072   1.792  12.687  0.7879 -0.7145  1.0712
 9373TIP3   OH249533   1.141   0.952   5.246  0.1646  0.7764 -0.3195
 9373TIP3    H149534   1.094   0.869   5.252 -1.0618  1.5015  0.7028
 9373TIP3    H249535   1.142   0.986   5.336  0.5019  1.9324 -0.7365
 9374TIP3   OH249536   4.226   1.921   3.841 -0.1679 -0.1399 -0.2309
 9374TIP3    H149537   4.239   2.000   3.894 -1.4890 -0.6533  0.9393
 9374TIP3    H249538   4.141   1.934   3.799  0.5815 -0.0195 -1.7795
 9375TIP3   OH249539   4.998   6.471   5.634  0.2555  0.4428  0.3597
 9375TIP3    H149540   5.094   6.473   5.631  0.2957  0.6780  1.3470
 9375TIP3    H249541   4.972   6.448   5.545  1.2793 -1.4505  0.4821
 9376TIP3   OH249542   6.474   1.175   0.281  0.2890  0.2120  0.3792
 9376TIP3    H149543   6.538   1.141   0.343  0.2321 -1.2367 -0.3117
 9376TIP3    H249544   6.481   1.117   0.205 -0.3796  1.3024 -0.5533
 9377TIP3   OH249545   4.168   5.487  16.088 -0.4896  0.1285  0.0464
 9377TIP3    H149546   4.159   5.427  16.162 -0.9903 -1.0919 -0.9741
 9377TIP3    H249547   4.260   5.478  16.062 -0.2749  0.6679  0.5900
 9378TIP3   OH249548   5.277   3.493  15.759 -0.0537 -0.4869 -0.2053
 9378TIP3    H149549   5.213   3.436  15.716 -0.3611 -0.1121 -0.2524
 9378TIP3    H249550   5.275   3.574  15.707 -0.1083 -0.1918  0.2514
 9379TIP3   OH249551   0.866   1.011   1.606 -0.5385  0.0130 -0.4076
 9379TIP3    H149552   0.863   0.997   1.701  0.2247 -0.1777 -0.4064
 9379TIP3    H249553   0.920   1.090   1.595 -0.1452 -0.2967 -0.7113
 9380TIP3   OH249554   4.338   6.207   5.086  0.6588 -0.2697 -0.3049
 9380TIP3    H149555   4.412   6.171   5.037  1.9408 -0.1504  1.4174
 9380TIP3    H249556   4.301   6.132   5.133 -0.1450 -0.2732 -0.9227
 9381TIP3   OH249557   3.459   1.106  11.863  0.5981 -0.0736 -0.4960
 9381TIP3    H149558   3.463   1.065  11.949  1.0532 -0.0402 -0.4994
 9381TIP3    H249559   3.550   1.118  11.837  0.4704 -0.3676 -1.1163
 9382TIP3   OH249560   0.612   2.311  13.296  0.0671  0.0033  0.0771
 9382TIP3    H149561   0.535   2.368  13.297  1.1663  1.5347 -0.2995
 9382TIP3    H249562   0.624   2.286  13.387 -0.1931  0.7189  0.3157
 9383TIP3   OH249563   5.199   0.830  15.872 -0.3785  0.3384  0.1951
 9383TIP3    H149564   5.273   0.770  15.865 -1.1343 -0.7017  0.8318
 9383TIP3    H249565   5.239   0.917  15.874  1.0270 -0.2448  2.6845
 9384TIP3   OH249566   4.862   1.066  13.107 -0.2092 -0.0263 -0.3316
 9384TIP3    H149567   4.834   0.992  13.161  1.9579 -1.2687 -0.7996
 9384TIP3    H249568   4.873   1.029  13.020  0.3372  0.9770 -0.7023
 9385TIP3   OH249569   3.338   5.475   3.749  0.0943 -0.6628  0.0018
 9385TIP3    H149570   3.307   5.400   3.698 -0.2932 -2.0450  2.1475
 9385TIP3    H249571   3.261   5.503   3.799  0.1773  1.3445 -0.9126
 9386TIP3   OH249572   4.122   1.524  14.696 -0.1421  0.5358 -1.0143
 9386TIP3    H149573   4.108   1.616  14.671 -1.2385  0.5181 -0.5024
 9386TIP3    H249574   4.061   1.509  14.768  2.6969  0.5130  1.6044
 9387TIP3   OH249575   5.939   5.735   3.729 -0.0588 -0.3977 -0.3382
 9387TIP3    H149576   5.899   5.797   3.667 -0.9976 -1.6919 -1.0917
 9387TIP3    H249577   6.005   5.690   3.677 -1.0046 -1.6473 -0.5022
 9388TIP3   OH249578   4.096   1.692  14.152 -0.1432  0.2854 -0.3516
 9388TIP3    H149579   4.134   1.628  14.092 -0.1947  0.7338 -0.8623
 9388TIP3    H249580   4.164   1.706  14.218 -0.9852 -2.0753  1.1576
 9389TIP3   OH249581   1.986   1.701   0.008 -0.7066  0.2444 -0.1455
 9389TIP3    H149582   1.916   1.715  -0.055 -0.2294  1.1732 -0.4791
 9389TIP3    H249583   1.997   1.606   0.011 -0.3936  0.1989 -1.8484
 9390TIP3   OH249584   3.528   5.619   1.144 -0.1058 -0.5986 -0.2077
 9390TIP3    H149585   3.593   5.660   1.086  0.5536  0.0899  0.9830
 9390TIP3    H249586   3.444   5.656   1.116  0.3504  0.7179  0.0986
 9391TIP3   OH249587   5.845   2.987  11.374 -0.4946 -0.1800  0.4405
 9391TIP3    H149588   5.877   3.072  11.404 -0.5048 -0.4747  1.3149
 9391TIP3    H249589   5.760   2.976  11.417 -1.7019  0.4657 -1.6366
 9392TIP3   OH249590   3.977   3.011   6.502  0.1486  0.0948 -0.4190
 9392TIP3    H149591   3.938   3.094   6.473 -2.2135 -0.3264  1.2320
 9392TIP3    H249592   4.047   3.037   6.561  0.5305  0.8820 -1.1815
 9393TIP3   OH249593   3.647   2.538   4.270 -0.6478  0.2095  0.3430
 9393TIP3    H149594   3.643   2.491   4.186 -0.5376  1.2977 -0.2936
 9393TIP3    H249595   3.560   2.575   4.280 -0.4893  0.5654  0.4147
 9394TIP3   OH249596   3.121   1.692   5.502  0.2424  0.3836 -0.0163
 9394TIP3    H149597   3.196   1.727   5.453  2.5698 -2.2235  1.3788
 9394TIP3    H249598   3.088   1.767   5.551  0.7802  2.0051 -1.9559
 9395TIP3   OH249599   1.508   0.459   2.120 -0.8250  0.5384 -0.3802
 9395TIP3    H149600   1.487   0.438   2.029 -0.6701 -1.4196 -0.0056
 9395TIP3    H249601   1.466   0.390   2.171  0.9850  0.2794  0.8500
 9396TIP3   OH249602   3.369   3.482  12.495 -0.1488 -0.0142  0.3917
 9396TIP3    H149603   3.424   3.417  12.452 -1.4253 -0.7097 -0.2390
 9396TIP3    H249604   3.296   3.432  12.532 -1.5472  1.0998 -0.7356
 9397TIP3   OH249605   3.214   5.176  13.991 -0.6161  0.0037 -0.6848
 9397TIP3    H149606   3.131   5.195  14.036 -0.2916 -0.2891  0.0519
 9397TIP3    H249607   3.201   5.089  13.953  0.1514 -1.1189  1.4503
 9398TIP3   OH249608   5.674   4.890   1.386 -0.0597 -0.3294  0.0542
 9398TIP3    H149609   5.582   4.887   1.413 -0.1800 -0.9943 -0.3850
 9398TIP3    H249610   5.689   4.804   1.345  0.8349 -0.3312  0.3750
 9399TIP3   OH249611   4.224   0.149   5.183  0.3270  0.1309 -0.6361
 9399TIP3    H149612   4.147   0.146   5.240  0.6391  1.1796 -0.1430
 9399TIP3    H249613   4.214   0.073   5.126  0.3693 -1.3883  1.2696
 9400TIP3   OH249614   1.993   3.182  14.333 -0.1409 -0.0826  0.4397
 9400TIP3    H149615   1.979   3.273  14.307  0.7331  0.0521  0.3989
 9400TIP3    H249616   2.031   3.187  14.420  0.7906 -0.3550  0.0677
 9401TIP3   OH249617   6.305   0.335   6.406 -0.5816 -0.0284  0.5640
 9401TIP3    H149618   6.245   0.264   6.380  0.0253 -1.5095  2.9343
 9401TIP3    H249619   6.374   0.291   6.456 -0.1038  2.2295  2.0107
 9402TIP3   OH249620   4.592   2.092  15.495 -0.2349  0.1825 -0.2811
 9402TIP3    H149621   4.653   2.022  15.516  0.6689  1.3975  1.4523
 9402TIP3    H249622   4.546   2.109  15.578 -0.8303  1.2409 -0.8050
 9403TIP3   OH249623   6.273   1.555  13.674  0.0135 -0.5183 -0.3333
 9403TIP3    H149624   6.197   1.524  13.625  0.0712 -1.2819  0.0395
 9403TIP3    H249625   6.347   1.509  13.635  0.0789 -1.0095  0.3503
 9404TIP3   OH249626   5.840   4.439  14.774 -0.2157  0.1186  0.3339
 9404TIP3    H149627   5.852   4.511  14.712  2.2543  0.3779  1.0048
 9404TIP3    H249628   5.837   4.360  14.720 -0.3145  0.5137 -0.2466
 9405TIP3   OH249629   3.443   5.558  11.119 -0.1325 -0.7552  0.2814
 9405TIP3    H149630   3.484   5.561  11.205  1.1249 -1.2179 -0.2805
 9405TIP3    H249631   3.467   5.472  11.083 -0.1595 -0.3479 -0.7596
 9406TIP3   OH249632   0.252   1.777  13.181 -0.0427 -0.0815  0.6671
 9406TIP3    H149633   0.170   1.813  13.217 -0.0978  0.3006  0.1750
 9406TIP3    H249634   0.240   1.682  13.184 -0.5040 -0.0293  0.6095
 9407TIP3   OH249635   2.635   1.853   1.935  0.1133 -0.0767  0.1495
 9407TIP3    H149636   2.617   1.817   1.847  1.4851 -1.0236  0.2240
 9407TIP3    H249637   2.562   1.912   1.952 -1.9831 -2.3904 -0.2560
 9408TIP3   OH249638   1.355   3.490   1.414 -0.2402  0.1710  0.2036
 9408TIP3    H149639   1.340   3.576   1.453  0.8457  0.0239  0.9753
 9408TIP3    H249640   1.422   3.506   1.347  0.1216 -0.1085  0.4978
 9409TIP3   OH249641   3.513   1.587   2.676 -0.1960  0.4283  0.4617
 9409TIP3    H149642   3.512   1.492   2.680 -1.1589  0.2987 -1.5308
 9409TIP3    H249643   3.434   1.610   2.626  0.4171  2.2211  0.2358
 9410TIP3   OH249644   2.638   1.163   3.325 -0.4662  0.7075  0.1918
 9410TIP3    H149645   2.670   1.195   3.409 -0.9518  1.3949  0.1231
 9410TIP3    H249646   2.549   1.133   3.342 -0.8197  1.5052 -0.2176
 9411TIP3   OH249647   6.671   5.242  10.613 -0.0204 -0.3142  0.2992
 9411TIP3    H149648   6.695   5.162  10.567 -1.6047 -0.5359 -0.2171
 9411TIP3    H249649   6.743   5.303  10.596  1.4856 -1.7693  1.1675
 9412TIP3   OH249650   5.538   5.110   2.510  0.9378  0.2918 -0.3163
 9412TIP3    H149651   5.623   5.076   2.481  0.9017  0.7073 -0.9359
 9412TIP3    H249652   5.559   5.194   2.551  0.9329 -0.0758  0.4578
 9413TIP3   OH249653   4.023   4.767  10.938  0.5125 -0.2848  0.1749
 9413TIP3    H149654   3.957   4.700  10.957 -1.4568  1.2808 -0.7194
 9413TIP3    H249655   3.988   4.815  10.863  1.4280  2.2114  1.2179
 9414TIP3   OH249656   2.230   5.008   3.975 -0.1621  0.2837  0.2943
 9414TIP3    H149657   2.286   4.984   3.901  0.4553 -1.0976  1.1692
 9414TIP3    H249658   2.263   4.956   4.048 -1.4796  0.7627  1.2691
 9415TIP3   OH249659   0.822   4.755   1.957  0.5502 -0.1366 -0.1034
 9415TIP3    H149660   0.802   4.770   1.864 -1.3527  0.5413  0.3778
 9415TIP3    H249661   0.795   4.665   1.973  0.1256  0.0066 -0.0167
 9416TIP3   OH249662   6.512   1.204  12.698 -0.4215  0.2616 -0.1056
 9416TIP3    H149663   6.533   1.199  12.605  1.6422  1.1651  0.2554
 9416TIP3    H249664   6.448   1.275  12.704 -1.2798 -0.4115 -0.9032
 9417TIP3   OH249665   4.269   1.195  16.776 -0.1457  0.1998 -0.2114
 9417TIP3    H149666   4.274   1.099  16.771  0.9044  0.2616 -0.7568
 9417TIP3    H249667   4.234   1.213  16.863  0.4004 -0.6799  0.2045
 9418TIP3   OH249668   1.253   5.885   0.244 -0.5092 -0.0452  0.2039
 9418TIP3    H149669   1.203   5.816   0.202 -2.4986  0.6329  1.3207
 9418TIP3    H249670   1.189   5.955   0.261  1.1452  1.5483  0.2769
 9419TIP3   OH249671   1.354   4.418  11.331 -0.0820  0.5518  0.6762
 9419TIP3    H149672   1.297   4.351  11.368  1.5351 -0.8076  0.7808
 9419TIP3    H249673   1.317   4.501  11.362 -1.4335 -0.3215  1.4920
 9420TIP3   OH249674   1.750   2.662  12.320  0.2937 -0.2035 -0.1300
 9420TIP3    H149675   1.740   2.755  12.339  0.5745 -0.5295  1.8251
 9420TIP3    H249676   1.661   2.627  12.320  0.0449  0.2706 -2.3648
 9421TIP3   OH249677   5.173   4.540   6.451  0.1137  0.6326  0.5503
 9421TIP3    H149678   5.131   4.455   6.465  0.5269  0.4173  0.5232
 9421TIP3    H249679   5.141   4.569   6.366  1.6138 -0.5150 -0.4708
 9422TIP3   OH249680   0.084   2.512  10.096 -0.1840  0.4547 -0.1617
 9422TIP3    H149681   0.079   2.439  10.034 -3.1716  1.2898 -1.1004
 9422TIP3    H249682   0.085   2.591  10.042  1.3079  1.1710  0.8484
 9423TIP3   OH249683   0.894   5.932  13.148  0.2629 -0.1711 -0.2724
 9423TIP3    H149684   0.960   5.983  13.193 -1.5782  2.2792 -0.1345
 9423TIP3    H249685   0.918   5.936  13.056 -1.0391  3.1131 -0.5953
 9424TIP3   OH249686   1.438   3.648  11.084  0.4519 -0.2394  0.0915
 9424TIP3    H149687   1.530   3.665  11.065  1.1837 -0.7166  2.7287
 9424TIP3    H249688   1.440   3.594  11.163 -2.0518 -3.4252 -1.8311
 9425TIP3   OH249689   5.248   6.584  14.198 -0.4950  0.6750  0.2579
 9425TIP3    H149690   5.179   6.646  14.220 -2.5885 -1.9153  1.6306
 9425TIP3    H249691   5.297   6.573  14.280 -0.8620 -0.2570  0.3701
 9426TIP3   OH249692   0.661   1.780   6.379  0.2584 -0.4198 -0.2063
 9426TIP3    H149693   0.610   1.705   6.409 -0.8432 -0.2044 -1.4386
 9426TIP3    H249694   0.597   1.851   6.370  0.8248 -0.0257 -1.4105
 9427TIP3   OH249695   2.815   2.209  15.862  0.1958  0.5134  0.8968
 9427TIP3    H149696   2.729   2.180  15.831 -0.0923 -0.5988  2.5882
 9427TIP3    H249697   2.859   2.241  15.784 -1.0730 -0.6106 -0.3360
 9428TIP3   OH249698   0.708   3.986   5.362 -0.8767  0.4085  0.6786
 9428TIP3    H149699   0.759   3.912   5.396 -1.9810 -0.3666  0.7029
 9428TIP3    H249700   0.739   4.062   5.412  0.0991 -0.0723  0.8266
 9429TIP3   OH249701   1.088   2.506  16.039  0.5571  0.7047 -0.6119
 9429TIP3    H149702   1.042   2.453  15.974  1.6117 -0.1198 -0.7139
 9429TIP3    H249703   1.067   2.596  16.015 -1.7766  0.3849 -0.0744
 9430TIP3   OH249704   1.731   2.920   0.707 -0.0744  0.4198 -0.6832
 9430TIP3    H149705   1.651   2.965   0.681 -0.6320 -0.3416 -0.3005
 9430TIP3    H249706   1.732   2.840   0.654 -0.0153  0.0070 -0.0669
 9431TIP3   OH249707   2.336   1.109  13.132  0.2450  0.2116 -0.1059
 9431TIP3    H149708   2.392   1.180  13.164  0.2057  0.7930 -1.2502
 9431TIP3    H249709   2.340   1.042  13.200 -1.2536  2.0866  1.9751
 9432TIP3   OH249710   2.724   4.680  11.412 -0.1208 -0.3017  0.2747
 9432TIP3    H149711   2.711   4.773  11.431 -1.8914 -0.2040 -1.1196
 9432TIP3    H249712   2.800   4.678  11.354 -1.1156  0.5140 -1.1302
 9433TIP3   OH249713   4.996   4.979  12.474 -0.1776 -0.5478  0.2374
 9433TIP3    H149714   4.934   5.043  12.439  1.7925  1.6985  0.5920
 9433TIP3    H249715   5.060   4.966  12.404  0.1781 -1.0738  0.6498
 9434TIP3   OH249716   5.002   4.433  16.683 -0.4430  0.5259  0.3451
 9434TIP3    H149717   4.936   4.458  16.618  0.1021  0.8404 -0.0906
 9434TIP3    H249718   5.064   4.379  16.634 -0.0109  0.7901  0.5992
 9435TIP3   OH249719   4.929   1.354  16.833  0.1401  0.2811  0.5670
 9435TIP3    H149720   4.980   1.290  16.883 -0.4718 -0.1916  0.6014
 9435TIP3    H249721   4.992   1.390  16.770  0.5227 -0.2729  0.6249
 9436TIP3   OH249722   4.629   2.135  11.796 -0.4172 -0.3224  0.3680
 9436TIP3    H149723   4.541   2.162  11.771  0.5375  2.7356 -0.0615
 9436TIP3    H249724   4.687   2.176  11.732  1.4141 -1.5041  1.1506
 9437TIP3   OH249725   6.563   0.537  15.798  0.3742  0.5095  0.3745
 9437TIP3    H149726   6.651   0.563  15.824  0.4771  0.6807 -0.1414
 9437TIP3    H249727   6.569   0.443  15.780  0.8216  0.8104 -1.1673
 9438TIP3   OH249728   6.175   3.852  13.650 -0.2578  0.3745 -0.0529
 9438TIP3    H149729   6.116   3.842  13.725  0.5205  0.4429  0.5721
 9438TIP3    H249730   6.259   3.876  13.688  0.7537 -1.7959 -0.7711
 9439TIP3   OH249731   5.193   0.161   0.486 -0.1357 -0.6642  0.1659
 9439TIP3    H149732   5.148   0.239   0.454 -0.7474 -1.5302 -1.1934
 9439TIP3    H249733   5.276   0.194   0.521 -0.1013  0.5311 -0.9654
 9440TIP3   OH249734   3.144   2.965   0.402 -0.0751  0.0969 -0.2675
 9440TIP3    H149735   3.142   2.930   0.313 -0.3020 -0.4463 -0.0566
 9440TIP3    H249736   3.070   3.026   0.405 -2.1656 -2.3077  0.4888
 9441TIP3   OH249737   3.344   5.739   5.634  0.3898  0.0862 -0.0494
 9441TIP3    H149738   3.405   5.710   5.566  0.4595 -1.0823  0.4810
 9441TIP3    H249739   3.258   5.726   5.596  0.4297  1.5079 -0.7082
 9442TIP3   OH249740   3.926   6.199  14.952  0.7055 -0.5352 -0.0287
 9442TIP3    H149741   3.887   6.234  14.871  1.3103 -0.2355 -0.1922
 9442TIP3    H249742   3.988   6.132  14.922 -0.4176 -1.7639  0.2786
 9443TIP3   OH249743   5.102   0.181  13.643  0.5273  0.3709  0.5603
 9443TIP3    H149744   5.112   0.275  13.660  2.0587  0.3910 -0.3092
 9443TIP3    H249745   5.102   0.141  13.730  0.1541  1.1385  0.9243
 9444TIP3   OH249746   6.154   1.859  16.187 -0.5587 -0.4822  0.6056
 9444TIP3    H149747   6.066   1.822  16.178 -0.0181 -1.6129 -0.4261
 9444TIP3    H249748   6.211   1.794  16.145  0.8235  0.0135  1.6486
 9445TIP3   OH249749   2.337   4.435   2.074  0.5963 -0.2211  0.4047
 9445TIP3    H149750   2.433   4.430   2.067  0.6806  0.9453  0.5247
 9445TIP3    H249751   2.308   4.458   1.985  0.4979  0.2319  0.5522
 9446TIP3   OH249752   6.781   0.707   4.949 -0.0343  0.2798  0.2861
 9446TIP3    H149753   6.791   0.797   4.979  0.2620 -0.2355  1.8069
 9446TIP3    H249754   6.748   0.715   4.859  1.3415  1.9112 -0.1239
 9447TIP3   OH249755   2.640   5.667  11.998 -0.0913  0.4634  0.2919
 9447TIP3    H149756   2.634   5.670  11.903  0.6445 -1.5911  0.1310
 9447TIP3    H249757   2.730   5.692  12.018 -0.0221  0.1416  0.3889
 9448TIP3   OH249758   5.116   4.221  15.786 -0.2128 -0.1505 -0.0258
 9448TIP3    H149759   5.147   4.217  15.695  1.3621  0.0592  0.4770
 9448TIP3    H249760   5.027   4.187  15.782 -0.0318 -0.5216 -1.5929
 9449TIP3   OH249761   2.012   5.910  15.933 -0.0032  0.2686 -0.6640
 9449TIP3    H149762   1.937   5.881  15.881  0.0779 -0.1990 -0.5193
 9449TIP3    H249763   1.984   5.900  16.024  0.2291  0.1036 -0.6099
 9450TIP3   OH249764   3.153   4.854  11.959 -0.4493  0.0309 -0.0468
 9450TIP3    H149765   3.142   4.759  11.964 -0.4311  0.0499  0.3640
 9450TIP3    H249766   3.077   4.884  11.910 -0.8271 -0.1205  0.4407
 9451TIP3   OH249767   1.424   3.924  14.453  0.1189 -0.2734  0.3546
 9451TIP3    H149768   1.357   3.911  14.386  1.2734  0.7345 -1.0589
 9451TIP3    H249769   1.507   3.909  14.407  1.0760  2.7337  0.8834
 9452TIP3   OH249770   0.525   6.499  14.551 -0.1984 -0.4563 -0.0656
 9452TIP3    H149771   0.474   6.422  14.578 -0.5107 -0.9055 -1.8198
 9452TIP3    H249772   0.459   6.566  14.535 -0.0241 -0.2198  0.2028
 9453TIP3   OH249773   5.845   6.397   2.732 -0.6449  0.3241  0.3092
 9453TIP3    H149774   5.886   6.450   2.663 -0.2664 -0.3693 -0.0100
 9453TIP3    H249775   5.751   6.402   2.712 -0.5583  0.3157 -0.1274
 9454TIP3   OH249776   5.048   2.001  16.988  0.1205  0.8841  0.5136
 9454TIP3    H149777   4.983   1.961  17.045 -0.1804 -1.9335 -1.5728
 9454TIP3    H249778   5.005   2.005  16.902  1.4790  2.3307 -0.1553
 9455TIP3   OH249779   0.119   6.621   0.812 -0.0874 -0.7649 -0.2039
 9455TIP3    H149780   0.025   6.642   0.816  0.1372  0.1702  1.6657
 9455TIP3    H249781   0.152   6.649   0.898  1.9317 -0.9625 -0.8832
 9456TIP3   OH249782   2.832   2.499   5.849  1.3958 -0.7246  0.4903
 9456TIP3    H149783   2.786   2.459   5.775  1.1462  0.6218 -0.1146
 9456TIP3    H249784   2.863   2.425   5.901 -1.5297 -1.7318  1.0108
 9457TIP3   OH249785   1.063   2.862   6.301 -0.2867  0.2571 -0.3965
 9457TIP3    H149786   1.126   2.927   6.334  1.3264 -1.4358  0.0091
 9457TIP3    H249787   0.984   2.877   6.352 -0.9956  3.6655 -2.1659
 9458TIP3   OH249788   6.535   0.628   0.151 -0.3870  0.3086  0.1204
 9458TIP3    H149789   6.494   0.653   0.069 -0.2191 -1.0957 -0.4308
 9458TIP3    H249790   6.463   0.620   0.213 -0.6262  0.4487 -0.1391
 9459TIP3   OH249791   2.524   1.605   5.349  0.2684  0.1136  0.4401
 9459TIP3    H149792   2.596   1.663   5.326 -0.4355 -0.3962 -3.8868
 9459TIP3    H249793   2.454   1.663   5.378 -0.3962  1.7353 -3.7083
 9460TIP3   OH249794   6.627   5.452   1.423  0.5252 -0.3259 -0.3494
 9460TIP3    H149795   6.532   5.459   1.409  0.7000  1.1241 -0.9260
 9460TIP3    H249796   6.661   5.426   1.338  0.7112 -0.3269 -0.2739
 9461TIP3   OH249797   4.791   2.926   5.763  0.4144 -0.5762  0.4929
 9461TIP3    H149798   4.789   2.956   5.672 -0.7431 -0.5952  0.5028
 9461TIP3    H249799   4.791   3.006   5.815 -1.1722 -0.5368  0.4924
 9462TIP3   OH249800   3.305   2.528   3.138  0.1133 -0.0414  0.8190
 9462TIP3    H149801   3.325   2.500   3.228 -0.0048 -1.5307  0.4044
 9462TIP3    H249802   3.255   2.609   3.149 -0.5709 -0.6104  2.1338
 9463TIP3   OH249803   1.187   1.021  13.608  0.6504 -0.1130 -0.1452
 9463TIP3    H149804   1.225   1.107  13.625  0.3571  0.0939 -0.5040
 9463TIP3    H249805   1.165   1.022  13.515  0.1532 -0.3766 -0.0401
 9464TIP3   OH249806   2.704   0.902  15.807 -0.0135 -0.1103  0.2383
 9464TIP3    H149807   2.668   0.959  15.739  0.1206  0.8629  0.9560
 9464TIP3    H249808   2.629   0.853  15.840 -0.0964 -0.5096 -0.5210
 9465TIP3   OH249809   0.815   4.805  13.790  0.0947  0.4468  0.2490
 9465TIP3    H149810   0.736   4.758  13.767  1.3398 -1.8382  0.3133
 9465TIP3    H249811   0.806   4.823  13.884  0.0623 -0.7499  0.4944
 9466TIP3   OH249812   4.539   2.517  14.563  1.0775  0.1898  0.3568
 9466TIP3    H149813   4.603   2.459  14.603  0.3133  0.9406  2.8915
 9466TIP3    H249814   4.571   2.605  14.583  0.3816  0.5875 -0.2493
 9467TIP3   OH249815   6.327   5.337  13.006 -0.5117  0.1827  0.3835
 9467TIP3    H149816   6.317   5.275  12.934  1.0625  0.3842 -0.0424
 9467TIP3    H249817   6.244   5.331  13.054 -0.7095 -1.6437 -0.1097
 9468TIP3   OH249818   5.120   0.448  13.580  0.0072  0.1359 -0.2711
 9468TIP3    H149819   5.171   0.527  13.595 -0.9469  0.6538  0.3668
 9468TIP3    H249820   5.113   0.441  13.485 -1.2563  1.7488 -0.3391
 9469TIP3   OH249821   0.694   5.260   5.322 -0.3345  0.3292  0.2714
 9469TIP3    H149822   0.680   5.255   5.416 -1.1168  1.9806  0.2784
 9469TIP3    H249823   0.779   5.303   5.312  0.1534 -0.6263  0.2072
 9470TIP3   OH249824   2.273   0.157   5.436  0.3613 -0.5053 -0.4824
 9470TIP3    H149825   2.353   0.206   5.456 -1.0578  0.8355  2.4857
 9470TIP3    H249826   2.250   0.184   5.347  2.6498 -0.2072 -1.0471
 9471TIP3   OH249827   4.704   3.955  11.884 -0.3150  0.0876  0.2728
 9471TIP3    H149828   4.701   4.042  11.924  0.9966 -0.5659  1.8772
 9471TIP3    H249829   4.781   3.957  11.827 -0.8371  0.2622 -0.4441
 9472TIP3   OH249830   3.207   4.693   0.073 -0.7639  0.5416 -0.0222
 9472TIP3    H149831   3.116   4.667   0.061 -0.5551  0.8680 -3.1500
 9472TIP3    H249832   3.258   4.620   0.038  0.2093  0.5131  1.3640
 9473TIP3   OH249833   5.776   0.243  16.777 -0.3836 -0.3717 -0.4186
 9473TIP3    H149834   5.710   0.309  16.800  0.3483  0.6488 -1.1653
 9473TIP3    H249835   5.818   0.221  16.860 -1.6491 -1.0350  0.0667
 9474TIP3   OH249836   1.238   3.497   5.676  0.5348  0.2044  0.4337
 9474TIP3    H149837   1.279   3.450   5.604 -1.0995  1.1785 -1.2427
 9474TIP3    H249838   1.146   3.469   5.674 -0.5495  3.3553 -0.7139
 9475TIP3   OH249839   4.067   5.869  13.794  0.1141 -0.7908 -0.5825
 9475TIP3    H149840   4.113   5.837  13.871  0.0840 -0.9562 -0.6320
 9475TIP3    H249841   4.068   5.965  13.803  2.3202 -0.6444 -1.6422
 9476TIP3   OH249842   1.675   6.571  11.825 -0.4000  0.1795 -0.4511
 9476TIP3    H149843   1.699   6.484  11.793  0.0775  0.2737 -0.3590
 9476TIP3    H249844   1.680   6.564  11.920 -2.1711 -0.2019 -0.3467
 9477TIP3   OH249845   5.966   1.257   0.880 -0.4936  0.5542 -0.0148
 9477TIP3    H149846   6.022   1.335   0.878 -0.1200  0.2925  0.1077
 9477TIP3    H249847   5.890   1.281   0.827 -0.4332  1.0404  0.1121
 9478TIP3   OH249848   5.618   5.168   2.189 -0.6935 -0.2679  0.5305
 9478TIP3    H149849   5.589   5.090   2.141  0.5244  0.0179 -0.7456
 9478TIP3    H249850   5.678   5.134   2.256 -0.7077 -0.4946  0.4288
 9479TIP3   OH249851   4.318   0.694  11.186  0.3074  1.5264 -0.0980
 9479TIP3    H149852   4.236   0.692  11.137 -1.0240 -3.5386  1.6364
 9479TIP3    H249853   4.294   0.728  11.272  0.4786  1.7692 -0.1450
 9480TIP3   OH249854   3.953   3.865  11.260  0.0239 -0.1957  0.7874
 9480TIP3    H149855   3.924   3.871  11.170 -0.2819 -0.3898  0.8722
 9480TIP3    H249856   3.928   3.777  11.288 -0.2170 -0.0089  1.1735
 9481TIP3   OH249857   0.994   1.142  16.917  0.5273  0.1903 -0.4257
 9481TIP3    H149858   0.988   1.079  16.988  1.2307  2.1734  1.5244
 9481TIP3    H249859   1.027   1.093  16.842 -1.3596 -2.2362  0.2275
 9482TIP3   OH249860   0.414   4.299  12.886  0.6925 -0.2379  0.1656
 9482TIP3    H149861   0.364   4.354  12.826 -1.0281 -1.0684  0.7546
 9482TIP3    H249862   0.444   4.358  12.955 -1.6243 -0.0532  1.1025
 9483TIP3   OH249863   0.010   0.234  12.899 -0.0986  0.9848 -0.4113
 9483TIP3    H149864  -0.018   0.198  12.983 -3.5709  1.0626 -1.3757
 9483TIP3    H249865   0.004   0.329  12.911 -0.7660  0.9936 -0.7518
 9484TIP3   OH249866   4.872   4.934  15.673 -0.0164  0.3326 -0.5556
 9484TIP3    H149867   4.871   5.022  15.711 -0.4739  0.2932 -0.4671
 9484TIP3    H249868   4.851   4.948  15.580  1.9450  0.5144 -1.0077
 9485TIP3   OH249869   2.797   4.258  14.887 -0.1150  0.7027  0.4319
 9485TIP3    H149870   2.708   4.274  14.919  0.5127  2.6082  1.3699
 9485TIP3    H249871   2.852   4.314  14.942  1.6185 -0.0735 -0.4537
 9486TIP3   OH249872   3.052   6.005  16.514  0.0914 -0.3171  0.3689
 9486TIP3    H149873   3.006   6.011  16.431 -1.2025 -1.0578  1.0038
 9486TIP3    H249874   3.016   5.928  16.557  1.6497 -0.7020  1.0919
 9487TIP3   OH249875   0.897   2.371   0.248 -0.3650 -0.2011 -0.3303
 9487TIP3    H149876   0.955   2.434   0.291 -0.0213  0.0133 -1.0786
 9487TIP3    H249877   0.945   2.345   0.169 -1.6223  0.6198 -1.4228
 9488TIP3   OH249878   3.626   1.613   0.374  0.0167  0.6669  0.3335
 9488TIP3    H149879   3.686   1.569   0.314  0.5873  0.1659  1.2606
 9488TIP3    H249880   3.632   1.705   0.351  0.0961  0.4676 -0.4863
 9489TIP3   OH249881   4.733   5.577  16.806  0.0242  0.3497 -0.4335
 9489TIP3    H149882   4.779   5.657  16.782  2.0249 -1.6112 -4.0089
 9489TIP3    H249883   4.789   5.535  16.872  0.1127  0.8530 -0.1888
 9490TIP3   OH249884   5.419   5.166  13.642 -0.1582 -0.4313  0.3183
 9490TIP3    H149885   5.399   5.205  13.727 -0.1768  2.0740 -0.7477
 9490TIP3    H249886   5.336   5.126  13.615 -0.7076  0.4431  0.6498
 9491TIP3   OH249887   2.215   4.472   0.883 -0.4585  0.0239  0.3686
 9491TIP3    H149888   2.165   4.423   0.818 -0.6946 -2.2260  2.1105
 9491TIP3    H249889   2.149   4.517   0.936 -0.2403  2.4120 -1.2541
 9492TIP3   OH249890   6.707   1.591   1.393 -0.1085  0.3877  0.0209
 9492TIP3    H149891   6.644   1.519   1.392 -0.4653  0.6943  0.0969
 9492TIP3    H249892   6.657   1.667   1.364  0.0792  0.7465  0.6103
 9493TIP3   OH249893   6.129   6.804   2.484 -0.0747  0.3152 -0.2270
 9493TIP3    H149894   6.042   6.767   2.501 -0.2854  1.0276  0.2788
 9493TIP3    H249895   6.116   6.898   2.489  0.5061  0.4653 -1.3001
 9494TIP3   OH249896   2.616   5.960   0.498  0.8796  0.5630 -0.3567
 9494TIP3    H149897   2.652   5.905   0.429 -0.0155  1.9470 -2.0049
 9494TIP3    H249898   2.604   6.046   0.457 -0.2150  1.2966  1.3650
 9495TIP3   OH249899   4.616   4.726   5.515  0.0821  0.0232 -0.3864
 9495TIP3    H149900   4.655   4.643   5.487 -3.2392 -2.5821  1.8575
 9495TIP3    H249901   4.534   4.731   5.467 -0.8197  0.8193  1.1736
 9496TIP3   OH249902   5.416   1.530  12.075  0.0921 -0.4276  0.4189
 9496TIP3    H149903   5.505   1.496  12.084 -0.6203 -2.4577  0.2117
 9496TIP3    H249904   5.421   1.590  12.001  1.5924  0.7162  1.3707
 9497TIP3   OH249905   6.722   2.008  11.062 -0.6705  0.1530  0.0534
 9497TIP3    H149906   6.756   2.054  10.985  0.0786 -0.8944 -0.2561
 9497TIP3    H249907   6.775   1.929  11.069  0.8468  1.2843  3.0193
 9498TIP3   OH249908   0.015   2.833  16.108 -0.1124 -0.7099  0.1325
 9498TIP3    H149909  -0.011   2.753  16.063 -0.4080  0.0911 -1.1575
 9498TIP3    H249910  -0.013   2.904  16.050  0.7166  0.3175  0.9458
 9499TIP3   OH249911   3.078   0.206  10.383 -0.1620 -0.1828 -0.9601
 9499TIP3    H149912   3.138   0.184  10.454  0.9014 -0.3155 -1.8677
 9499TIP3    H249913   2.993   0.172  10.412  0.0385  0.5782  0.6371
 9500TIP3   OH249914   3.098   4.124   1.993 -0.2114  0.3144  0.3124
 9500TIP3    H149915   3.075   4.041   1.950  0.5829  0.7373 -0.9944
 9500TIP3    H249916   3.176   4.102   2.045 -0.3232  0.1335  0.4090
 9501TIP3   OH249917   1.674   6.284   6.407  0.1625 -0.1071  0.2645
 9501TIP3    H149918   1.715   6.368   6.387 -0.6752  0.7991  2.0439
 9501TIP3    H249919   1.619   6.264   6.331  0.1935  1.0963 -0.0905
 9502TIP3   OH249920   6.538   3.648  13.262  0.4626 -0.0306 -0.2632
 9502TIP3    H149921   6.501   3.574  13.212  2.1232 -0.7851 -0.4277
 9502TIP3    H249922   6.517   3.725  13.209 -0.9401 -0.4077 -0.2988
 9503TIP3   OH249923   3.920   5.515  16.712  0.2348  0.8867  0.0655
 9503TIP3    H149924   3.921   5.481  16.622 -1.1622 -0.2467  0.4342
 9503TIP3    H249925   3.827   5.514  16.736  0.6613  0.3399  1.8120
 9504TIP3   OH249926   0.138   4.459  15.089  0.1962  0.9707  0.7904
 9504TIP3    H149927   0.126   4.553  15.073 -0.1845  0.9105  0.7327
 9504TIP3    H249928   0.050   4.424  15.096  0.2951  0.3933 -0.4495
 9505TIP3   OH249929   0.044   2.103  15.937 -0.0279  0.4006 -0.4195
 9505TIP3    H149930   0.077   2.078  16.023 -1.8479 -1.0738 -0.0903
 9505TIP3    H249931   0.028   2.197  15.943 -0.5948  0.2241  1.0245
 9506TIP3   OH249932   2.871   6.573   2.448 -0.4131  0.4868 -0.1521
 9506TIP3    H149933   2.865   6.608   2.537  0.1623  0.5410 -0.1334
 9506TIP3    H249934   2.842   6.482   2.456 -0.7941  0.6201  0.0072
 9507TIP3   OH249935   4.404   3.974  15.931 -0.2067 -0.0439 -0.3654
 9507TIP3    H149936   4.380   3.895  15.979 -1.9552  0.4959 -0.2704
 9507TIP3    H249937   4.489   3.954  15.892  0.4741 -1.1042  1.5439
 9508TIP3   OH249938   2.653   3.024   5.010  0.2141  0.2870  0.2096
 9508TIP3    H149939   2.673   3.091   5.076 -2.1240  0.8102  0.4776
 9508TIP3    H249940   2.739   2.993   4.981  1.3797 -0.4567  3.9328
 9509TIP3   OH249941   3.671   1.549  14.954 -0.2847 -0.4744  0.0067
 9509TIP3    H149942   3.649   1.634  14.918 -1.2269 -0.4847  0.5241
 9509TIP3    H249943   3.639   1.552  15.044  1.0700 -0.8278  0.5232
 9510TIP3   OH249944   5.851   5.045   3.387 -0.1819  0.5295  0.5237
 9510TIP3    H149945   5.793   5.039   3.463 -0.5602  0.1266  0.2102
 9510TIP3    H249946   5.828   5.128   3.345  1.0317  1.4722  1.6447
 9511TIP3   OH249947   4.365   2.614   1.718 -0.5827  0.6292 -0.2944
 9511TIP3    H149948   4.321   2.615   1.803  2.5072  1.1228  1.4474
 9511TIP3    H249949   4.433   2.681   1.725  0.2223  0.2218 -2.9479
 9512TIP3   OH249950   0.088   3.441   3.571 -0.7643  0.0272 -0.4588
 9512TIP3    H149951   0.080   3.422   3.478 -0.4690 -0.6997 -0.3389
 9512TIP3    H249952   0.167   3.494   3.579 -1.1823  0.7141 -0.6983
 9513TIP3   OH249953   6.314   0.633   0.311  0.0874 -0.1104 -0.3678
 9513TIP3    H149954   6.321   0.686   0.390  2.0016 -0.6499 -0.1446
 9513TIP3    H249955   6.219   0.626   0.296 -0.2712  1.6975  0.6882
 9514TIP3   OH249956   2.839   0.256   2.011 -0.6948  0.5956 -0.2746
 9514TIP3    H149957   2.760   0.272   1.960 -0.5933 -1.0537 -0.9902
 9514TIP3    H249958   2.852   0.161   2.007  0.1539  0.5934  1.5840
 9515TIP3   OH249959   6.342   3.520  14.545 -0.2036 -0.5649  0.2854
 9515TIP3    H149960   6.278   3.564  14.601  1.6085 -0.7589  2.7020
 9515TIP3    H249961   6.297   3.442  14.514 -1.5256 -0.0849  0.9274
 9516TIP3   OH249962   6.193   3.092   0.067  0.0749 -0.2312 -0.6496
 9516TIP3    H149963   6.274   3.057   0.029  2.1110  1.5707  1.7116
 9516TIP3    H249964   6.207   3.187   0.071 -1.9835  0.0889  0.2638
 9517TIP3   OH249965   1.974   2.850  13.210 -0.4393 -0.3112 -0.4715
 9517TIP3    H149966   1.980   2.929  13.156  1.9143 -0.4060 -0.4304
 9517TIP3    H249967   1.940   2.783  13.151  1.5981 -0.2850 -1.7635
 9518TIP3   OH249968   0.537   4.051  11.284 -0.3844  0.6283 -0.1672
 9518TIP3    H149969   0.629   4.071  11.267 -0.3979  0.3353 -0.5789
 9518TIP3    H249970   0.538   4.000  11.365 -0.2596  1.3465  0.2987
 9519TIP3   OH249971   4.941   3.276  14.645  0.1118  0.1261 -0.0328
 9519TIP3    H149972   4.950   3.189  14.605  0.6206  1.5781 -3.4077
 9519TIP3    H249973   4.856   3.274  14.688 -0.5665 -1.5666 -1.3365
 9520TIP3   OH249974   5.497   0.069  11.482  0.3673  0.9253 -0.2545
 9520TIP3    H149975   5.554   0.106  11.550  0.2642  0.8944 -0.1514
 9520TIP3    H249976   5.520   0.118  11.403  1.2718  0.2099 -0.4530
 9521TIP3   OH249977   5.185   1.808  16.803 -0.4432 -0.4646 -0.3989
 9521TIP3    H149978   5.244   1.831  16.874  0.9266 -0.3053 -1.5367
 9521TIP3    H249979   5.099   1.804  16.843  0.0708  1.1393  0.9509
 9522TIP3   OH249980   2.581   2.644   0.854 -0.1133 -0.4022  0.2327
 9522TIP3    H149981   2.570   2.735   0.883 -0.6333 -0.9285  1.8034
 9522TIP3    H249982   2.675   2.635   0.838 -0.3719  1.2189 -2.9560
 9523TIP3   OH249983   0.642   6.674   2.837 -0.7165  0.3005  0.0173
 9523TIP3    H149984   0.561   6.685   2.887 -0.5209 -2.3078  1.0608
 9523TIP3    H249985   0.678   6.762   2.830 -2.9568  1.3362  0.6902
 9524TIP3   OH249986   5.818   4.600  11.695  0.3875 -0.5763  0.4032
 9524TIP3    H149987   5.819   4.522  11.639 -1.6450 -0.9601  0.8260
 9524TIP3    H249988   5.728   4.607  11.724  0.1828  2.7211 -0.6859
 9525TIP3   OH249989   1.041   6.068   2.357  0.0170  0.0131  0.2404
 9525TIP3    H149990   1.077   6.153   2.380  0.2005  0.2012 -0.6951
 9525TIP3    H249991   1.034   6.070   2.261 -2.0340 -0.1829  0.3322
 9526TIP3   OH249992   5.880   6.726   1.384 -0.3177  0.6842 -0.2498
 9526TIP3    H149993   5.871   6.810   1.430  1.2462  0.9194 -0.3081
 9526TIP3    H249994   5.911   6.750   1.297  0.1302  0.0584 -0.2698
 9527TIP3   OH249995   4.872   1.867  12.167 -0.0405  0.3467 -0.1173
 9527TIP3    H149996   4.803   1.873  12.233 -0.4788 -0.4883 -0.4803
 9527TIP3    H249997   4.829   1.826  12.091  1.1716 -1.4901  0.1221
 9528TIP3   OH249998   3.262   2.970  12.915  0.2750 -0.0739  0.5884
 9528TIP3    H149999   3.279   2.932  13.002 -0.1952  0.4127  0.8955
 9528TIP3    H250000   3.267   3.064  12.929  3.9435  0.0690 -0.6554
 9529TIP3   OH250001   6.016   3.138   4.027 -0.5425  0.9391  0.4296
 9529TIP3    H150002   6.058   3.081   3.963  0.6665  1.8590  0.3747
 9529TIP3    H250003   5.925   3.144   3.996 -1.1977 -2.2419  1.3645
 9530TIP3   OH250004   0.127   1.344   4.401  0.6474 -0.2280  0.5762
 9530TIP3    H150005   0.189   1.388   4.342 -0.7274 -0.2687 -0.9727
 9530TIP3    H250006   0.172   1.343   4.486  1.4803  2.5912  0.3019
 9531TIP3   OH250007   5.655   2.823  15.537 -0.5207 -0.5693  0.2863
 9531TIP3    H150008   5.612   2.784  15.461 -0.2314 -1.9528  0.7946
 9531TIP3    H250009   5.621   2.773  15.612  0.4260 -0.3171  0.8984
 9532TIP3   OH250010   3.920   2.089   4.659 -0.1105 -0.1510  0.0483
 9532TIP3    H150011   3.911   2.003   4.617  0.4613 -0.3885  0.4045
 9532TIP3    H250012   3.835   2.131   4.646  0.0138 -0.2713 -1.2247
 9533TIP3   OH250013   3.330   1.815   0.998  0.1873  0.3801  0.6633
 9533TIP3    H150014   3.283   1.884   1.045  1.2747  0.7946  1.1829
 9533TIP3    H250015   3.406   1.859   0.960 -0.6226  0.0340 -1.4826
 9534TIP3   OH250016   4.331   0.094   0.034 -0.5598  0.5433 -0.1704
 9534TIP3    H150017   4.382   0.171   0.007 -0.9934  1.0002  0.3208
 9534TIP3    H250018   4.331   0.038  -0.044  2.1498 -0.2752  0.2850
 9535TIP3   OH250019   2.840   3.089   2.341 -0.2125  0.1071  0.0629
 9535TIP3    H150020   2.851   3.037   2.421 -0.6581 -1.7233 -1.0146
 9535TIP3    H250021   2.746   3.086   2.323 -0.0922  0.3457 -0.6277
 9536TIP3   OH250022   1.812   1.975   3.048 -0.8498  0.2622 -0.3141
 9536TIP3    H150023   1.822   1.923   2.968 -0.0260 -0.2498  0.1006
 9536TIP3    H250024   1.870   2.050   3.035  0.1060 -0.3507  0.1993
 9537TIP3   OH250025   1.963   6.123   4.827  0.0336 -0.2638 -0.3884
 9537TIP3    H150026   1.918   6.198   4.866 -0.3140 -0.0062 -1.2821
 9537TIP3    H250027   2.054   6.134   4.856 -0.6618 -1.6638  2.7752
 9538TIP3   OH250028   2.536   6.345   5.629  0.2091  0.1404  0.6242
 9538TIP3    H150029   2.500   6.433   5.616 -0.3861 -0.2509 -0.5647
 9538TIP3    H250030   2.624   6.350   5.592 -0.0166  0.1126  0.0627
 9539TIP3   OH250031   3.483   1.038  15.464 -0.3708  0.8708  0.5629
 9539TIP3    H150032   3.520   1.068  15.382 -2.6972  1.1758 -0.4466
 9539TIP3    H250033   3.550   0.980  15.501  0.4240  0.1043 -1.9004
 9540TIP3   OH250034   6.302   5.656   0.732  0.6524 -0.3680  0.6899
 9540TIP3    H150035   6.375   5.716   0.746  1.8116 -0.5233 -3.5156
 9540TIP3    H250036   6.343   5.570   0.725 -0.2267 -0.7925  0.5930
 9541TIP3   OH250037   5.121   1.787   1.275 -0.1307 -0.1402 -0.2197
 9541TIP3    H150038   5.137   1.763   1.183  1.1633  1.1382 -0.3650
 9541TIP3    H250039   5.168   1.870   1.286 -0.6322 -0.0588  1.4908
 9542TIP3   OH250040   3.367   6.106  14.901 -0.0756 -0.0510 -0.0994
 9542TIP3    H150041   3.430   6.125  14.831  0.4968 -0.4744  0.2941
 9542TIP3    H250042   3.421   6.076  14.974 -0.8404 -1.8856 -0.2422
 9543TIP3   OH250043   4.039   4.693   2.848  0.1000  0.1497  0.1717
 9543TIP3    H150044   4.100   4.641   2.901 -0.5422  0.9922  1.8095
 9543TIP3    H250045   3.955   4.685   2.893 -0.0010  2.6471  0.5604
 9544TIP3   OH250046   4.115   5.932  11.167  0.0886 -0.3036  0.2737
 9544TIP3    H150047   4.099   5.839  11.183  2.5053 -0.9499 -0.6528
 9544TIP3    H250048   4.042   5.960  11.112 -0.1357 -1.9255 -0.2960
 9545TIP3   OH250049   3.809   6.529   4.922  0.0987 -0.0098 -0.9204
 9545TIP3    H150050   3.848   6.616   4.934  0.4100 -0.3315  0.6094
 9545TIP3    H250051   3.849   6.475   4.989 -1.8949 -0.7212 -0.2090
 9546TIP3   OH250052   0.740   4.856  13.532 -0.3176  0.0279  0.3170
 9546TIP3    H150053   0.803   4.853  13.605 -0.6026  1.8567  0.6713
 9546TIP3    H250054   0.781   4.804  13.463  0.5595 -0.6446  1.3143
 9547TIP3   OH250055   0.904   6.077  14.227  0.6407  0.2691 -0.4900
 9547TIP3    H150056   0.971   6.088  14.294  0.9867 -0.1450 -0.7564
 9547TIP3    H250057   0.893   5.982  14.220 -1.0029  0.3457  0.5514
 9548TIP3   OH250058   0.926   0.807  16.445  0.5750 -0.4252 -0.0851
 9548TIP3    H150059   0.928   0.866  16.369 -1.5821 -0.4541 -0.2340
 9548TIP3    H250060   0.839   0.767  16.442  1.1176 -1.8424  1.3733
 9549TIP3   OH250061   4.323   2.808   6.036 -0.0287 -0.0735  0.2244
 9549TIP3    H150062   4.374   2.888   6.024 -0.1339 -0.1145 -0.5393
 9549TIP3    H250063   4.378   2.738   6.001 -0.1151 -0.2794  0.4946
 9550TIP3   OH250064   1.974   2.726  15.025  0.3997  0.8186 -0.2512
 9550TIP3    H150065   2.037   2.763  14.964 -0.8004  1.3045 -1.2539
 9550TIP3    H250066   1.896   2.780  15.014 -0.2409  0.1559  0.8451
 9551TIP3   OH250067   6.527   0.829  13.749 -0.6310 -0.6634  0.6434
 9551TIP3    H150068   6.437   0.860  13.753  0.0502  1.4432  2.2207
 9551TIP3    H250069   6.551   0.814  13.841  1.1560  0.7477  0.4843
 9552TIP3   OH250070   0.904   1.410   2.292 -0.2065 -0.4674  0.7955
 9552TIP3    H150071   0.958   1.433   2.217  0.5086  1.2380  1.7751
 9552TIP3    H250072   0.965   1.374   2.356 -0.4029  0.2835  1.4245
 9553TIP3   OH250073   6.476   2.192   2.265  0.1017 -0.2374  0.2123
 9553TIP3    H150074   6.436   2.251   2.201  0.6460  0.4674  0.5167
 9553TIP3    H250075   6.446   2.223   2.350  1.0544  0.1325  0.4291
 9554TIP3   OH250076   4.974   4.995  16.099  0.0242  0.0586 -0.1938
 9554TIP3    H150077   5.044   5.025  16.157  0.3833  0.4519 -0.8227
 9554TIP3    H250078   4.893   5.024  16.142  0.0131 -2.8444  2.0225
 9555TIP3   OH250079   3.172   1.887  11.157  0.2424 -0.0553 -0.4209
 9555TIP3    H150080   3.160   1.959  11.096  0.3241 -0.1880 -0.5927
 9555TIP3    H250081   3.263   1.894  11.186  0.5557 -0.6740 -1.1931
 9556TIP3   OH250082   0.129   0.757   2.920  0.2115 -0.4375  0.3159
 9556TIP3    H150083   0.073   0.758   2.843 -0.5670 -1.4286  0.8432
 9556TIP3    H250084   0.096   0.828   2.975  0.7423  0.2434 -0.2272
 9557TIP3   OH250085   0.093   1.711   0.996 -0.1797 -0.0022 -0.4832
 9557TIP3    H150086   0.005   1.729   1.029 -0.0266  1.5879 -0.8662
 9557TIP3    H250087   0.097   1.755   0.911  0.3239 -1.7824 -1.4384
 9558TIP3   OH250088   0.868   1.490  11.351 -0.0563 -0.1053 -0.3131
 9558TIP3    H150089   0.792   1.463  11.404 -0.4025  0.7963 -0.3286
 9558TIP3    H250090   0.831   1.510  11.265 -0.2652  2.7480  0.3419
 9559TIP3   OH250091   1.564   2.076   1.502  0.0793 -0.3019 -0.0030
 9559TIP3    H150092   1.586   2.094   1.594  1.4258 -0.4755 -0.2782
 9559TIP3    H250093   1.492   2.013   1.507 -1.5040  1.4786  0.9324
 9560TIP3   OH250094   6.175   5.741   0.144 -0.4441 -0.6129  0.0862
 9560TIP3    H150095   6.182   5.769   0.053 -0.7826  1.0646  0.5433
 9560TIP3    H250096   6.146   5.819   0.191 -0.8132 -1.5955  1.5545
 9561TIP3   OH250097   1.954   6.623   3.254 -0.6517 -0.1600  0.0542
 9561TIP3    H150098   1.936   6.656   3.166 -1.6377  0.1970  0.3816
 9561TIP3    H250099   1.967   6.701   3.307  0.4960 -0.3826  0.1289
 9562TIP3   OH250100   6.091   2.527   4.641  0.2932 -0.1902 -0.7121
 9562TIP3    H150101   6.170   2.548   4.692 -1.4292 -0.4349  2.2726
 9562TIP3    H250102   6.070   2.437   4.665  0.0514 -0.7800 -2.9025
 9563TIP3   OH250103   5.458   4.529  12.734 -0.0060  0.0513  0.0630
 9563TIP3    H150104   5.505   4.577  12.802  0.0543  0.3273 -0.1743
 9563TIP3    H250105   5.387   4.587  12.708 -0.4386 -0.3331  0.3675
 9564TIP3   OH250106   5.826   4.618   0.366 -0.0725  0.1797 -0.3295
 9564TIP3    H150107   5.820   4.523   0.357  4.5669 -0.5704  1.7214
 9564TIP3    H250108   5.799   4.634   0.457  2.1654  0.2740  0.3634
 9565TIP3   OH250109   5.012   3.226   3.225 -0.3096 -0.0732 -0.9468
 9565TIP3    H150110   5.037   3.179   3.146  1.2030  0.0843 -0.6081
 9565TIP3    H250111   4.979   3.310   3.194  1.8408  0.6741 -1.4200
 9566TIP3   OH250112   5.339   3.596   3.642  0.1842 -0.0181 -0.2713
 9566TIP3    H150113   5.349   3.664   3.708  0.0831 -1.1517  0.9722
 9566TIP3    H250114   5.405   3.530   3.664  1.3587  0.3544 -2.3973
 9567TIP3   OH250115   6.169   2.217   4.688 -0.4535  0.1591  0.1568
 9567TIP3    H150116   6.109   2.195   4.617  0.5322 -0.2683 -0.5656
 9567TIP3    H250117   6.163   2.143   4.748  1.1053 -1.0504 -1.1055
 9568TIP3   OH250118   1.744   2.423   3.943  0.6641 -0.1074 -0.3587
 9568TIP3    H150119   1.825   2.414   3.993  0.5637 -0.3238 -0.2365
 9568TIP3    H250120   1.689   2.482   3.996 -0.3337 -2.0841  0.9167
 9569TIP3   OH250121   1.069   6.745  13.347  0.0180  0.0666 -0.2820
 9569TIP3    H150122   1.030   6.832  13.348  1.2122  0.6884 -2.0584
 9569TIP3    H250123   0.999   6.689  13.312 -0.3072  0.5744 -0.4640
 9570TIP3   OH250124   1.512   4.326   1.031 -0.0182  0.5712 -0.0995
 9570TIP3    H150125   1.470   4.240   1.019 -0.8249  0.8231  0.8335
 9570TIP3    H250126   1.522   4.335   1.125 -0.2314  1.6463 -0.1711
 9571TIP3   OH250127   0.877   2.217   2.042 -0.8331  0.1831  0.0413
 9571TIP3    H150128   0.865   2.307   2.073  0.6518  0.8795 -1.2934
 9571TIP3    H250129   0.925   2.174   2.113  0.9655  1.2544 -0.4773
 9572TIP3   OH250130   3.350   0.415  14.351  0.1828 -0.0865  0.4508
 9572TIP3    H150131   3.374   0.483  14.414  0.1500 -0.6952  1.1356
 9572TIP3    H250132   3.276   0.370  14.392 -1.1773  0.7939 -0.9455
 9573TIP3   OH250133   0.811   3.758   5.784  0.5382 -0.1104  0.7541
 9573TIP3    H150134   0.735   3.737   5.837  1.7929 -0.4569  2.5056
 9573TIP3    H250135   0.884   3.716   5.830  1.5291 -1.6510 -1.9981
 9574TIP3   OH250136   6.059   3.009   0.884 -0.0666  0.5967 -0.4268
 9574TIP3    H150137   5.998   2.953   0.932 -0.1499  0.1046 -1.0878
 9574TIP3    H250138   6.009   3.038   0.807  0.4415  0.3878 -0.8437
 9575TIP3   OH250139   0.229   5.451   6.511 -0.1194 -0.1380  0.0453
 9575TIP3    H150140   0.279   5.440   6.430  0.7863 -0.0408  0.5696
 9575TIP3    H250141   0.240   5.544   6.534  0.1388 -0.2956  0.5856
 9576TIP3   OH250142   3.973   5.436  13.517 -0.2070  0.9008  0.1858
 9576TIP3    H150143   4.044   5.481  13.563  2.1830 -1.1675 -1.1815
 9576TIP3    H250144   3.994   5.447  13.424  0.5695 -2.8559 -0.2455
 9577TIP3   OH250145   3.989   6.297  15.357 -0.1953  0.7127  0.2163
 9577TIP3    H150146   4.060   6.350  15.392  1.0163 -1.9070  2.0264
 9577TIP3    H250147   3.910   6.346  15.380  0.7854  1.1664  3.0225
 9578TIP3   OH250148   1.948   5.885  15.500 -0.0645 -0.4058  0.2585
 9578TIP3    H150149   1.925   5.812  15.558  1.5110  0.3400  1.9438
 9578TIP3    H250150   2.034   5.913  15.531  0.7792  0.1701 -2.4014
 9579TIP3   OH250151   6.091   4.869   5.561 -0.5464 -0.6879  0.1797
 9579TIP3    H150152   6.183   4.895   5.553 -0.9413  0.4396 -1.0056
 9579TIP3    H250153   6.048   4.946   5.598 -1.0467 -1.1702  0.6191
 9580TIP3   OH250154   2.003   2.727  16.793  0.3746  0.0462 -0.1412
 9580TIP3    H150155   2.068   2.670  16.835  0.5209 -0.2279 -0.7228
 9580TIP3    H250156   1.947   2.756  16.864  1.0029  0.1059  0.3395
 9581TIP3   OH250157   6.604   2.599   2.863  0.2717 -0.2472  0.5330
 9581TIP3    H150158   6.583   2.637   2.948 -0.4230  0.5117  0.0356
 9581TIP3    H250159   6.520   2.576   2.825  0.3449  1.7174 -0.9750
 9582TIP3   OH250160   4.739   2.139   0.064 -0.7636 -0.2519 -0.0850
 9582TIP3    H150161   4.768   2.059   0.107 -1.5589  0.0385  1.0497
 9582TIP3    H250162   4.654   2.117   0.027 -1.6149  0.3949  1.3875
 9583TIP3   OH250163   3.108   1.359   1.676 -0.1065  0.9211 -0.3890
 9583TIP3    H150164   3.056   1.313   1.610 -1.5733  1.6169  0.2379
 9583TIP3    H250165   3.147   1.433   1.629 -0.4043  0.8906 -0.6885
 9584TIP3   OH250166   6.622   3.785  15.952  0.1362  0.0757 -0.8241
 9584TIP3    H150167   6.574   3.859  15.915 -0.5997  0.8487  1.5296
 9584TIP3    H250168   6.636   3.808  16.043  2.9808 -1.1737 -0.8203
 9585TIP3   OH250169   4.204   4.422  11.133 -0.8187 -0.7355 -0.0846
 9585TIP3    H150170   4.132   4.470  11.174  2.1566  2.5509  1.7903
 9585TIP3    H250171   4.199   4.447  11.040 -0.1633  2.3833  0.6048
 9586TIP3   OH250172   5.256   4.894  16.711 -0.2253  0.1056  0.3800
 9586TIP3    H150173   5.268   4.812  16.663  0.3110 -0.1556  0.9481
 9586TIP3    H250174   5.252   4.961  16.643  1.3183 -0.1626 -0.0252
 9587TIP3   OH250175   3.882   1.989   6.349 -0.6404 -0.2929 -0.2249
 9587TIP3    H150176   3.912   1.947   6.430  0.1186 -0.1478 -0.4219
 9587TIP3    H250177   3.791   2.012   6.366 -0.9667 -1.6770  0.0291
 9588TIP3   OH250178   1.838   3.097  11.445 -0.6065  0.3375 -0.3598
 9588TIP3    H150179   1.875   3.176  11.485 -1.3467  0.6887 -0.3607
 9588TIP3    H250180   1.915   3.042  11.426 -0.2495 -0.3300  2.4948
 9589TIP3   OH250181   0.347   4.189   1.330  0.0239 -0.2977  0.3978
 9589TIP3    H150182   0.304   4.167   1.247  0.4826 -0.7421  0.2777
 9589TIP3    H250183   0.275   4.222   1.386 -0.3785 -0.5193  0.0155
 9590TIP3   OH250184   6.501   6.114  16.573 -0.1693  0.3813 -0.1834
 9590TIP3    H150185   6.499   6.019  16.565 -0.4058  0.3975 -0.3121
 9590TIP3    H250186   6.460   6.147  16.493  0.7686  0.6129 -0.5776
 9591TIP3   OH250187   0.555   3.915  16.617  0.3645  0.2124  0.2253
 9591TIP3    H150188   0.563   3.914  16.713 -0.3161  0.0818  0.2875
 9591TIP3    H250189   0.544   4.007  16.594 -0.3422  0.1632  0.3550
 9592TIP3   OH250190   1.486   3.730   5.554  0.1312 -0.2555  0.5119
 9592TIP3    H150191   1.461   3.810   5.507 -1.2610 -0.1925  1.2985
 9592TIP3    H250192   1.520   3.672   5.486 -0.3082  0.4467 -0.3250
 9593TIP3   OH250193   5.423   0.234   6.425  0.6993 -0.2426  0.0766
 9593TIP3    H150194   5.340   0.187   6.431 -0.3644  1.3202 -1.5026
 9593TIP3    H250195   5.484   0.171   6.386 -0.1390 -0.9345 -0.1490
 9594TIP3   OH250196   1.172   3.261   3.960 -0.3089 -0.2395  0.4212
 9594TIP3    H150197   1.132   3.261   3.873 -0.3216  2.8396  0.3290
 9594TIP3    H250198   1.229   3.184   3.960  0.0367 -0.0947 -2.4619
 9595TIP3   OH250199   2.963   0.462   1.406 -0.7554  0.1004 -0.0698
 9595TIP3    H150200   3.008   0.469   1.490  0.0822 -1.7939 -0.3105
 9595TIP3    H250201   2.976   0.371   1.380 -0.9322  0.6670 -2.2913
 9596TIP3   OH250202   4.909   0.007   3.903 -0.1126 -0.2039 -0.6048
 9596TIP3    H150203   4.822  -0.003   3.866 -0.0817 -1.9695 -0.3100
 9596TIP3    H250204   4.967  -0.029   3.836  0.0924 -1.8722  0.4196
 9597TIP3   OH250205   1.769   6.311  11.771  0.0811 -0.0383  0.4749
 9597TIP3    H150206   1.828   6.245  11.808 -0.1223 -0.1790  0.5481
 9597TIP3    H250207   1.733   6.270  11.693 -2.1266 -1.0922  1.9493
 9598TIP3   OH250208   5.282   1.258  13.779 -0.7574  0.6161 -0.8790
 9598TIP3    H150209   5.217   1.327  13.768 -0.5480  0.8203 -0.8328
 9598TIP3    H250210   5.310   1.235  13.691 -1.5960 -0.1470 -0.9597
 9599TIP3   OH250211   1.629   2.118   4.288  0.6591  0.4341 -0.0481
 9599TIP3    H150212   1.714   2.152   4.316 -0.2948  0.9950  2.4008
 9599TIP3    H250213   1.602   2.060   4.359 -0.2045 -1.2359 -1.6698
 9600TIP3   OH250214   1.477   2.581  16.991  0.2182 -0.3813  0.2422
 9600TIP3    H150215   1.445   2.496  17.020  1.2152 -1.1916 -0.9375
 9600TIP3    H250216   1.572   2.572  16.995  0.4385 -0.5113 -3.0363
 9601TIP3   OH250217   3.140   3.063   2.325 -0.6356  0.7903 -0.0980
 9601TIP3    H150218   3.171   3.079   2.236 -0.8105 -0.4263 -0.3914
 9601TIP3    H250219   3.047   3.084   2.322 -1.0031 -0.7765 -0.6466
 9602TIP3   OH250220   1.619   2.338  16.725  0.0582 -0.2893 -0.7765
 9602TIP3    H150221   1.559   2.275  16.765  1.6319 -0.0023  2.2764
 9602TIP3    H250222   1.574   2.422  16.732  1.1839  0.1586  2.7813
 9603TIP3   OH250223   3.708   0.232  11.619 -0.7843  0.0673 -0.3742
 9603TIP3    H150224   3.718   0.169  11.691  0.1359  0.2003 -0.3780
 9603TIP3    H250225   3.731   0.184  11.540  1.8880  0.8811 -0.1846
 9604TIP3   OH250226   2.466   6.605   0.633  0.4598 -0.3169 -0.5359
 9604TIP3    H150227   2.552   6.572   0.606  0.7998 -0.6113  0.8263
 9604TIP3    H250228   2.409   6.528   0.630  0.2784 -0.1668 -1.2238
 9605TIP3   OH250229   4.482   3.219  15.897  0.1733 -0.1301 -0.0977
 9605TIP3    H150230   4.516   3.131  15.914 -1.9659 -0.5641  2.7050
 9605TIP3    H250231   4.395   3.204  15.861 -0.7933  0.7178  1.7348
 9606TIP3   OH250232   4.856   6.254  14.757 -0.1378  0.2010  0.0604
 9606TIP3    H150233   4.817   6.196  14.693 -0.0871 -0.5182  0.6640
 9606TIP3    H250234   4.817   6.228  14.841  1.5483 -0.5005  0.6761
 9607TIP3   OH250235   2.397   0.357  12.115  0.2236  0.1020  0.5372
 9607TIP3    H150236   2.418   0.264  12.124 -0.4907 -0.1894 -0.5707
 9607TIP3    H250237   2.306   0.364  12.143  0.1096  0.3771  0.1067
 9608TIP3   OH250238   4.501   1.089   0.261  0.0147  0.1770  0.5499
 9608TIP3    H150239   4.425   1.124   0.213  0.0124 -2.3268 -1.4822
 9608TIP3    H250240   4.576   1.109   0.205  0.5690  0.5280  1.3932
 9609TIP3   OH250241   2.236   2.749  12.637 -0.6966 -0.3385  0.4141
 9609TIP3    H150242   2.328   2.760  12.660 -0.3439 -1.1179 -0.5925
 9609TIP3    H250243   2.209   2.835  12.604 -0.1764 -0.2577  0.1929
 9610TIP3   OH250244   4.952   0.770  14.645 -0.3197 -0.2338 -0.2108
 9610TIP3    H150245   4.892   0.786  14.718 -0.9514 -2.7870 -0.0619
 9610TIP3    H250246   5.031   0.736  14.685 -0.1774 -0.3950 -0.6212
 9611TIP3   OH250247   5.372   3.273  14.817 -0.0997 -0.2464 -0.1949
 9611TIP3    H150248   5.287   3.313  14.799 -0.2494 -0.8365 -0.8507
 9611TIP3    H250249   5.381   3.206  14.750  0.4546 -0.8458  0.4688
 9612TIP3   OH250250   1.571   0.544  14.473 -0.3685  0.1545 -0.2928
 9612TIP3    H150251   1.596   0.636  14.463 -1.0461  0.2242 -1.6031
 9612TIP3    H250252   1.562   0.512  14.383 -1.2723 -0.8757  0.1416
 9613TIP3   OH250253   1.432   2.363   4.409  0.1280 -0.6187  0.2641
 9613TIP3    H150254   1.487   2.408   4.473  1.4077  0.2873 -1.3851
 9613TIP3    H250255   1.491   2.301   4.366 -0.7732 -1.4017  0.1190
 9614TIP3   OH250256   6.372   6.803   1.651 -0.0036 -0.1653 -0.1259
 9614TIP3    H150257   6.302   6.742   1.670 -0.6971  0.9528  1.0871
 9614TIP3    H250258   6.442   6.779   1.711  0.1646 -0.4670 -0.4385
 9615TIP3   OH250259   6.802   0.180   3.364  0.0501 -0.4539 -0.0973
 9615TIP3    H150260   6.775   0.191   3.455  0.0888  1.6207 -0.2914
 9615TIP3    H250261   6.877   0.239   3.354 -1.8272  1.7604 -2.2393
 9616TIP3   OH250262   6.402   5.706  16.718 -1.1474  0.2128 -0.0331
 9616TIP3    H150263   6.427   5.755  16.797 -0.6451  0.1298 -0.1363
 9616TIP3    H250264   6.354   5.630  16.752 -1.0946  0.2750  0.1874
 9617TIP3   OH250265   0.150   4.778   4.753 -0.0839  0.1812 -0.0265
 9617TIP3    H150266   0.124   4.696   4.711  1.6922 -0.3481 -0.1758
 9617TIP3    H250267   0.218   4.814   4.696  0.5342  0.7690  1.0473
 9618TIP3   OH250268   0.447   2.511   0.666 -0.3095 -1.0743 -0.3127
 9618TIP3    H150269   0.443   2.592   0.615 -0.6203 -1.5309 -1.0211
 9618TIP3    H250270   0.517   2.527   0.730 -1.3345  0.3059  0.5376
 9619TIP3   OH250271   6.199   0.949   1.560  0.2526 -0.6751 -0.1557
 9619TIP3    H150272   6.199   1.005   1.482 -0.5658 -1.8300 -1.0088
 9619TIP3    H250273   6.106   0.936   1.580  0.4276 -1.8425 -0.0531
 9620TIP3   OH250274   0.655   4.301   1.761  0.5796 -0.7772 -0.2338
 9620TIP3    H150275   0.590   4.293   1.830  0.9200  1.8811  0.4963
 9620TIP3    H250276   0.610   4.270   1.682 -1.9943  1.8125  0.0652
 9621TIP3   OH250277   1.770   2.783  16.094 -0.3155 -0.2766  0.4877
 9621TIP3    H150278   1.746   2.704  16.141  0.1912  0.2121  1.6090
 9621TIP3    H250279   1.765   2.853  16.159 -0.6917  0.6159 -0.4585
 9622TIP3   OH250280   4.071   5.222  15.245 -0.0888 -0.4839  0.5619
 9622TIP3    H150281   4.008   5.291  15.225 -0.0327 -0.2711  1.1212
 9622TIP3    H250282   4.122   5.255  15.318 -0.7466 -1.5253  1.5372
 9623TIP3   OH250283   2.303   6.191   3.872  0.5860  0.3722 -0.0740
 9623TIP3    H150284   2.370   6.199   3.805  0.7989  0.0327  0.0966
 9623TIP3    H250285   2.336   6.241   3.946  1.7872 -1.7100  0.8898
 9624TIP3   OH250286   0.298   2.295   0.558 -0.0437 -0.1726  0.5397
 9624TIP3    H150287   0.323   2.303   0.466 -0.1360 -1.9610  0.3255
 9624TIP3    H250288   0.349   2.364   0.602  0.3257  0.4330 -0.7665
 9625TIP3   OH250289   1.395   3.759   3.343 -0.2496 -0.2812 -0.4167
 9625TIP3    H150290   1.426   3.840   3.303  2.0889 -0.9711 -0.1020
 9625TIP3    H250291   1.468   3.729   3.397 -1.4644 -2.0594  0.3173
 9626TIP3   OH250292   1.323   3.303  12.289  0.1822  0.4319  0.4350
 9626TIP3    H150293   1.250   3.294  12.350 -0.1357  1.6095  0.2510
 9626TIP3    H250294   1.337   3.397  12.282  0.7378  0.2837 -0.6952
 9627TIP3   OH250295   1.206   1.004  14.742 -0.4124 -0.2943 -0.5968
 9627TIP3    H150296   1.187   1.030  14.832  0.4131  1.1815 -0.8268
 9627TIP3    H250297   1.293   0.965  14.746 -0.5905 -0.7069 -0.6788
 9628TIP3   OH250298   0.685   4.190  14.947 -0.6850  0.1720  0.0570
 9628TIP3    H150299   0.713   4.232  14.865  2.4823  0.3022  1.1115
 9628TIP3    H250300   0.659   4.262  15.004 -1.6011  0.1611 -0.3155
 9629TIP3   OH250301   4.365   4.455  12.240  0.1962  0.0192  0.3144
 9629TIP3    H150302   4.336   4.461  12.149  2.5049  2.2503 -0.3830
 9629TIP3    H250303   4.317   4.380  12.275 -1.2687 -0.5213 -2.5164
 9630TIP3   OH250304   6.228   6.727   2.095  0.2799 -0.6864 -0.2743
 9630TIP3    H150305   6.268   6.738   2.181 -0.5897  0.8348 -0.0301
 9630TIP3    H250306   6.141   6.766   2.104  0.4666  0.2209 -2.0415
 9631TIP3   OH250307   1.425   3.701  15.643 -0.1334  0.3135  0.5200
 9631TIP3    H150308   1.407   3.696  15.549  0.2163  0.5249  0.4439
 9631TIP3    H250309   1.503   3.647  15.656 -1.1647 -1.1438  0.9531
 9632TIP3   OH250310   3.199   1.524   3.220  0.3007 -0.2454 -0.1155
 9632TIP3    H150311   3.154   1.605   3.244  1.5987  0.0872  1.2644
 9632TIP3    H250312   3.141   1.455   3.251 -0.5170  0.1304 -0.7487
 9633TIP3   OH250313   6.516   0.784  13.461 -0.3385 -0.5514 -0.1512
 9633TIP3    H150314   6.518   0.777  13.557  0.1969 -0.3684 -0.1488
 9633TIP3    H250315   6.581   0.850  13.440  1.0647 -2.0474 -0.7650
 9634TIP3   OH250316   2.342   1.224  15.370  0.3550 -0.3406  0.7173
 9634TIP3    H150317   2.379   1.146  15.411  0.5876 -0.0359  1.0977
 9634TIP3    H250318   2.391   1.235  15.289  0.4210 -0.5118  0.7343
 9635TIP3   OH250319   3.879   5.567  11.933  0.0198  0.1080 -0.1927
 9635TIP3    H150320   3.892   5.494  11.994  0.0782  0.2576 -0.0242
 9635TIP3    H250321   3.920   5.538  11.852 -1.5341 -0.7953 -0.7069
 9636TIP3   OH250322   0.029   6.025  16.450 -0.2908 -0.2017 -0.0816
 9636TIP3    H150323  -0.047   5.977  16.416  0.5556 -1.2220 -0.5966
 9636TIP3    H250324  -0.005   6.111  16.473 -2.2276 -1.5076  2.3885
 9637TIP3   OH250325   4.183   3.364  13.347  0.4092  0.3765 -0.1272
 9637TIP3    H150326   4.221   3.321  13.423  0.2518 -1.6730 -1.1452
 9637TIP3    H250327   4.089   3.367  13.365  0.7319  4.2047  1.7791
 9638TIP3   OH250328   2.318   3.123  14.084 -0.1843 -0.1650 -0.2822
 9638TIP3    H150329   2.258   3.191  14.054  2.1371  1.7246 -0.9679
 9638TIP3    H250330   2.299   3.048  14.028 -1.5032  0.5629 -0.8449
 9639TIP3   OH250331   0.080   6.454  13.167  0.0423  0.1086 -0.1133
 9639TIP3    H150332   0.051   6.542  13.187  4.0942  1.4176  0.9525
 9639TIP3    H250333   0.078   6.408  13.251  1.1528  0.3331  0.0590
 9640TIP3   OH250334   4.782   0.296   0.510 -0.6074  0.0813 -0.1622
 9640TIP3    H150335   4.744   0.259   0.589  1.0166 -0.5049  0.3920
 9640TIP3    H250336   4.847   0.359   0.543  2.0696 -2.1149 -0.8558
 9641TIP3   OH250337   4.090   1.156  15.743 -0.2124  0.0490 -0.0232
 9641TIP3    H150338   4.172   1.196  15.772 -0.4318  0.4277  0.0755
 9641TIP3    H250339   4.105   1.062  15.753  0.5593  0.0663 -0.9247
 9642TIP3   OH250340   3.830   2.201   2.928 -0.5696  0.3416 -0.1949
 9642TIP3    H150341   3.800   2.279   2.881 -1.7126  0.3472  0.5177
 9642TIP3    H250342   3.761   2.136   2.914  0.1234 -0.3870 -0.3377
 9643TIP3   OH250343   5.603   6.457   5.501 -0.1388  0.0732  0.6590
 9643TIP3    H150344   5.594   6.496   5.588 -0.3181 -1.5556  1.4248
 9643TIP3    H250345   5.680   6.400   5.508  1.2345  1.6234 -0.9734
 9644TIP3   OH250346   6.784   5.952   2.509 -0.7450  0.4545  0.2966
 9644TIP3    H150347   6.745   5.927   2.593 -1.7694  1.4114  0.1269
 9644TIP3    H250348   6.800   6.046   2.518  0.0902  0.3699 -0.2215
 9645TIP3   OH250349   3.219   1.723   3.741 -0.5541  0.6218  0.0331
 9645TIP3    H150350   3.168   1.701   3.819 -1.1753  1.6492 -0.0717
 9645TIP3    H250351   3.250   1.812   3.756 -0.0581  0.5586 -0.5726
 9646TIP3   OH250352   0.077   3.793   2.929 -0.2489  0.1792 -0.4522
 9646TIP3    H150353   0.139   3.777   3.000  1.0560  2.0639 -1.0749
 9646TIP3    H250354   0.106   3.736   2.858  0.3717  0.5421 -0.4966
 9647TIP3   OH250355   2.055   3.018  16.798  0.3123 -0.6298  0.2547
 9647TIP3    H150356   2.073   3.112  16.793  1.9038 -0.9279 -0.1853
 9647TIP3    H250357   2.055   2.989  16.707 -0.9318 -0.9519  0.3356
 9648TIP3   OH250358   5.037   1.761  16.557  0.2354  0.4561  0.4166
 9648TIP3    H150359   5.063   1.721  16.640 -0.2907  0.9708  0.8349
 9648TIP3    H250360   5.118   1.797  16.521  0.3770  0.6681  0.9403
 9649TIP3   OH250361   2.067   4.573  14.715 -0.0473 -0.1664 -0.1297
 9649TIP3    H150362   2.055   4.649  14.771  2.6836  0.7606 -0.6237
 9649TIP3    H250363   2.109   4.508  14.772 -0.2831 -0.4490 -0.2757
 9650TIP3   OH250364   5.502   1.581  13.975  0.2618  0.5394 -0.4586
 9650TIP3    H150365   5.491   1.486  13.986 -0.8096  0.6023 -0.8308
 9650TIP3    H250366   5.492   1.595  13.881 -1.0264  1.1768 -0.2496
 9651TIP3   OH250367   1.643   5.059   1.307 -0.2958 -0.0382  0.1503
 9651TIP3    H150368   1.640   4.985   1.247  0.0694 -0.1290  0.2343
 9651TIP3    H250369   1.654   5.018   1.394  0.8816  0.1239  0.1044
 9652TIP3   OH250370   0.548   4.985  10.486  0.4643  0.0895  0.1322
 9652TIP3    H150371   0.541   4.955  10.395  0.0535  1.3564 -0.2780
 9652TIP3    H250372   0.639   4.965  10.510  0.6050 -0.1912 -0.5854
 9653TIP3   OH250373   3.414   0.801   4.440  0.0414  0.5124  0.1312
 9653TIP3    H150374   3.343   0.863   4.426  0.1922  0.4507 -1.0112
 9653TIP3    H250375   3.420   0.792   4.535 -1.8400  0.1015  0.2556
 9654TIP3   OH250376   0.627   4.154  13.613  0.6586  0.8237 -0.4327
 9654TIP3    H150377   0.544   4.198  13.630 -0.1838 -0.9046  0.2040
 9654TIP3    H250378   0.603   4.080  13.555  1.7728  0.4081 -0.3798
 9655TIP3   OH250379   4.828   0.387  12.730  0.7103  0.0009  0.1626
 9655TIP3    H150380   4.805   0.479  12.720  2.1975  0.2675 -1.2530
 9655TIP3    H250381   4.744   0.343  12.742  0.0495  1.6373  2.0576
 9656TIP3   OH250382   0.486   1.097  15.014 -0.3717 -0.0027 -0.2774
 9656TIP3    H150383   0.519   1.007  15.019 -0.1148  0.1245  0.4523
 9656TIP3    H250384   0.395   1.091  15.042  0.4958  0.3965  3.1245
 9657TIP3   OH250385   5.765   2.075  14.809 -0.2028 -0.2256  0.3387
 9657TIP3    H150386   5.713   2.027  14.745 -0.3123 -0.4076  0.5650
 9657TIP3    H250387   5.724   2.056  14.893  0.5389 -0.8025  0.5864
 9658TIP3   OH250388   4.292   2.155  11.986 -0.4972 -0.0003 -0.2282
 9658TIP3    H150389   4.312   2.175  12.078 -1.5904  1.2731 -0.2401
 9658TIP3    H250390   4.226   2.086  11.991 -1.4250  0.8799 -0.0050
 9659TIP3   OH250391   1.381   6.757  11.748 -0.4521 -0.1244 -0.1563
 9659TIP3    H150392   1.340   6.685  11.699  0.6978 -0.0663 -1.2408
 9659TIP3    H250393   1.390   6.722  11.837  2.9420 -2.6430 -1.2792
 9660TIP3   OH250394   4.881   5.415  16.982 -0.5273  0.0035  0.3775
 9660TIP3    H150395   4.943   5.370  17.040 -0.4636 -2.3779 -1.4213
 9660TIP3    H250396   4.812   5.351  16.966 -2.5661  1.9611  0.8408
 9661TIP3   OH250397   0.312   2.606  14.232 -0.6651  0.0232 -0.2339
 9661TIP3    H150398   0.394   2.563  14.257 -1.1970  0.4610  2.6292
 9661TIP3    H250399   0.276   2.551  14.163  2.0779 -0.0813 -1.7401
 9662TIP3   OH250400   0.863   4.241   2.727 -0.0642 -0.3424 -0.0567
 9662TIP3    H150401   0.774   4.254   2.693 -0.0157  2.0477  0.5774
 9662TIP3    H250402   0.920   4.261   2.653 -0.0263  2.0842  0.5456
 9663TIP3   OH250403   0.063   4.053   1.525  0.1229 -0.3933  0.3716
 9663TIP3    H150404   0.111   4.136   1.518 -0.2040 -0.1221  1.2325
 9663TIP3    H250405  -0.007   4.071   1.588 -0.6420 -1.0081 -0.2760
 9664TIP3   OH250406   0.545   4.858   1.377  0.2670  0.3106  0.4553
 9664TIP3    H150407   0.515   4.768   1.386  1.0169 -0.0272 -0.3540
 9664TIP3    H250408   0.631   4.852   1.335  0.6988  1.3577  1.1325
 9665TIP3   OH250409   5.499   2.682   3.352  0.1896 -0.6053 -0.4934
 9665TIP3    H150410   5.565   2.751   3.353 -0.8393  0.4089  0.0714
 9665TIP3    H250411   5.469   2.678   3.443 -0.6718 -0.9042 -0.7898
 9666TIP3   OH250412   1.333   3.937  15.434  0.0400 -0.4983 -0.6085
 9666TIP3    H150413   1.315   3.955  15.341 -0.0713  1.9088 -0.1934
 9666TIP3    H250414   1.247   3.920  15.471 -0.1064  0.1279 -0.6552
 9667TIP3   OH250415   4.667   6.801   6.134  0.0632  0.3150  1.2879
 9667TIP3    H150416   4.654   6.866   6.203  0.4306 -0.1824  1.8340
 9667TIP3    H250417   4.613   6.727   6.159  0.1415  0.1604  1.0054
 9668TIP3   OH250418   4.159   5.720  14.939  0.1317 -0.7146 -0.7349
 9668TIP3    H150419   4.066   5.698  14.941 -0.3735  1.1776  1.5743
 9668TIP3    H250420   4.190   5.702  15.027  1.9586 -1.1801 -1.4308
 9669TIP3   OH250421   4.192   4.073   0.545 -0.2866 -0.4566 -0.6044
 9669TIP3    H150422   4.164   3.982   0.535 -0.3494 -0.4182 -0.7891
 9669TIP3    H250423   4.116   4.125   0.518 -0.7378 -0.3339  0.8502
 9670TIP3   OH250424   6.423   5.356  12.449 -0.3127 -0.0348 -0.4351
 9670TIP3    H150425   6.434   5.359  12.354 -1.5229  0.5467 -0.5725
 9670TIP3    H250426   6.435   5.446  12.478 -2.0006  0.1791 -0.3095
 9671TIP3   OH250427   2.665   1.253  13.926 -0.1070  0.2071  0.3498
 9671TIP3    H150428   2.677   1.178  13.867 -0.7354 -0.3620  0.9214
 9671TIP3    H250429   2.637   1.214  14.008  1.3006  0.9371  1.2237
 9672TIP3   OH250430   6.813   6.050   0.480  0.0895 -0.3374 -0.1813
 9672TIP3    H150431   6.757   6.020   0.409  0.6885 -0.4459 -0.6138
 9672TIP3    H250432   6.892   5.995   0.474  0.4537  0.1459  0.1062
 9673TIP3   OH250433   3.053   2.358  13.722  0.3593 -0.0006  0.1525
 9673TIP3    H150434   2.981   2.318  13.674  0.0991 -0.3426  0.8185
 9673TIP3    H250435   3.129   2.303  13.704  1.2670  2.0342 -3.0719
 9674TIP3   OH250436   5.848   4.952  11.026  0.5095  0.0312 -0.3383
 9674TIP3    H150437   5.855   4.988  11.114  0.0672 -0.3432 -0.1416
 9674TIP3    H250438   5.866   5.025  10.968 -0.8251  0.6980  0.0437
 9675TIP3   OH250439   1.574   0.400  12.228 -0.6578  0.7324  0.3433
 9675TIP3    H150440   1.580   0.436  12.316  1.9765  0.0938  0.5066
 9675TIP3    H250441   1.546   0.474  12.173  0.5901  1.9471  1.2841
 9676TIP3   OH250442   2.179   1.680  15.989 -0.8301  0.5606 -0.0471
 9676TIP3    H150443   2.171   1.671  16.084 -0.0801 -0.2266 -0.0497
 9676TIP3    H250444   2.270   1.702  15.974 -0.8205  0.1666 -0.6150
 9677TIP3   OH250445   1.984   2.177  13.196 -0.1181 -0.2757 -0.3071
 9677TIP3    H150446   2.034   2.252  13.164 -1.6233  0.6958 -0.4829
 9677TIP3    H250447   2.001   2.176  13.290  0.3354 -0.0349 -0.3830
 9678TIP3   OH250448   4.652   2.630  12.676  0.3219 -0.4343  0.3675
 9678TIP3    H150449   4.734   2.594  12.708  0.9850 -0.1635 -0.9662
 9678TIP3    H250450   4.676   2.679  12.598 -1.2753 -1.3812 -0.7645
 9679TIP3   OH250451   3.697   3.141  14.369  0.0618 -0.4958  0.0698
 9679TIP3    H150452   3.614   3.173  14.333  0.7452  0.7904 -0.4409
 9679TIP3    H250453   3.685   3.046  14.378 -2.3140 -0.0918  2.2865
 9680TIP3   OH250454   1.187   6.599  12.638  0.1066  0.4680 -0.1558
 9680TIP3    H150455   1.217   6.651  12.712 -0.9270  1.1480 -0.1940
 9680TIP3    H250456   1.092   6.595  12.648  0.1038 -0.8368 -0.5386
 9681TIP3   OH250457   6.286   4.712  13.937 -0.8300 -0.5516 -0.0426
 9681TIP3    H150458   6.299   4.760  13.855  1.4209 -0.2721  0.4206
 9681TIP3    H250459   6.247   4.629  13.909  0.8266 -0.8818 -1.5711
 9682TIP3   OH250460   2.838   3.921  12.263 -0.4500  0.3318 -0.1365
 9682TIP3    H150461   2.928   3.894  12.243 -0.8207  0.0775 -1.6144
 9682TIP3    H250462   2.810   3.968  12.184 -1.4169  0.9258  0.5467
 9683TIP3   OH250463   0.657   0.662  11.684  0.6756 -0.1399 -0.0360
 9683TIP3    H150464   0.697   0.656  11.771  2.9841 -0.8993 -1.0802
 9683TIP3    H250465   0.683   0.748  11.652  1.1394 -0.4666 -0.5532
 9684TIP3   OH250466   4.544   3.981   6.024 -0.3998  0.9451  0.3819
 9684TIP3    H150467   4.490   3.949   6.097  0.1358 -1.3290 -0.1368
 9684TIP3    H250468   4.632   3.989   6.060 -0.2984  0.6349  0.2092
 9685TIP3   OH250469   4.791   6.386  14.003  0.0639 -0.3141  0.5401
 9685TIP3    H150470   4.749   6.300  13.999  1.0300 -0.7939  0.6198
 9685TIP3    H250471   4.884   6.368  14.018  0.5432  0.7019 -0.9981
 9686TIP3   OH250472   2.080   4.078   0.579  0.2401 -0.5132  0.3559
 9686TIP3    H150473   2.167   4.111   0.602  0.8154 -0.5588 -1.5829
 9686TIP3    H250474   2.062   4.011   0.644  1.4393 -0.1456  1.0943
 9687TIP3   OH250475   4.674   3.006   2.027  0.5838 -0.0658  0.5462
 9687TIP3    H150476   4.598   2.948   2.027  2.4758 -2.7276  0.0880
 9687TIP3    H250477   4.680   3.038   2.117  0.4317 -1.9708  1.2752
 9688TIP3   OH250478   3.060   6.271   5.238 -0.7339  0.1245  0.2093
 9688TIP3    H150479   3.117   6.199   5.211 -2.2635 -0.7928 -0.7552
 9688TIP3    H250480   3.033   6.249   5.327 -2.0062 -1.0765 -0.4418
 9689TIP3   OH250481   1.799   2.441   6.064  0.0234 -0.0552  0.1368
 9689TIP3    H150482   1.723   2.500   6.059  0.5854  0.7002  0.2258
 9689TIP3    H250483   1.872   2.495   6.034  1.1710  0.4219  3.3653
 9690TIP3   OH250484   5.048   6.171   5.370 -0.3728  0.5391 -0.6115
 9690TIP3    H150485   5.020   6.166   5.462 -0.3095  2.7937 -0.4058
 9690TIP3    H250486   5.103   6.094   5.358 -1.9321 -0.8739  0.6545
 9691TIP3   OH250487   3.093   0.117   5.668 -0.5039  0.0986  0.2243
 9691TIP3    H150488   3.081   0.152   5.757 -4.7834  1.3951 -0.6541
 9691TIP3    H250489   3.129   0.190   5.618  0.7474 -0.2532  0.5738
 9692TIP3   OH250490   3.739   6.357   0.598  0.0271  0.8456  0.7306
 9692TIP3    H150491   3.730   6.449   0.574  0.2115  0.9549  1.0815
 9692TIP3    H250492   3.833   6.341   0.600  0.0520  1.0967  2.3476
 9693TIP3   OH250493   0.430   2.899  15.627  0.3347  0.3082 -0.2999
 9693TIP3    H150494   0.388   2.951  15.559  0.4586 -0.7071 -1.1768
 9693TIP3    H250495   0.365   2.832  15.650  0.3363  0.5727  0.5074
 9694TIP3   OH250496   3.493   1.079   3.759  0.0557  0.1583 -0.0666
 9694TIP3    H150497   3.548   1.014   3.804 -0.8861 -0.9942 -0.5128
 9694TIP3    H250498   3.409   1.034   3.748 -0.2152  0.9948 -1.5691
 9695TIP3   OH250499   3.376   1.095  16.018  0.4006 -0.3273  0.3563
 9695TIP3    H150500   3.373   1.109  16.113  0.9734  0.7541  0.2299
 9695TIP3    H250501   3.410   1.177  15.983 -0.7758 -0.3308 -0.8741
 9696TIP3   OH250502   5.408   4.957   2.055  0.2960 -0.0293  0.4531
 9696TIP3    H150503   5.346   4.890   2.027  1.0630 -0.0061 -1.4535
 9696TIP3    H250504   5.436   5.000   1.974  0.8180  1.7374  1.4940
 9697TIP3   OH250505   4.613   1.292   0.906 -0.0186 -0.4078  0.1351
 9697TIP3    H150506   4.682   1.256   0.850  0.6577  0.1700  0.5712
 9697TIP3    H250507   4.620   1.387   0.894 -0.7766 -0.3445  0.1524
 9698TIP3   OH250508   1.643   4.598  14.079 -0.3117 -0.0505 -0.0160
 9698TIP3    H150509   1.668   4.682  14.118 -0.4180 -0.1549  0.2729
 9698TIP3    H250510   1.672   4.532  14.142 -1.3495 -0.1793  0.3434
 9699TIP3   OH250511   3.331   0.480   1.875 -0.3917 -0.0004 -0.3324
 9699TIP3    H150512   3.266   0.422   1.915  0.8704  0.0408  1.9058
 9699TIP3    H250513   3.279   0.549   1.834 -1.8148  0.2514  1.7325
 9700TIP3   OH250514   4.078   5.451  13.268  0.1756  0.1491 -0.1385
 9700TIP3    H150515   4.157   5.402  13.245  0.6523  1.2297 -0.9276
 9700TIP3    H250516   4.038   5.473  13.183 -0.4007  0.5025  0.2191
 9701TIP3   OH250517   3.325   2.827  14.390 -0.7126  0.1473 -0.3465
 9701TIP3    H150518   3.338   2.743  14.346 -1.3598  1.1089 -2.5278
 9701TIP3    H250519   3.335   2.807  14.483 -2.6208 -2.7193 -0.6051
 9702TIP3   OH250520   2.944   4.298   5.246 -0.1483  0.6103  0.1857
 9702TIP3    H150521   2.866   4.289   5.192 -0.0298  1.2658 -0.0951
 9702TIP3    H250522   2.934   4.383   5.289  0.1113  0.4193  0.6368
 9703TIP3   OH250523   4.224   4.456  14.269 -0.6151  0.7745 -0.4202
 9703TIP3    H150524   4.304   4.414  14.237 -1.0777  0.3499 -1.0365
 9703TIP3    H250525   4.225   4.542  14.226 -0.4422  0.8093 -0.3497
 9704TIP3   OH250526   5.948   4.388   1.306  0.2822 -0.1778  0.7667
 9704TIP3    H150527   6.002   4.404   1.383 -0.8183  0.9614  1.3418
 9704TIP3    H250528   5.896   4.468   1.297 -0.5981 -0.8584 -0.3294
 9705TIP3   OH250529   3.462   5.401   5.529  0.1310 -0.3042 -0.4168
 9705TIP3    H150530   3.470   5.453   5.609  0.9934 -0.0772 -0.6368
 9705TIP3    H250531   3.531   5.435   5.471  0.8036 -1.7510 -0.5186
 9706TIP3   OH250532   1.329   2.335  14.904  0.6088  0.1374  0.4827
 9706TIP3    H150533   1.246   2.312  14.863 -0.3044 -0.3365  2.4602
 9706TIP3    H250534   1.382   2.256  14.896  0.5409  0.1344  0.0206
 9707TIP3   OH250535   2.872   3.503   2.448 -0.0870  0.0556  0.2840
 9707TIP3    H150536   2.954   3.474   2.406  0.0966 -0.2784  0.8653
 9707TIP3    H250537   2.826   3.551   2.379  0.2286 -0.4502 -0.2941
 9708TIP3   OH250538   2.641   3.229  16.562  0.3388  0.1320  0.4131
 9708TIP3    H150539   2.683   3.285  16.497  0.4808 -0.0168  0.3768
 9708TIP3    H250540   2.591   3.289  16.617 -1.9964  0.0379 -1.4439
 9709TIP3   OH250541   6.698   4.591   3.608 -0.3660  0.3309 -0.0968
 9709TIP3    H150542   6.768   4.637   3.654 -1.8205  0.7958  1.7572
 9709TIP3    H250543   6.627   4.656   3.601 -0.6971 -0.1511 -1.8439
 9710TIP3   OH250544   1.048   5.536  15.296  0.2295 -0.3485 -0.3015
 9710TIP3    H150545   1.100   5.485  15.359  0.0808 -0.7435 -0.4954
 9710TIP3    H250546   1.103   5.543  15.219 -0.5089 -1.9310 -1.0126
 9711TIP3   OH250547   3.561   2.244  16.024  0.1538  0.0168 -0.1176
 9711TIP3    H150548   3.602   2.280  16.103 -0.0273  0.5290 -0.2501
 9711TIP3    H250549   3.633   2.206  15.974  0.6795  1.9048 -0.8931
 9712TIP3   OH250550   1.603   4.430  16.283  0.5566 -0.0198  0.0142
 9712TIP3    H150551   1.650   4.509  16.312  0.5626  0.2281 -0.6506
 9712TIP3    H250552   1.602   4.437  16.187  0.7064 -0.9147 -0.0593
 9713TIP3   OH250553   6.279   3.205   1.126  0.6109 -0.2443 -0.0098
 9713TIP3    H150554   6.253   3.120   1.162 -0.9782  0.4557  0.5718
 9713TIP3    H250555   6.373   3.211   1.145  0.3242 -0.9846  1.8347
 9714TIP3   OH250556   6.407   3.965   2.322 -0.4074  0.9707  0.2224
 9714TIP3    H150557   6.377   4.029   2.258 -0.4850  1.3447  0.6264
 9714TIP3    H250558   6.472   3.913   2.275 -1.6679  0.1509 -0.6682
 9715TIP3   OH250559   5.529   6.348  10.602  0.3752 -0.8964 -1.0885
 9715TIP3    H150560   5.438   6.371  10.618  0.8504 -0.1009  0.6589
 9715TIP3    H250561   5.532   6.253  10.611 -0.1685 -0.8585 -0.4287
 9716TIP3   OH250562   3.184   6.204  13.958 -0.2070 -0.6010  0.4407
 9716TIP3    H150563   3.195   6.152  14.038 -1.9594  0.2901  1.3232
 9716TIP3    H250564   3.229   6.287  13.977  1.7351 -1.3631 -0.5885
 9717TIP3   OH250565   5.263   0.540  11.891 -0.3033 -0.1385  0.2565
 9717TIP3    H150566   5.277   0.626  11.931  1.0564  0.0344 -0.5301
 9717TIP3    H250567   5.347   0.518  11.851 -1.5530 -0.3178 -2.4896
 9718TIP3   OH250568   4.551   4.354  10.499 -0.0879 -0.0931  0.0653
 9718TIP3    H150569   4.614   4.330  10.567  0.2179  0.9084  0.1547
 9718TIP3    H250570   4.603   4.362  10.419  0.1928  2.0418  0.3910
 9719TIP3   OH250571   6.375   4.368  10.923  0.2011  0.5213 -0.2220
 9719TIP3    H150572   6.314   4.330  10.860  1.9436 -0.6313 -1.3153
 9719TIP3    H250573   6.367   4.463  10.910 -0.3559  0.3422 -1.3220
 9720TIP3   OH250574   4.177   0.564   6.109  0.2067 -0.4381  0.3424
 9720TIP3    H150575   4.190   0.480   6.152 -1.9097 -2.1707 -2.0852
 9720TIP3    H250576   4.084   0.564   6.084 -0.0373  2.9445  0.8173
 9721TIP3   OH250577   0.482   3.640   0.024  0.1167 -0.0992 -0.1870
 9721TIP3    H150578   0.476   3.654   0.118  0.3227 -1.3788  0.0238
 9721TIP3    H250579   0.391   3.631  -0.005  0.0752 -0.0876 -0.0602
 9722TIP3   OH250580   2.879   6.076  12.415  0.2445  0.5173  0.3868
 9722TIP3    H150581   2.829   6.037  12.343  1.3898 -1.0082  0.3761
 9722TIP3    H250582   2.869   6.170  12.401  0.2137  0.2794 -1.6271
 9723TIP3   OH250583   1.499   1.031  11.694 -0.2196  0.1549 -0.3900
 9723TIP3    H150584   1.477   0.964  11.630  1.0062 -1.1810  0.5256
 9723TIP3    H250585   1.432   1.023  11.762 -1.4273  1.4662 -1.3644
 9724TIP3   OH250586   5.469   1.191   6.271  1.0513  0.2318  0.2808
 9724TIP3    H150587   5.437   1.236   6.349  0.9138  0.6390 -0.0081
 9724TIP3    H250588   5.397   1.133   6.245  0.8356  0.5973  0.0627
 9725TIP3   OH250589   6.064   6.520  14.464  0.0627  0.4836 -0.4227
 9725TIP3    H150590   6.129   6.456  14.494  0.9166  1.6204  0.2290
 9725TIP3    H250591   6.036   6.487  14.379  0.2549 -0.9143  0.0179
 9726TIP3   OH250592   6.140   4.934  14.822  0.6359 -0.4475  0.4057
 9726TIP3    H150593   6.184   5.013  14.854  1.1849  0.0502 -1.4297
 9726TIP3    H250594   6.210   4.883  14.781 -0.0615 -0.8569 -0.3106
 9727TIP3   OH250595   2.846   5.077   3.386 -1.1012  0.1155 -0.5987
 9727TIP3    H150596   2.831   5.170   3.400 -0.3899  0.0528  0.7236
 9727TIP3    H250597   2.848   5.039   3.474  1.8714 -0.5980 -0.8621
 9728TIP3   OH250598   5.997   6.701   3.849  0.3099  0.0741  0.0505
 9728TIP3    H150599   6.020   6.644   3.923  0.5961  0.4666  0.2632
 9728TIP3    H250600   5.960   6.641   3.784  1.0167 -0.4227  0.1021
 9729TIP3   OH250601   6.557   0.961  11.972 -0.3813 -0.1047  0.2181
 9729TIP3    H150602   6.543   1.015  12.049  1.5221  1.2293 -0.2945
 9729TIP3    H250603   6.652   0.946  11.970 -0.5744 -1.4454 -1.0042
 9730TIP3   OH250604   5.632   4.008   5.018  0.5436  0.5931  0.2750
 9730TIP3    H150605   5.618   4.037   4.928  0.2697  1.3345  0.5495
 9730TIP3    H250606   5.617   3.913   5.016 -3.2117  1.0317  0.2446
 9731TIP3   OH250607   4.026   0.552  17.019  0.3062  0.1688 -0.1568
 9731TIP3    H150608   3.960   0.490  17.051  1.4982 -0.9465  0.2173
 9731TIP3    H250609   3.986   0.591  16.941 -1.3811  0.6153  0.8852
 9732TIP3   OH250610   2.891   6.403  13.079 -0.1111  0.0584 -0.2122
 9732TIP3    H150611   2.840   6.464  13.025 -0.3090  0.2560  0.1980
 9732TIP3    H250612   2.832   6.329  13.093 -0.0495 -0.0047 -0.2823
 9733TIP3   OH250613   0.967   5.805  14.275 -0.2233 -0.1045 -0.2089
 9733TIP3    H150614   0.947   5.758  14.356  0.4692 -0.1061 -0.0306
 9733TIP3    H250615   1.059   5.829  14.284 -0.4894  1.0502 -0.4182
 9734TIP3   OH250616   1.103   3.775   4.464  0.2838 -0.2129  0.6386
 9734TIP3    H150617   1.012   3.776   4.434  0.5184  1.7925 -0.1436
 9734TIP3    H250618   1.146   3.711   4.407 -0.4693 -0.6160  0.5090
 9735TIP3   OH250619   3.519   3.754   4.953 -0.1482  0.0884 -0.2402
 9735TIP3    H150620   3.500   3.838   4.912 -1.1394 -0.0090 -0.0189
 9735TIP3    H250621   3.531   3.694   4.880 -0.1065  0.2905 -0.4000
 9736TIP3   OH250622   5.986   5.459   0.575  0.6785  0.2092  0.8787
 9736TIP3    H150623   6.004   5.474   0.668  1.3402 -0.6628  0.9077
 9736TIP3    H250624   5.988   5.546   0.536  1.0949  0.5198  1.5667
 9737TIP3   OH250625   1.787   1.959   6.112  0.2214 -0.1672  0.0540
 9737TIP3    H150626   1.734   1.990   6.186  3.3071  1.0435  1.9928
 9737TIP3    H250627   1.858   2.023   6.105  2.2188 -2.3427 -1.4015
 9738TIP3   OH250628   4.595   0.349   5.553  0.5059 -0.1201  0.2226
 9738TIP3    H150629   4.656   0.280   5.527 -1.0769 -2.1412  1.6526
 9738TIP3    H250630   4.532   0.354   5.481  1.6662  1.2694 -0.7782
 9739TIP3   OH250631   4.169   6.158  16.331 -0.2435  0.1811  0.3392
 9739TIP3    H150632   4.263   6.150  16.349 -0.0268 -0.4659 -0.9560
 9739TIP3    H250633   4.134   6.201  16.408  1.2090  0.9316  0.6217
 9740TIP3   OH250634   4.405   6.225  14.285  0.2116 -0.3349 -0.5425
 9740TIP3    H150635   4.322   6.272  14.296 -0.2433 -1.2134 -0.1837
 9740TIP3    H250636   4.468   6.276  14.337 -0.5034 -0.6955  0.7239
 9741TIP3   OH250637   4.291   0.636   3.346  0.2348 -0.4631 -0.0729
 9741TIP3    H150638   4.266   0.634   3.253  1.5012  1.2519 -0.4928
 9741TIP3    H250639   4.383   0.610   3.347 -0.1611 -1.9619  0.9114
 9742TIP3   OH250640   6.537   3.698   4.177  0.2963 -0.0188 -0.6070
 9742TIP3    H150641   6.453   3.654   4.194  0.5099 -0.6733 -1.1809
 9742TIP3    H250642   6.566   3.730   4.262 -0.3413 -0.1428 -0.3381
 9743TIP3   OH250643   6.266   6.262  12.081  0.2464  0.2229  0.0017
 9743TIP3    H150644   6.306   6.329  12.025  1.9350  0.4592  1.4242
 9743TIP3    H250645   6.197   6.308  12.128 -0.8590  0.1386 -1.4752
 9744TIP3   OH250646   0.715   4.490   1.966  0.1853  0.1047  0.2307
 9744TIP3    H150647   0.687   4.460   1.879  1.7718 -0.1323 -0.2358
 9744TIP3    H250648   0.776   4.423   1.996  0.7034  0.8674  0.9189
 9745TIP3   OH250649   0.538   0.070   1.315  0.2587 -0.0234 -0.2099
 9745TIP3    H150650   0.467   0.108   1.367  1.4430 -0.4646  1.8475
 9745TIP3    H250651   0.615   0.077   1.372  1.6830 -0.3515 -2.0272
 9746TIP3   OH250652   6.155   1.010   1.864 -0.0142 -0.0676 -0.0609
 9746TIP3    H150653   6.140   0.959   1.784  0.8335 -2.1997  1.0924
 9746TIP3    H250654   6.068   1.042   1.888 -0.2218  1.1358 -2.1070
 9747TIP3   OH250655   4.743   4.573   1.538  0.1790  0.2078 -0.3957
 9747TIP3    H150656   4.809   4.584   1.606  0.3120 -1.0885 -0.2821
 9747TIP3    H250657   4.773   4.628   1.466  1.9700 -1.1391 -0.7424
 9748TIP3   OH250658   4.033   6.766  13.519 -0.1951 -0.8972  0.3831
 9748TIP3    H150659   4.019   6.671  13.525 -0.2681 -0.8353  1.2418
 9748TIP3    H250660   4.094   6.786  13.590  0.1046 -0.3523 -0.0215
 9749TIP3   OH250661   1.126   0.546  14.504 -0.3941 -0.3530  0.0276
 9749TIP3    H150662   1.092   0.628  14.540 -1.6522 -0.1631 -1.4468
 9749TIP3    H250663   1.150   0.494  14.580  1.0997  1.6288  0.9892
 9750TIP3   OH250664   5.519   4.416   6.207 -0.4675  0.1523 -0.1010
 9750TIP3    H150665   5.463   4.368   6.267 -0.5750 -0.7872 -0.9202
 9750TIP3    H250666   5.579   4.465   6.263 -1.8355  0.8748  0.7892
 9751TIP3   OH250667   6.453   3.855   5.752  0.6653  0.5511  0.1556
 9751TIP3    H150668   6.480   3.871   5.842 -2.4604  0.4246  1.2384
 9751TIP3    H250669   6.428   3.762   5.751  0.3772  0.6264 -0.7519
 9752TIP3   OH250670   2.294   6.062  13.366  0.0199 -0.1206 -0.0397
 9752TIP3    H150671   2.340   5.979  13.350  0.9533  0.7490 -2.2084
 9752TIP3    H250672   2.361   6.120  13.403 -0.1858  0.1864 -0.1441
 9753TIP3   OH250673   2.507   1.585   6.326  0.3079  0.0464 -0.1536
 9753TIP3    H150674   2.476   1.510   6.276  3.1176 -2.0328  0.9395
 9753TIP3    H250675   2.439   1.652   6.314 -1.0269 -1.6589 -3.4246
 9754TIP3   OH250676   4.260   3.788   3.943  0.5074 -0.2563 -0.5898
 9754TIP3    H150677   4.292   3.744   4.022 -0.8407 -2.4317 -1.1557
 9754TIP3    H250678   4.339   3.816   3.897  1.4896 -2.1317 -0.1493
 9755TIP3   OH250679   4.111   5.349  16.877 -0.4467  0.5155  0.4439
 9755TIP3    H150680   4.030   5.394  16.854  1.1923  3.1730 -0.6139
 9755TIP3    H250681   4.180   5.413  16.859  1.8123 -1.0328  2.8096
 9756TIP3   OH250682   6.754   3.832  10.794  0.1236  0.0332 -0.1509
 9756TIP3    H150683   6.690   3.791  10.735  0.8166 -0.0261 -0.8785
 9756TIP3    H250684   6.762   3.922  10.762 -1.2280  0.7162  1.3046
 9757TIP3   OH250685   0.444   6.418   2.705 -0.1140  0.1595  0.2347
 9757TIP3    H150686   0.501   6.370   2.644  2.0737  1.4972  1.0899
 9757TIP3    H250687   0.465   6.381   2.791 -2.0390 -0.6518  0.4010
 9758TIP3   OH250688   3.947   3.112   3.323  0.2101 -0.1269  0.0335
 9758TIP3    H150689   4.001   3.144   3.395  1.4313 -1.8458 -0.0462
 9758TIP3    H250690   4.009   3.097   3.252 -1.0091  1.7459 -1.5051
 9759TIP3   OH250691   0.702   5.262   5.611 -0.1516 -0.2831  0.3690
 9759TIP3    H150692   0.796   5.259   5.593 -0.2582  0.9098 -0.4702
 9759TIP3    H250693   0.695   5.309   5.694 -0.0323  0.0303  0.2014
 9760TIP3   OH250694   6.138   4.276   0.533 -0.8059  0.0405  0.1505
 9760TIP3    H150695   6.161   4.352   0.587  0.7611 -0.3779  0.1136
 9760TIP3    H250696   6.177   4.294   0.448  0.1945 -1.1041  0.3443
 9761TIP3   OH250697   0.985   2.008  13.750  0.1078 -0.2011 -0.4538
 9761TIP3    H150698   1.079   1.989  13.748  0.4988  1.5476 -0.8876
 9761TIP3    H250699   0.974   2.063  13.828 -0.4604 -0.0277 -0.6518
 9762TIP3   OH250700   2.191   4.421  10.969 -0.3114 -0.0500 -0.5932
 9762TIP3    H150701   2.196   4.448  11.060 -1.9771 -0.0874 -0.4777
 9762TIP3    H250702   2.131   4.347  10.969  0.7114 -0.9147 -1.5464
 9763TIP3   OH250703   6.438   5.002   5.836 -0.4895  0.3049  0.5225
 9763TIP3    H150704   6.531   5.019   5.848  0.0402 -1.5633 -0.4682
 9763TIP3    H250705   6.422   4.918   5.880 -1.2635 -0.3077 -0.8468
 9764TIP3   OH250706   5.572   5.279   5.583  0.2237 -0.2824  0.5623
 9764TIP3    H150707   5.587   5.332   5.660  0.0232  0.9806 -0.2419
 9764TIP3    H250708   5.477   5.282   5.569  0.3528  0.3682 -0.3031
 9765TIP3   OH250709   0.724   4.693  15.711  0.6633 -0.3707  0.5663
 9765TIP3    H150710   0.779   4.728  15.780  2.1280 -0.0794 -0.6959
 9765TIP3    H250711   0.746   4.599  15.708  0.0255 -0.5414  0.9915
 9766TIP3   OH250712   2.983   1.169  12.022  0.9077  0.4076  0.1424
 9766TIP3    H150713   3.003   1.182  12.115 -2.4913 -2.0626  1.4277
 9766TIP3    H250714   3.037   1.095  11.995 -0.2151 -0.7767  1.0681
 9767TIP3   OH250715   6.366   5.670   5.537  0.1406  0.7935  0.2431
 9767TIP3    H150716   6.296   5.619   5.578  0.7967  0.4308  0.9414
 9767TIP3    H250717   6.446   5.641   5.582  0.9371  0.1523 -1.4912
 9768TIP3   OH250718   1.073   5.671  11.508 -0.0165  0.0727 -0.4243
 9768TIP3    H150719   1.021   5.751  11.503 -2.4668 -1.3845  0.0455
 9768TIP3    H250720   1.136   5.688  11.579 -0.7232  1.4542 -0.0921
 9769TIP3   OH250721   0.693   1.964   3.928  0.3176 -0.3567 -0.2776
 9769TIP3    H150722   0.645   2.046   3.912 -1.3174 -0.5097  2.8991
 9769TIP3    H250723   0.631   1.895   3.908  0.8695 -0.7406 -0.6805
 9770TIP3   OH250724   4.263   3.078   5.224 -0.9854 -0.2714  0.0342
 9770TIP3    H150725   4.241   3.004   5.167 -2.2226 -0.8744  1.2110
 9770TIP3    H250726   4.318   3.040   5.292 -1.4091 -0.0640  0.5002
 9771TIP3   OH250727   2.685   1.619  16.162  0.4071  0.0183  0.0686
 9771TIP3    H150728   2.731   1.539  16.137  0.2077  0.0620 -0.4584
 9771TIP3    H250729   2.654   1.602  16.251  0.8149 -0.2862  0.1578
 9772TIP3   OH250730   5.525   6.263  14.198  0.0250  0.0438 -0.4734
 9772TIP3    H150731   5.519   6.336  14.136  1.2972 -1.2055 -2.1684
 9772TIP3    H250732   5.502   6.186  14.147  0.9672 -1.0170  0.6439
 9773TIP3   OH250733   1.881   2.042   4.132 -0.8771 -0.0745  0.0321
 9773TIP3    H150734   1.973   2.034   4.104 -1.4432 -1.2381 -1.6506
 9773TIP3    H250735   1.880   2.119   4.189  0.9235  0.7404 -0.9512
 9774TIP3   OH250736   6.299   1.804  11.865 -0.0676 -0.0359 -0.0421
 9774TIP3    H150737   6.217   1.852  11.861 -0.6632 -1.1232 -2.2221
 9774TIP3    H250738   6.311   1.768  11.777  3.4794  1.2578 -0.2744
 9775TIP3   OH250739   4.722   5.981   5.125 -0.0231 -0.2161 -0.3134
 9775TIP3    H150740   4.736   6.050   5.061  0.0693  0.3354  0.2925
 9775TIP3    H250741   4.641   5.938   5.097  0.7043 -0.8590 -1.5581
 9776TIP3   OH250742   1.806   6.304   4.501  0.1808 -0.7605  0.3812
 9776TIP3    H150743   1.864   6.375   4.473 -0.0260  0.2919  2.3948
 9776TIP3    H250744   1.800   6.315   4.596 -2.3776 -1.5696  0.3789
 9777TIP3   OH250745   2.956   3.756  11.771  0.2255 -0.0137 -0.5994
 9777TIP3    H150746   3.025   3.783  11.833  0.3805 -0.5464 -0.5302
 9777TIP3    H250747   3.002   3.702  11.707 -0.3482 -1.5663  0.2458
 9778TIP3   OH250748   5.815   6.815   2.936  0.4614  0.1891  0.2386
 9778TIP3    H150749   5.871   6.880   2.893  0.8767 -0.7448 -0.6804
 9778TIP3    H250750   5.747   6.796   2.872  0.3878 -0.3253  0.4613
 9779TIP3   OH250751   6.319   5.500  11.483 -0.0260  0.1246  0.2729
 9779TIP3    H150752   6.350   5.431  11.424 -0.8220 -0.7530  0.8542
 9779TIP3    H250753   6.224   5.491  11.481 -0.0481 -0.9146  2.7950
 9780TIP3   OH250754   5.607   5.303   5.871 -0.4318 -1.0124  0.3117
 9780TIP3    H150755   5.590   5.387   5.914  0.0453  0.3684 -2.0268
 9780TIP3    H250756   5.702   5.293   5.873 -0.5487 -2.1792  1.6951
 9781TIP3   OH250757   5.579   1.496  12.667 -0.0723 -0.5091  0.0141
 9781TIP3    H150758   5.503   1.552  12.653  0.6081  0.1437 -1.2510
 9781TIP3    H250759   5.554   1.411  12.630 -0.3668 -0.4523  0.0791
 9782TIP3   OH250760   3.939   3.201  10.821 -0.4814  0.2146 -0.2946
 9782TIP3    H150761   4.001   3.267  10.790  0.3678 -1.2034 -1.7858
 9782TIP3    H250762   3.973   3.118  10.787 -1.9337 -0.9114  0.8450
 9783TIP3   OH250763   5.723   3.945  10.766  0.1999 -0.1179 -0.4951
 9783TIP3    H150764   5.664   3.899  10.707 -1.0234 -1.1391  1.4265
 9783TIP3    H250765   5.750   4.022  10.716 -3.0150  0.5911 -1.4045
 9784TIP3   OH250766   5.709   2.666   3.641  0.1040 -0.5261  0.1526
 9784TIP3    H150767   5.781   2.603   3.653  0.7401  0.2734  0.6199
 9784TIP3    H250768   5.737   2.719   3.566  1.5430  1.8039  2.1865
 9785TIP3   OH250769   6.217   5.899   3.642 -0.5899  0.1105 -0.2698
 9785TIP3    H150770   6.203   5.957   3.717 -1.9441  0.0584 -0.4529
 9785TIP3    H250771   6.297   5.933   3.600 -0.0011  0.3323  0.9942
 9786TIP3   OH250772   0.851   0.789   4.531 -0.2984  0.2113  0.0596
 9786TIP3    H150773   0.828   0.882   4.534 -2.0102 -0.1804  0.2813
 9786TIP3    H250774   0.846   0.766   4.439  0.9874  0.5213 -0.0989
 9787TIP3   OH250775   1.123   2.593   3.353 -0.6725  0.1295  0.3365
 9787TIP3    H150776   1.212   2.571   3.378 -0.9618  0.6337  1.9679
 9787TIP3    H250777   1.070   2.565   3.428 -1.4283  3.1824  1.0852
 9788TIP3   OH250778   1.062   2.202   2.566 -0.3601  0.4890  0.2674
 9788TIP3    H150779   0.991   2.241   2.516  0.6685  1.1422 -0.7286
 9788TIP3    H250780   1.132   2.268   2.564  0.6328 -0.5361  0.3852
 9789TIP3   OH250781   2.195   1.544  15.370 -0.0877  0.2185  0.1494
 9789TIP3    H150782   2.287   1.544  15.399 -0.4676  0.7535  1.4152
 9789TIP3    H250783   2.191   1.611  15.303  0.8318 -1.0834 -1.2832
 9790TIP3   OH250784   1.029   1.262   3.467 -0.5528  0.1032  0.0612
 9790TIP3    H150785   0.963   1.289   3.531 -0.8419  0.3454 -0.3334
 9790TIP3    H250786   0.984   1.199   3.410  0.1799 -1.4022  1.0979
 9791TIP3   OH250787   6.570   1.661   0.692  0.5233  0.3023 -0.1274
 9791TIP3    H150788   6.653   1.708   0.692  1.6894 -1.6388 -1.2518
 9791TIP3    H250789   6.567   1.616   0.777  0.7948  0.0756 -0.2388
 9792TIP3   OH250790   1.720   2.760   0.950 -0.0315  0.1062 -0.1085
 9792TIP3    H150791   1.742   2.787   0.861  0.9033  0.5224  0.2374
 9792TIP3    H250792   1.790   2.797   1.004 -0.3335 -0.5416  0.7422
 9793TIP3   OH250793   6.200   2.726   5.808 -0.1269  1.0415 -0.2746
 9793TIP3    H150794   6.264   2.795   5.789  1.5052 -0.1498  0.5676
 9793TIP3    H250795   6.199   2.719   5.904 -1.6124  1.0790 -0.2623
 9794TIP3   OH250796   4.089   3.116   3.074 -0.1852 -0.5985 -0.3363
 9794TIP3    H150797   4.081   3.211   3.066 -0.5226 -0.4479  1.4739
 9794TIP3    H250798   4.104   3.086   2.984 -0.7543  1.0891 -1.0370
 9795TIP3   OH250799   4.934   2.136  15.502 -0.4279  0.4741  0.0106
 9795TIP3    H150800   4.862   2.087  15.540  1.9232 -1.5811  2.2318
 9795TIP3    H250801   4.924   2.225  15.537 -1.6372  0.1009  0.6526
 9796TIP3   OH250802   1.692   5.603  14.320 -0.3867  0.3274 -0.1796
 9796TIP3    H150803   1.640   5.526  14.297 -2.0087  1.7602 -1.6556
 9796TIP3    H250804   1.688   5.607  14.416 -1.2482 -0.7717 -0.1488
 9797TIP3   OH250805   3.694   5.085  13.121  0.1445  0.9384 -0.0062
 9797TIP3    H150806   3.603   5.100  13.146  0.2502  2.4609 -0.4769
 9797TIP3    H250807   3.693   4.998  13.079 -1.1804  1.1573 -0.4540
 9798TIP3   OH250808   6.566   0.935   1.061 -0.2485  0.0883 -0.1603
 9798TIP3    H150809   6.562   0.986   1.142  0.1177  1.5313 -1.0108
 9798TIP3    H250810   6.559   0.844   1.089 -1.5791  0.6140  1.3780
 9799TIP3   OH250811   2.018   4.499  16.189  0.0308 -0.4116  0.2970
 9799TIP3    H150812   2.105   4.510  16.226 -0.4935  1.0339  1.1796
 9799TIP3    H250813   1.983   4.422  16.233  0.2129  0.0457  1.2789
 9800TIP3   OH250814   0.223   5.628  11.438 -0.5382 -0.0502 -0.3748
 9800TIP3    H150815   0.129   5.616  11.449 -0.3314 -0.7007  0.7526
 9800TIP3    H250816   0.259   5.540  11.441  0.4352  0.3445  2.5698
 9801TIP3   OH250817   5.778   6.700   3.480  0.2156 -0.0476 -0.5679
 9801TIP3    H150818   5.746   6.769   3.421 -0.5413 -1.5717 -2.0079
 9801TIP3    H250819   5.806   6.630   3.422 -0.0276 -1.3918  0.8904
 9802TIP3   OH250820   6.589   6.559  14.140  0.3360 -0.1400 -0.0610
 9802TIP3    H150821   6.510   6.591  14.184 -0.4881 -1.8153 -0.2416
 9802TIP3    H250822   6.583   6.594  14.051  0.3301  0.5741  0.2155
 9803TIP3   OH250823   6.441   5.150   5.422  0.0211  0.3690 -0.2622
 9803TIP3    H150824   6.458   5.231   5.374  1.2213  1.0340  1.1826
 9803TIP3    H250825   6.525   5.128   5.462  0.0605 -2.3411 -1.6432
 9804TIP3   OH250826   2.715   3.665   2.282  0.1774  0.2650 -0.1464
 9804TIP3    H150827   2.754   3.752   2.275  2.1747 -0.4373  1.1528
 9804TIP3    H250828   2.668   3.666   2.366 -0.0560  0.1888 -0.2759
 9805TIP3   OH250829   0.800   4.727  14.690 -0.5180 -0.1177  0.1776
 9805TIP3    H150830   0.830   4.788  14.758 -0.4443 -1.7853  1.6958
 9805TIP3    H250831   0.879   4.683  14.660 -0.5740  0.4871 -0.9007
 9806TIP3   OH250832   6.158   2.697  15.281  0.8028 -0.3576  0.2332
 9806TIP3    H150833   6.205   2.774  15.315  0.6402  1.0944 -2.5238
 9806TIP3    H250834   6.070   2.729  15.263  0.7519 -1.1445 -1.0451
 9807TIP3   OH250835   3.061   4.065   0.181 -0.2792  0.0774  0.4302
 9807TIP3    H150836   2.979   4.015   0.178 -0.4901  0.3703  1.2084
 9807TIP3    H250837   3.126   4.002   0.212 -0.2482 -0.1027  0.0024
 9808TIP3   OH250838   4.618   5.946  16.481 -0.4303 -0.4047 -0.9746
 9808TIP3    H150839   4.663   5.862  16.475 -0.5387 -0.4224 -1.5671
 9808TIP3    H250840   4.688   6.011  16.472 -0.2259 -0.4140  0.3310
 9809TIP3   OH250841   0.660   4.674  16.755  0.3013 -0.0252 -0.1516
 9809TIP3    H150842   0.721   4.684  16.682  0.1984 -0.4729 -0.3056
 9809TIP3    H250843   0.716   4.654  16.830  0.5181  1.6739  0.1832
 9810TIP3   OH250844   5.589   0.214  14.887  0.1902 -0.3843  0.5310
 9810TIP3    H150845   5.506   0.238  14.846  0.6003  1.0508  0.4724
 9810TIP3    H250846   5.616   0.133  14.843 -1.4499 -1.1968  0.9691
 9811TIP3   OH250847   1.979   0.695  14.741 -0.3431 -0.2837 -0.2502
 9811TIP3    H150848   2.049   0.682  14.677  1.0932  1.2614  0.9039
 9811TIP3    H250849   2.012   0.655  14.821 -1.3467 -0.6585 -0.0134
 9812TIP3   OH250850   2.676   0.770  13.149  0.2154  0.4412  0.1660
 9812TIP3    H150851   2.667   0.859  13.184 -0.8140  0.7469 -0.8164
 9812TIP3    H250852   2.652   0.778  13.057 -1.3104 -1.1141  0.3928
 9813TIP3   OH250853   6.249   1.246   0.457 -0.5991 -0.6318  0.3900
 9813TIP3    H150854   6.276   1.251   0.365  2.0193 -2.9496  0.9066
 9813TIP3    H250855   6.329   1.264   0.506 -2.0927  1.2796  2.3308
 9814TIP3   OH250856   2.146   3.502  14.631 -0.4452  0.0486  0.0936
 9814TIP3    H150857   2.166   3.425  14.578 -0.3197 -1.9481  2.8562
 9814TIP3    H250858   2.071   3.542  14.587  0.8065 -0.3210 -2.6154
 9815TIP3   OH250859   0.261   4.514   5.843 -0.2834  0.3605 -0.2435
 9815TIP3    H150860   0.186   4.488   5.790 -0.1245 -0.9409  0.1596
 9815TIP3    H250861   0.227   4.580   5.903 -0.4086  2.1068 -2.1266
 9816TIP3   OH250862   5.152   0.931  10.534  0.4471 -0.1652 -0.2755
 9816TIP3    H150863   5.143   0.983  10.614 -0.7943 -3.2302  1.7639
 9816TIP3    H250864   5.219   0.977  10.483  1.5753  1.7508  2.6544
 9817TIP3   OH250865   2.561   2.689   3.142 -0.3584 -0.0546  0.1951
 9817TIP3    H150866   2.567   2.620   3.207 -1.3045 -0.4645 -0.1218
 9817TIP3    H250867   2.544   2.643   3.060  2.7134  0.2943 -0.7572
 9818TIP3   OH250868   5.501   5.922   6.120 -0.0233  0.3668 -0.3653
 9818TIP3    H150869   5.572   5.900   6.060  1.9458 -0.3494  2.0579
 9818TIP3    H250870   5.535   5.996   6.172 -0.8060 -0.2982  1.1717
 9819TIP3   OH250871   3.108   2.148   3.036 -0.3440 -0.3876  0.4618
 9819TIP3    H150872   3.147   2.082   3.093  0.9788 -1.1405 -1.2241
 9819TIP3    H250873   3.179   2.209   3.017 -0.8448  0.0279 -0.1368
 9820TIP3   OH250874   3.216   4.216   5.113  0.2663 -0.1703  0.4973
 9820TIP3    H150875   3.140   4.265   5.145 -1.3223 -2.2005  0.0162
 9820TIP3    H250876   3.232   4.253   5.026 -0.1583  0.2728  0.5992
 9821TIP3   OH250877   0.040   1.709   0.013 -0.1846 -0.1857 -0.0110
 9821TIP3    H150878   0.008   1.641   0.071 -0.2776  0.9307  1.3088
 9821TIP3    H250879   0.132   1.722   0.039  0.3583 -0.9557 -1.4116
 9822TIP3   OH250880   2.543   2.199   0.483  0.1301 -0.7084  0.2736
 9822TIP3    H150881   2.495   2.159   0.556 -0.1365 -0.6454  0.1358
 9822TIP3    H250882   2.586   2.275   0.521 -1.2605  0.2284  0.0609
 9823TIP3   OH250883   6.691   5.147  15.525  0.3471  0.1197  0.4121
 9823TIP3    H150884   6.599   5.175  15.526  0.5735  0.9485 -0.3839
 9823TIP3    H250885   6.708   5.117  15.614 -0.4192  0.9028  0.8371
 9824TIP3   OH250886   4.345   6.349  15.242 -0.1454 -0.3265 -0.3316
 9824TIP3    H150887   4.304   6.409  15.304 -0.0311  0.5458 -1.0962
 9824TIP3    H250888   4.276   6.287  15.219 -0.9386  0.8882 -1.3016
 9825TIP3   OH250889   0.507   0.701   0.502 -0.2789  0.1337 -0.6821
 9825TIP3    H150890   0.596   0.683   0.472  0.2501  0.5615  0.5771
 9825TIP3    H250891   0.517   0.769   0.568 -1.6957  1.2214 -1.5191
 9826TIP3   OH250892   0.884   3.895  14.898  0.1922 -0.2996  0.4907
 9826TIP3    H150893   0.823   3.867  14.829 -0.4811 -0.7133  1.2369
 9826TIP3    H250894   0.888   3.991  14.888 -0.9687 -0.2069  0.7287
 9827TIP3   OH250895   1.183   3.257  13.693  0.4598 -0.1550  0.2741
 9827TIP3    H150896   1.242   3.300  13.631  0.4959  3.2770  2.4502
 9827TIP3    H250897   1.096   3.284  13.667  0.4274  0.7519  1.2693
 9828TIP3   OH250898   6.384   4.127  13.881 -0.2904 -0.1401 -0.0800
 9828TIP3    H150899   6.356   4.036  13.880 -2.9471  0.6050 -0.9252
 9828TIP3    H250900   6.475   4.125  13.850 -0.2417 -2.4779  0.0827
 9829TIP3   OH250901   4.531   0.547  14.958 -0.7676  0.3898 -0.1397
 9829TIP3    H150902   4.448   0.500  14.950 -1.3521  1.6399 -2.0966
 9829TIP3    H250903   4.551   0.576  14.869  0.7283  1.8866  0.6225
 9830TIP3   OH250904   6.665   6.664   5.291  0.1109  0.1238 -0.1339
 9830TIP3    H150905   6.679   6.577   5.252 -0.6425 -0.1791  0.2477
 9830TIP3    H250906   6.725   6.721   5.244 -0.5888 -0.2706 -1.5668
 9831TIP3   OH250907   6.224   5.451   1.671  0.3888  0.0976 -0.5566
 9831TIP3    H150908   6.138   5.463   1.631 -0.1265 -0.9048  0.2026
 9831TIP3    H250909   6.277   5.411   1.602 -0.9565 -3.2252  0.0959
 9832TIP3   OH250910   6.601   2.701   5.546 -0.0849  0.9806 -0.3202
 9832TIP3    H150911   6.590   2.684   5.640  0.2104 -0.1897 -0.4875
 9832TIP3    H250912   6.515   2.733   5.518  0.0141  2.0004  0.4691
 9833TIP3   OH250913   0.700   0.479   1.936  0.8443 -0.1570 -0.1693
 9833TIP3    H150914   0.664   0.391   1.949  2.3640 -0.3855  3.7264
 9833TIP3    H250915   0.670   0.529   2.011  3.4193  1.4293 -0.0649
 9834TIP3   OH250916   2.984   0.541  14.269  0.4373 -0.3530  0.6684
 9834TIP3    H150917   2.946   0.609  14.213  1.6626 -0.8107 -0.7926
 9834TIP3    H250918   3.042   0.492  14.210  0.9175 -1.5592  2.1045
 9835TIP3   OH250919   0.886   4.308   5.952  0.4070 -0.6058 -0.3278
 9835TIP3    H150920   0.810   4.253   5.970 -0.9345  1.3787  0.3174
 9835TIP3    H250921   0.928   4.320   6.037  0.7874 -0.7316 -0.4927
 9836TIP3   OH250922   6.203   4.826  12.529 -0.2486  0.7367  0.0302
 9836TIP3    H150923   6.248   4.829  12.444  0.5775  2.2190  0.4744
 9836TIP3    H250924   6.114   4.853  12.510 -0.0319  1.2008 -0.3544
 9837TIP3   OH250925   1.118   2.543   2.647 -0.5744  0.0114 -0.0137
 9837TIP3    H150926   1.077   2.536   2.560 -1.5324 -1.0383  0.4870
 9837TIP3    H250927   1.044   2.560   2.706 -0.0125  0.0736  0.6781
 9838TIP3   OH250928   4.059   3.084  10.520  0.5135 -0.1429 -0.5315
 9838TIP3    H150929   4.071   3.032  10.599  0.6043  0.0739 -0.3999
 9838TIP3    H250930   4.138   3.139  10.516 -0.5850  1.6108  0.5756
 9839TIP3   OH250931   4.841   3.202   5.921  0.0141  0.0637  0.0136
 9839TIP3    H150932   4.755   3.201   5.963  0.0896  0.9378  0.1944
 9839TIP3    H250933   4.903   3.193   5.993  0.1105  0.5078 -0.0155
 9840TIP3   OH250934   2.594   2.394  11.314 -0.5027  0.2753  0.0204
 9840TIP3    H150935   2.623   2.305  11.335 -0.8878  0.2859  0.6028
 9840TIP3    H250936   2.602   2.399  11.218 -0.4131 -0.3578 -0.0131
 9841TIP3   OH250937   5.410   2.294   6.172  0.1827  0.2074  0.1831
 9841TIP3    H150938   5.420   2.363   6.238 -0.2625 -0.6664  1.2000
 9841TIP3    H250939   5.499   2.274   6.144  0.4759 -0.1445  1.3167
 9842TIP3   OH250940   6.388   2.868   3.422  0.3386 -0.5744 -0.2605
 9842TIP3    H150941   6.470   2.869   3.471  0.6711 -1.2321 -0.7924
 9842TIP3    H250942   6.414   2.875   3.330 -0.2758  0.5400 -0.3694
 9843TIP3   OH250943   6.291   1.708   4.440 -0.2191 -0.5274  0.5965
 9843TIP3    H150944   6.281   1.682   4.532 -1.2000  0.3579  0.7614
 9843TIP3    H250945   6.325   1.797   4.444  0.9242 -0.9243  0.0716
 9844TIP3   OH250946   4.704   6.768   2.482 -0.3249 -0.0735  0.1296
 9844TIP3    H150947   4.618   6.735   2.508 -0.3367 -0.0290  0.1471
 9844TIP3    H250948   4.699   6.862   2.497 -1.0465  0.2826 -2.0602
 9845TIP3   OH250949   0.362   4.944  12.447 -0.6631  0.1942  0.6240
 9845TIP3    H150950   0.298   5.006  12.482 -0.1097  0.5076  1.1149
 9845TIP3    H250951   0.443   4.965  12.495 -0.1096  0.0447 -0.2315
 9846TIP3   OH250952   4.513   1.932  14.323  0.0638 -0.2568  0.0628
 9846TIP3    H150953   4.488   1.986  14.248 -2.7074 -2.4804 -0.7777
 9846TIP3    H250954   4.603   1.959  14.343  0.2662  1.6942 -2.8742
 9847TIP3   OH250955   4.107   2.302  12.390 -0.4577 -0.4327 -0.0991
 9847TIP3    H150956   4.022   2.339  12.367 -1.1680 -2.4296 -0.9955
 9847TIP3    H250957   4.088   2.209  12.405  1.5365 -0.8649 -0.0943
 9848TIP3   OH250958   1.443   5.799  11.464  0.0634 -0.1691 -0.1141
 9848TIP3    H150959   1.531   5.835  11.479 -0.3799  0.5663  0.8352
 9848TIP3    H250960   1.452   5.706  11.482  0.7453 -0.1752 -0.4552
 9849TIP3   OH250961   2.186   3.006   2.813 -0.4049  0.3188  0.0783
 9849TIP3    H150962   2.117   3.001   2.747 -0.0280  0.5789 -0.3474
 9849TIP3    H250963   2.192   2.917   2.849 -0.4942  0.1319 -0.3665
 9850TIP3   OH250964   0.726   5.951  15.469 -0.5187  0.5073 -0.8437
 9850TIP3    H150965   0.805   5.935  15.522 -1.2472  0.6635  0.3214
 9850TIP3    H250966   0.733   6.042  15.443 -0.9680  0.9245  0.4180
 9851TIP3   OH250967   0.439   2.713   4.621  0.0830  0.1832  0.1427
 9851TIP3    H150968   0.392   2.744   4.543 -0.9311  0.9805  1.0395
 9851TIP3    H250969   0.371   2.670   4.674  0.6850 -0.0372  0.7490
 9852TIP3   OH250970   6.064   3.821   2.093 -0.5908  0.0658  0.4229
 9852TIP3    H150971   5.984   3.873   2.105 -0.8129 -0.6049  2.0069
 9852TIP3    H250972   6.127   3.883   2.056 -1.4520  0.9387  0.3665
 9853TIP3   OH250973   3.010   3.591  14.433 -0.4315 -0.1028 -0.2752
 9853TIP3    H150974   2.966   3.522  14.382 -0.8152  1.1262 -1.6674
 9853TIP3    H250975   3.078   3.624  14.375 -1.4492  1.9290 -0.3796
 9854TIP3   OH250976   0.064   3.039  13.836  0.6485 -0.3152 -0.0725
 9854TIP3    H150977  -0.012   3.095  13.823 -0.1352 -1.7064 -2.1073
 9854TIP3    H250978   0.131   3.096  13.874 -0.6538  1.5100 -0.4058
 9855TIP3   OH250979   2.870   4.081   3.078 -0.2464 -0.1814 -0.0397
 9855TIP3    H150980   2.943   4.083   3.141  0.0375  0.9810 -0.3795
 9855TIP3    H250981   2.792   4.090   3.132  0.0393  1.7292  0.1337
 9856TIP3   OH250982   0.521   5.761   1.141  0.1062 -0.6141  0.0175
 9856TIP3    H150983   0.464   5.689   1.171 -1.9263  0.5761 -0.7394
 9856TIP3    H250984   0.538   5.813   1.219 -0.4392 -0.6077  0.1358
 9857TIP3   OH250985   0.867   0.186   2.137  0.5669 -0.7075 -0.1846
 9857TIP3    H150986   0.788   0.177   2.083 -0.1061  0.5049  0.5358
 9857TIP3    H250987   0.934   0.136   2.091 -0.3093 -0.7347 -1.4760
 9858TIP3   OH250988   0.715   0.119   3.325  0.1616  0.3560  0.4266
 9858TIP3    H150989   0.736   0.046   3.383  0.5918 -0.5247 -0.7972
 9858TIP3    H250990   0.767   0.102   3.246  0.3742  2.0598  0.1610
 9859TIP3   OH250991   6.718   6.802   6.554  0.1164  0.5173 -0.3051
 9859TIP3    H150992   6.800   6.771   6.516 -0.9875 -0.5514 -1.9304
 9859TIP3    H250993   6.653   6.787   6.486 -1.5579  0.7012  1.1912
 9860TIP3   OH250994   0.532   0.945   2.172 -0.1851  0.2605 -0.2629
 9860TIP3    H150995   0.530   1.008   2.243 -1.0577  0.2772 -0.2996
 9860TIP3    H250996   0.528   0.860   2.215  0.9513  0.2032 -0.2159
 9861TIP3   OH250997   2.726   4.539  12.737  0.1782  0.9006  0.1857
 9861TIP3    H150998   2.729   4.478  12.662  1.5045 -0.3439  1.2009
 9861TIP3    H250999   2.665   4.498  12.798  2.1193 -0.2343  1.4803
 9862TIP3   OH251000   2.008   6.115   6.200  0.5057  0.0753 -0.2129
 9862TIP3    H151001   2.098   6.091   6.221  0.6418  0.8578  0.1268
 9862TIP3    H251002   1.981   6.173   6.271  0.2679  1.1016 -1.1047
 9863TIP3   OH251003   5.728   0.188   4.784 -0.2752  0.6115 -0.3005
 9863TIP3    H151004   5.796   0.187   4.851  0.0923  0.7651 -0.6644
 9863TIP3    H251005   5.695   0.278   4.784 -0.3471  0.5854 -0.2551
 9864TIP3   OH251006   1.317   3.277   1.164 -0.1022  0.4410 -0.4990
 9864TIP3    H151007   1.362   3.345   1.114  0.5312  1.8070  1.7911
 9864TIP3    H251008   1.249   3.324   1.212  0.7042 -0.3921  1.5794
 9865TIP3   OH251009   1.999   3.821   2.245  0.0666 -0.1962  0.4669
 9865TIP3    H151010   1.915   3.862   2.225  0.1877  0.3612  1.0800
 9865TIP3    H251011   2.007   3.751   2.180 -0.4586  0.3093 -0.1610
 9866TIP3   OH251012   1.878   4.281  16.298 -0.1780 -0.1484  0.3786
 9866TIP3    H151013   1.842   4.325  16.374  1.4004  1.1237  0.4430
 9866TIP3    H251014   1.964   4.250  16.326  0.0653 -0.4343 -0.6205
 9867TIP3   OH251015   6.555   2.711   5.843 -0.3807  0.0170  0.0129
 9867TIP3    H151016   6.649   2.711   5.858 -0.8810  0.1167  4.5046
 9867TIP3    H251017   6.528   2.801   5.858 -1.1984  0.1277 -1.8490
 9868TIP3   OH251018   4.995   4.647   1.642  0.7125 -0.1154 -0.2392
 9868TIP3    H151019   5.014   4.560   1.606  0.3493 -0.2677 -0.0711
 9868TIP3    H251020   5.069   4.701   1.616  0.9581 -0.4879 -0.3159
 9869TIP3   OH251021   4.235   4.236  12.333  0.3921 -0.2106 -0.1539
 9869TIP3    H151022   4.312   4.240  12.390  0.0469  1.2511  0.2682
 9869TIP3    H251023   4.210   4.144  12.332  2.7784 -0.9184 -1.1771
 9870TIP3   OH251024   4.933   2.630  14.545  0.6197  0.2583 -0.1829
 9870TIP3    H151025   4.892   2.656  14.628  1.9163 -0.1513  0.6220
 9870TIP3    H251026   4.982   2.707  14.517  1.0524  0.0647  0.0156
 9871TIP3   OH251027   4.929   0.190  15.553  0.2679 -0.3084  0.0283
 9871TIP3    H151028   4.947   0.194  15.459 -2.2051  1.0106 -0.4858
 9871TIP3    H251029   4.866   0.118  15.562  2.4856 -2.2521  1.1633
 9872TIP3   OH251030   3.149   5.549   3.984  0.3646  0.0764 -0.4912
 9872TIP3    H151031   3.074   5.608   3.987  1.0666  1.0239 -1.0998
 9872TIP3    H251032   3.111   5.461   3.989 -0.6451  0.5596  1.5247
 9873TIP3   OH251033   4.446   4.150  14.543  0.4443  0.2625  0.4472
 9873TIP3    H151034   4.503   4.103  14.604 -0.2935 -1.2848  0.0054
 9873TIP3    H251035   4.375   4.088  14.525 -0.2831  1.3644 -0.5996
 9874TIP3   OH251036   5.888   1.917   2.304  0.6668 -0.2474 -0.2221
 9874TIP3    H151037   5.796   1.889   2.298  0.2836  0.8460  0.2158
 9874TIP3    H251038   5.935   1.859   2.244 -0.0532 -1.8490  0.6827
 9875TIP3   OH251039   1.345   4.110   3.058  0.2945 -0.0736  0.0299
 9875TIP3    H151040   1.268   4.111   3.001 -0.0346  0.6618  0.4703
 9875TIP3    H251041   1.310   4.090   3.145  0.4440  1.3108  0.4260
 9876TIP3   OH251042   3.245   0.728   3.558 -0.0845 -0.1826 -0.2654
 9876TIP3    H151043   3.233   0.680   3.476  1.5120 -1.0633 -0.0273
 9876TIP3    H251044   3.307   0.675   3.608 -1.3894  0.0701  1.7501
 9877TIP3   OH251045   1.798   5.726   1.641  0.1683  0.3054 -0.0270
 9877TIP3    H151046   1.817   5.637   1.671 -0.3970  1.2925  3.6286
 9877TIP3    H251047   1.869   5.746   1.580  1.2040 -2.0586  0.2928
 9878TIP3   OH251048   4.326   0.696   2.765  0.7177  0.0112  0.2250
 9878TIP3    H151049   4.362   0.660   2.685  2.0594  0.5190  0.5683
 9878TIP3    H251050   4.338   0.791   2.757  0.0660  0.1413  0.6510
 9879TIP3   OH251051   4.757   1.563   0.363 -0.1339  0.1820 -0.2571
 9879TIP3    H151052   4.731   1.655   0.368 -2.2288 -0.3032 -1.2404
 9879TIP3    H251053   4.762   1.545   0.270  3.4273  0.0439 -0.1676
 9880TIP3   OH251054   0.232   3.991  14.757  0.2644 -0.3558 -0.4500
 9880TIP3    H151055   0.317   3.974  14.797 -0.7404 -0.0576  1.9568
 9880TIP3    H251056   0.170   3.945  14.812 -1.0576 -2.2475 -3.2706
 9881TIP3   OH251057   1.329   2.187   1.113  0.0157  0.1222 -0.7489
 9881TIP3    H151058   1.290   2.232   1.038 -0.6147 -0.0425 -0.5285
 9881TIP3    H251059   1.421   2.175   1.089  0.1776  1.4542 -0.8320
 9882TIP3   OH251060   5.191   0.474   0.465 -0.0325  0.2052  0.3370
 9882TIP3    H151061   5.232   0.426   0.538 -0.7884  1.2602  1.4987
 9882TIP3    H251062   5.227   0.562   0.471 -0.3093  0.3760 -0.4148
 9883TIP3   OH251063   4.819   5.655   5.871 -0.3521  0.1101  0.4458
 9883TIP3    H151064   4.756   5.655   5.942 -0.2047  1.5155  0.6026
 9883TIP3    H251065   4.774   5.612   5.798 -1.7497  1.6460  0.3575
 9884TIP3   OH251066   5.243   0.358  12.467 -0.1681  0.3490  0.0542
 9884TIP3    H151067   5.191   0.304  12.526  0.6694 -0.4980  0.0341
 9884TIP3    H251068   5.235   0.314  12.382 -0.4153  0.9098 -0.2201
 9885TIP3   OH251069   1.754   2.537   2.135 -0.1565 -0.2977 -0.0380
 9885TIP3    H151070   1.668   2.497   2.125  0.4705 -2.4706  2.1428
 9885TIP3    H251071   1.814   2.477   2.091  0.4021  0.5509 -0.4689
 9886TIP3   OH251072   2.207   6.375   3.484  0.5555  0.0053  0.1073
 9886TIP3    H151073   2.113   6.379   3.471  0.4651 -0.0638  0.7081
 9886TIP3    H251074   2.244   6.401   3.399 -0.0064  3.2113  0.7035
 9887TIP3   OH251075   5.224   6.592   2.190  0.0486  0.2062 -0.5522
 9887TIP3    H151076   5.184   6.642   2.261  1.1709 -0.7263  0.7963
 9887TIP3    H251077   5.151   6.558   2.139 -0.8662 -0.7708  1.3394
 9888TIP3   OH251078   3.153   2.089   4.767 -0.1258  0.2246  0.1152
 9888TIP3    H151079   3.186   2.045   4.688  3.9527  1.3508  0.9244
 9888TIP3    H251080   3.138   2.018   4.829  0.5494 -0.4229 -0.4384
 9889TIP3   OH251081   3.269   0.821   0.273 -0.6797  0.2231 -0.2585
 9889TIP3    H151082   3.266   0.742   0.218 -1.4203  0.0337  0.0392
 9889TIP3    H251083   3.188   0.818   0.323  0.0340  0.3370  0.9332
 9890TIP3   OH251084   1.755   4.244   0.923  0.2373 -0.4968  0.0532
 9890TIP3    H151085   1.813   4.304   0.969  0.3944 -2.1460  2.1642
 9890TIP3    H251086   1.667   4.268   0.951  0.2416 -0.6922  0.2432
 9891TIP3   OH251087   0.517   1.682   2.287  0.1279 -0.3207 -0.3962
 9891TIP3    H151088   0.590   1.654   2.343  0.8752  0.9716 -0.6816
 9891TIP3    H251089   0.439   1.672   2.341  0.5460 -1.3750  0.0416
 9892TIP3   OH251090   0.160   0.340  16.623 -0.1114 -0.0339  0.1010
 9892TIP3    H151091   0.195   0.332  16.712 -0.3788 -0.1194  0.2003
 9892TIP3    H251092   0.237   0.356  16.568 -0.1871  2.8886  0.7005
 9893TIP3   OH251093   3.493   5.094   2.746  0.8765  0.1808  0.3808
 9893TIP3    H151094   3.432   5.031   2.709  0.6929 -0.4178  1.6710
 9893TIP3    H251095   3.578   5.049   2.745  0.6632 -0.2697  1.7183
 9894TIP3   OH251096   4.891   3.844  14.320 -0.8519 -0.2006 -0.1602
 9894TIP3    H151097   4.953   3.787  14.366  0.0542  0.4846 -0.4957
 9894TIP3    H251098   4.829   3.873  14.387 -1.0549 -1.2157  0.1003
 9895TIP3   OH251099   1.680   3.964  11.087 -0.0450 -0.1148 -0.7255
 9895TIP3    H151100   1.643   3.901  11.026  1.7202  0.7211 -2.7683
 9895TIP3    H251101   1.747   3.914  11.135 -0.2673 -0.3518 -0.6576
 9896TIP3   OH251102   1.009   4.630  14.021 -0.0941 -0.0831  0.5926
 9896TIP3    H151103   1.031   4.568  13.950  0.3063 -0.1908  0.8077
 9896TIP3    H251104   1.062   4.601  14.095 -0.8678 -0.2523  1.0790
 9897TIP3   OH251105   3.115   0.375   4.885 -0.5334 -0.0385  0.1604
 9897TIP3    H151106   3.081   0.298   4.930  0.2059 -1.8225 -2.1568
 9897TIP3    H251107   3.094   0.361   4.793 -0.0313  2.3827 -0.4068
 9898TIP3   OH251108   4.236   2.028  14.077  0.2208 -0.4150  0.7101
 9898TIP3    H151109   4.168   2.093  14.095 -0.0199  0.0881 -1.7114
 9898TIP3    H251110   4.318   2.074  14.093  0.0252 -0.2618  1.2925
 9899TIP3   OH251111   0.803   5.615  12.999  0.2018  0.9312 -0.0488
 9899TIP3    H151112   0.808   5.521  13.019  0.8052  0.7997 -0.7588
 9899TIP3    H251113   0.891   5.637  12.968  0.2137  1.8588  0.6202
 9900TIP3   OH251114   2.654   1.441   4.332 -0.1066 -0.5661 -0.0661
 9900TIP3    H151115   2.736   1.423   4.285  0.6436  0.4173  0.8057
 9900TIP3    H251116   2.682   1.487   4.411 -1.6105  1.2672 -0.5237
 9901TIP3   OH251117   3.458   4.641  14.855  0.4357 -0.0244 -0.2935
 9901TIP3    H151118   3.410   4.677  14.930  2.4170 -0.6818  1.4109
 9901TIP3    H251119   3.542   4.687  14.858  1.2652 -1.4612 -0.9142
 9902TIP3   OH251120   1.985   0.441  16.245  0.2822  0.4692  0.3820
 9902TIP3    H151121   1.952   0.481  16.326 -0.7548 -0.3477  0.3755
 9902TIP3    H251122   2.026   0.360  16.274  0.5815  0.5407  0.1622
 9903TIP3   OH251123   1.676   5.742  14.107 -0.3354 -0.1188 -0.2282
 9903TIP3    H151124   1.664   5.689  14.186  0.6322  0.9187  0.6477
 9903TIP3    H251125   1.703   5.680  14.040 -1.4641 -1.0692  0.1580
 9904TIP3   OH251126   2.493   0.304  16.475 -0.4755 -0.3861 -0.3637
 9904TIP3    H151127   2.519   0.213  16.490 -0.6539 -0.6549 -1.5686
 9904TIP3    H251128   2.552   0.334  16.406 -2.1714 -0.4543 -1.9183
 9905TIP3   OH251129   6.345   0.866   0.485 -0.0617 -0.2016 -0.3117
 9905TIP3    H151130   6.269   0.919   0.462 -0.6980 -0.8282  0.3152
 9905TIP3    H251131   6.363   0.887   0.577  0.8106  0.2843 -0.5836
 9906TIP3   OH251132   2.195   5.054  10.884 -1.1243  0.3346  0.4077
 9906TIP3    H151133   2.155   4.980  10.837 -0.6386  0.2817  0.0751
 9906TIP3    H251134   2.155   5.051  10.971 -0.0522 -1.1923  0.8813
 9907TIP3   OH251135   4.671   3.102   2.277  0.6383 -0.0355  0.1951
 9907TIP3    H151136   4.713   3.186   2.294  0.1372  0.2706 -0.0590
 9907TIP3    H251137   4.609   3.091   2.349 -1.4843  1.2623 -1.3149
 9908TIP3   OH251138   6.087   3.390   3.882  0.2508  0.7522  0.2424
 9908TIP3    H151139   6.105   3.312   3.934 -1.0514  0.3935  0.1734
 9908TIP3    H251140   6.164   3.400   3.826  0.0813 -0.9603 -0.3373
 9909TIP3   OH251141   1.226   0.922  11.125 -0.2583 -0.9056 -1.2872
 9909TIP3    H151142   1.242   0.867  11.048 -2.2348 -0.1057 -2.3531
 9909TIP3    H251143   1.204   1.008  11.090  0.6393  0.0060  0.2715
 9910TIP3   OH251144   6.668   6.652   0.449 -0.6443 -0.2412  0.3560
 9910TIP3    H151145   6.611   6.638   0.374 -2.0317 -1.2618  1.5377
 9910TIP3    H251146   6.623   6.719   0.501 -1.0008 -1.2788  1.4546
 9911TIP3   OH251147   4.751   0.426  12.426 -0.3137 -0.1931  0.2756
 9911TIP3    H151148   4.781   0.517  12.434 -1.7406  0.1977  1.7355
 9911TIP3    H251149   4.822   0.382  12.380 -0.4575  2.0518 -2.3793
 9912TIP3   OH251150   1.857   0.851  17.013 -0.4118 -0.0770 -0.5349
 9912TIP3    H151151   1.886   0.917  17.077 -0.4756  1.5924 -2.1270
 9912TIP3    H251152   1.764   0.839  17.031 -0.2022 -0.4515  0.3571
 9913TIP3   OH251153   0.686   5.110   5.007  0.1269  0.0144  0.2481
 9913TIP3    H151154   0.654   5.035   4.957 -0.0336 -1.2825  2.1921
 9913TIP3    H251155   0.769   5.081   5.044  0.8305  1.3682 -0.1713
 9914TIP3   OH251156   3.538   4.370   1.091 -0.1874 -0.3488  0.0177
 9914TIP3    H151157   3.557   4.318   1.169  0.4374 -0.2382 -0.0568
 9914TIP3    H251158   3.578   4.455   1.108  0.0830 -0.3743 -0.4905
 9915TIP3   OH251159   4.375   2.162  11.717  0.1444  0.4771  0.0446
 9915TIP3    H151160   4.359   2.167  11.811 -0.3993 -0.3745  0.0022
 9915TIP3    H251161   4.291   2.186  11.677 -0.5929 -2.1739 -0.1824
 9916TIP3   OH251162   4.278   5.640  15.212 -1.0542 -0.2116 -0.1423
 9916TIP3    H151163   4.348   5.577  15.194 -0.6391  0.3546 -0.5653
 9916TIP3    H251164   4.253   5.623  15.303 -1.3914 -1.4024 -0.4366
 9917TIP3   OH251165   2.985   6.412  16.647 -0.1079 -0.0595 -0.1221
 9917TIP3    H151166   3.015   6.501  16.626  1.9056 -0.6887 -0.1739
 9917TIP3    H251167   3.006   6.361  16.569 -3.2033 -0.2361 -0.9471
 9918TIP3   OH251168   1.045   6.113  16.829  0.6612 -0.4153  0.3148
 9918TIP3    H151169   0.983   6.169  16.783 -0.4136 -0.6659  1.3867
 9918TIP3    H251170   1.116   6.100  16.767  0.7716  1.8023 -0.1196
 9919TIP3   OH251171   3.939   2.135  12.124  0.4343  0.0416  0.3236
 9919TIP3    H151172   4.001   2.204  12.105  0.8124 -0.3324  0.1836
 9919TIP3    H251173   3.888   2.124  12.044  2.3744 -1.8970 -0.7474
 9920TIP3   OH251174   0.550   1.906   3.304 -0.0243  0.0743 -0.5174
 9920TIP3    H151175   0.519   1.867   3.385 -0.3947 -0.6213 -0.9844
 9920TIP3    H251176   0.486   1.974   3.283  0.7536  1.1336  0.4261
 9921TIP3   OH251177   6.219   4.461   4.519  0.1227  0.0010  0.2542
 9921TIP3    H151178   6.213   4.414   4.602  0.5981  0.1963  0.4086
 9921TIP3    H251179   6.193   4.551   4.541  1.9864  0.5021  0.6179
 9922TIP3   OH251180   4.022   0.333   1.160  0.0164 -0.3935  0.3920
 9922TIP3    H151181   4.114   0.335   1.187  0.0676  0.6409  0.1747
 9922TIP3    H251182   4.024   0.310   1.067  0.1624  0.9470  0.0369
 9923TIP3   OH251183   5.381   6.441  16.798 -0.5611  0.0142 -0.2364
 9923TIP3    H151184   5.366   6.530  16.767  1.7413  0.5470  0.0308
 9923TIP3    H251185   5.425   6.397  16.726  1.7311  0.2681  0.8944
 9924TIP3   OH251186   5.984   2.364  12.114 -0.2894 -0.4444 -0.4838
 9924TIP3    H151187   6.069   2.325  12.135 -0.1885  0.7208  1.5221
 9924TIP3    H251188   6.004   2.438  12.057  0.0520 -0.2005 -0.0526
 9925TIP3   OH251189   5.497   3.386   1.765 -0.2253 -0.2260 -0.3029
 9925TIP3    H151190   5.478   3.419   1.853 -1.2610  0.8614 -0.9094
 9925TIP3    H251191   5.433   3.315   1.752 -1.1523  0.6516 -0.7403
 9926TIP3   OH251192   3.568   4.726  14.191 -0.2075  0.2634  0.2837
 9926TIP3    H151193   3.597   4.743  14.280  1.1897  1.8658 -0.4189
 9926TIP3    H251194   3.510   4.799  14.170  1.7340  1.5476 -1.0189
 9927TIP3   OH251195   4.016   4.055  14.159 -0.5245  0.5558  0.1857
 9927TIP3    H151196   4.010   4.149  14.172  1.5166  0.4767  2.4011
 9927TIP3    H251197   4.008   4.043  14.064  2.2383  3.2799 -0.5469
 9928TIP3   OH251198   3.120   6.334   3.437  0.0630  0.9005 -0.0057
 9928TIP3    H151199   3.100   6.357   3.527  0.6861  1.4993 -0.0143
 9928TIP3    H251200   3.163   6.411   3.401  3.1926 -0.5942  0.2615
 9929TIP3   OH251201   4.105   2.816  14.286  0.6897 -0.3959  0.6209
 9929TIP3    H151202   4.052   2.846  14.360  1.3710  0.5715  0.7364
 9929TIP3    H251203   4.063   2.855  14.209  0.8928 -0.0973  0.6582
 9930TIP3   OH251204   6.197   4.306  16.469 -0.0879 -0.0230 -0.7726
 9930TIP3    H151205   6.247   4.316  16.550 -1.1438  1.0090 -0.2104
 9930TIP3    H251206   6.241   4.236  16.422  1.2060  0.0936  0.1995
 9931TIP3   OH251207   6.359   5.965   0.765  0.0830 -0.5233 -0.1346
 9931TIP3    H151208   6.430   5.900   0.767  2.7542  2.1803  0.2730
 9931TIP3    H251209   6.346   5.989   0.857  1.1213  1.4114 -0.4488
 9932TIP3   OH251210   4.315   0.316   4.711  0.8766 -0.0028  0.1141
 9932TIP3    H151211   4.376   0.327   4.639  0.6603  2.4790  0.2281
 9932TIP3    H251212   4.301   0.404   4.745 -1.4091 -0.6963  1.2252
 9933TIP3   OH251213   3.032   5.396   3.110 -0.1819  0.0724 -0.8896
 9933TIP3    H151214   2.985   5.440   3.039  2.7544  3.6214 -0.9079
 9933TIP3    H251215   3.004   5.442   3.189  0.3502 -0.4107 -0.4111
 9934TIP3   OH251216   0.499   6.477  15.019  0.1777 -0.1408 -0.0316
 9934TIP3    H151217   0.431   6.463  15.085  0.5615  0.8728  0.6029
 9934TIP3    H251218   0.542   6.392  15.010 -0.0076 -0.3382  0.8804
 9935TIP3   OH251219   1.319   2.115   5.159  0.1805  0.7339 -0.4631
 9935TIP3    H151220   1.284   2.196   5.123 -0.6351  0.6972  0.2027
 9935TIP3    H251221   1.259   2.094   5.231  2.0915  1.1344  1.3172
 9936TIP3   OH251222   5.466   0.725  14.430  0.3949 -0.1992  0.0326
 9936TIP3    H151223   5.472   0.759  14.341 -0.3274 -0.1978 -0.0259
 9936TIP3    H251224   5.544   0.670  14.440  0.8993  0.4387 -0.3160
 9937TIP3   OH251225   0.378   3.805   4.759 -0.1093  0.1142 -0.3982
 9937TIP3    H151226   0.387   3.729   4.817  0.3059  0.1902 -0.3602
 9937TIP3    H251227   0.323   3.866   4.809  1.3456  0.7460  0.5101
 9938TIP3   OH251228   4.732   4.710   1.134 -0.3064  0.6704  0.9943
 9938TIP3    H151229   4.694   4.623   1.130  0.4688  0.3802 -1.2803
 9938TIP3    H251230   4.826   4.696   1.127 -0.2861  1.7400 -2.1155
 9939TIP3   OH251231   5.793   5.612  15.437  0.3321  0.6933  0.2590
 9939TIP3    H151232   5.867   5.642  15.490 -1.7808  3.4421  1.9574
 9939TIP3    H251233   5.826   5.612  15.347  2.3271  2.0139  0.9298
 9940TIP3   OH251234   5.219   6.219  11.596 -0.0248  0.2155  0.1710
 9940TIP3    H151235   5.196   6.167  11.673  0.3500  0.8795  0.7368
 9940TIP3    H251236   5.299   6.178  11.563  0.0895  0.2312  0.4260
 9941TIP3   OH251237   3.482   6.173  14.056 -0.4280 -0.4765 -0.1280
 9941TIP3    H151238   3.546   6.143  13.991  0.3316  1.4908 -0.3612
 9941TIP3    H251239   3.416   6.219  14.004  0.2078  1.1507  0.4344
 9942TIP3   OH251240   4.190   5.934   3.997 -0.2516 -0.0899 -0.2289
 9942TIP3    H151241   4.205   5.956   3.905 -0.5197  1.0258 -0.0240
 9942TIP3    H251242   4.110   5.982   4.020  0.2706  0.3189  0.8035
 9943TIP3   OH251243   1.595   4.761   5.606 -0.1588 -0.5501  0.1903
 9943TIP3    H151244   1.658   4.716   5.549 -0.3401  0.3700 -0.7620
 9943TIP3    H251245   1.620   4.854   5.601 -0.1284 -0.4492  1.6848
 9944TIP3   OH251246   3.275   6.742  10.350  0.2660  0.0073 -0.0285
 9944TIP3    H151247   3.306   6.652  10.352 -1.0449 -0.5760 -2.2786
 9944TIP3    H251248   3.317   6.780  10.273 -2.3809 -0.0313 -1.6124
 9945TIP3   OH251249   6.155   2.028   6.239  0.0210  0.3047 -0.4404
 9945TIP3    H151250   6.082   2.058   6.294 -0.9720 -1.1636 -0.9037
 9945TIP3    H251251   6.140   1.935   6.228  0.2228  0.5191 -3.1808
 9946TIP3   OH251252   0.568   5.160  11.651  0.8230 -0.2666  0.2759
 9946TIP3    H151253   0.542   5.070  11.635 -0.1780  0.2463 -1.1662
 9946TIP3    H251254   0.590   5.195  11.565  0.8532  0.9690  0.7588
 9947TIP3   OH251255   4.781   0.462   1.208 -0.0391 -0.9697 -0.3969
 9947TIP3    H151256   4.717   0.391   1.213 -1.4940  0.3385  3.0821
 9947TIP3    H251257   4.855   0.430   1.261  0.0463 -0.5731 -0.2770
 9948TIP3   OH251258   2.979   1.832   3.636  0.2376 -0.3727  0.5490
 9948TIP3    H151259   3.016   1.911   3.598 -1.4093  0.1279 -0.0966
 9948TIP3    H251260   3.055   1.783   3.669  1.2905  1.4301  0.9212
 9949TIP3   OH251261   1.203   1.506   2.405 -0.5634  0.1855  0.6420
 9949TIP3    H151262   1.124   1.465   2.442 -0.9655 -0.6035 -1.0059
 9949TIP3    H251263   1.234   1.443   2.340  1.7083  0.2767  1.5368
 9950TIP3   OH251264   2.933   0.642   2.020 -0.1548  0.0799 -0.8152
 9950TIP3    H151265   2.876   0.638   1.943 -1.0593  1.4407 -0.2512
 9950TIP3    H251266   2.950   0.736   2.032  0.0023 -0.1156  0.6075
 9951TIP3   OH251267   1.489   6.663  12.491  0.1471  0.1796 -0.0120
 9951TIP3    H151268   1.490   6.620  12.577  1.2335 -1.8069 -0.9530
 9951TIP3    H251269   1.497   6.591  12.428  0.5051  1.6732 -1.7556
 9952TIP3   OH251270   3.592   1.279   5.108  0.4112 -0.5145  0.7253
 9952TIP3    H151271   3.576   1.320   5.023  0.1065  0.7232  1.3657
 9952TIP3    H251272   3.505   1.248   5.136  0.6625 -1.7570  0.1781
 9953TIP3   OH251273   1.709   5.773   3.243  0.6248 -0.1490  0.1807
 9953TIP3    H151274   1.760   5.713   3.189 -1.7823 -1.8546 -0.4194
 9953TIP3    H251275   1.635   5.719   3.274 -1.5893  2.4329 -0.2219
 9954TIP3   OH251276   0.348   2.523   3.626  0.2261  0.6070 -0.1496
 9954TIP3    H151277   0.369   2.469   3.549  1.1208  0.4158  0.2135
 9954TIP3    H251278   0.303   2.599   3.590 -0.9324 -0.3045 -0.6829
 9955TIP3   OH251279   4.949   5.057   3.871 -0.1781  0.1629 -0.1111
 9955TIP3    H151280   4.930   5.117   3.798 -0.5306 -1.0001 -1.0080
 9955TIP3    H251281   5.030   5.090   3.908 -1.2821  2.2900  0.6049
 9956TIP3   OH251282   0.294   5.301  16.881  0.1758  0.4732  0.2108
 9956TIP3    H151283   0.369   5.245  16.861  1.1054  2.2122 -1.4894
 9956TIP3    H251284   0.218   5.247  16.860  0.9773 -0.7215  0.2586
 9957TIP3   OH251285   1.366   3.159   0.063  0.8246  0.0916 -0.1986
 9957TIP3    H151286   1.347   3.100  -0.009  2.5689  0.7199 -1.2448
 9957TIP3    H251287   1.458   3.142   0.084  0.3785 -0.0487  1.8819
 9958TIP3   OH251288   0.239   2.881   4.848  0.1019  0.3757  0.6269
 9958TIP3    H151289   0.147   2.877   4.873 -0.1895 -2.3929 -0.5189
 9958TIP3    H251290   0.284   2.830   4.916  0.4387 -0.2203 -0.0294
 9959TIP3   OH251291   1.993   3.150   0.903 -0.2165  0.0396  0.0342
 9959TIP3    H151292   2.009   3.240   0.932 -0.4567  0.0227  0.2181
 9959TIP3    H251293   1.910   3.155   0.856 -0.7141 -0.2619  0.8584
 9960TIP3   OH251294   2.386   0.331   2.508 -0.0514  0.3030 -0.1920
 9960TIP3    H151295   2.422   0.257   2.557 -0.1103  0.2956 -0.1600
 9960TIP3    H251296   2.449   0.402   2.523 -0.4692  0.5261  0.5346
 9961TIP3   OH251297   3.714   1.254  13.176 -0.2065  0.7396 -0.5010
 9961TIP3    H151298   3.771   1.215  13.109  0.0129  0.9804 -0.4562
 9961TIP3    H251299   3.722   1.195  13.251 -0.2751  0.5933 -0.6072
 9962TIP3   OH251300   6.331   2.658   2.752  0.8076 -0.4856 -0.7351
 9962TIP3    H151301   6.239   2.657   2.724  0.5923 -1.3365 -0.0554
 9962TIP3    H251302   6.338   2.737   2.805  0.1359 -1.0018  0.1729
 9963TIP3   OH251303   4.684   5.619   1.719 -0.5073 -0.0657  0.6501
 9963TIP3    H151304   4.700   5.676   1.794 -0.5042 -0.2522  0.7923
 9963TIP3    H251305   4.665   5.679   1.647  0.7563  0.1686  0.4855
 9964TIP3   OH251306   0.936   1.798   1.360 -0.3353  0.3889 -0.3360
 9964TIP3    H151307   1.010   1.832   1.310  1.7221 -0.3070  1.9989
 9964TIP3    H251308   0.923   1.863   1.430 -3.5734  1.6991 -1.9488
 9965TIP3   OH251309   2.073   0.366   1.907  0.4013 -0.0385  0.3903
 9965TIP3    H151310   2.031   0.292   1.951  0.7897  0.3902  1.5256
 9965TIP3    H251311   2.006   0.435   1.909 -0.8017 -0.9596 -2.6437
 9966TIP3   OH251312   3.563   2.790   3.654  0.3974 -0.2320  0.4247
 9966TIP3    H151313   3.568   2.694   3.649 -1.4918 -0.3163 -0.9860
 9966TIP3    H251314   3.643   2.820   3.611 -0.2992 -1.2301 -1.7260
 9967TIP3   OH251315   1.392   5.580  16.622 -0.1320  0.0984  0.4238
 9967TIP3    H151316   1.481   5.560  16.650 -0.2693 -0.3079  0.5790
 9967TIP3    H251317   1.394   5.571  16.527 -0.2742 -1.0430  0.5122
 9968TIP3   OH251318   4.165   2.134   0.470  0.1153  0.1615 -0.0907
 9968TIP3    H151319   4.075   2.167   0.471 -0.6914 -1.8679  0.4008
 9968TIP3    H251320   4.187   2.126   0.378 -1.0011 -1.2140 -0.2746
 9969TIP3   OH251321   1.724   6.136   1.260  0.0601  0.1072  0.3527
 9969TIP3    H151322   1.634   6.135   1.228 -0.5702  2.5215  1.8238
 9969TIP3    H251323   1.717   6.120   1.354  1.2004  0.2663  0.4805
 9970TIP3   OH251324   6.363   4.756  14.755  0.0319  0.2444 -0.1288
 9970TIP3    H151325   6.457   4.741  14.746 -0.1496 -0.8266 -0.3004
 9970TIP3    H251326   6.339   4.712  14.837 -0.1948  1.1619  0.3122
 9971TIP3   OH251327   3.851   1.077  13.010  0.1418  0.4387  0.6252
 9971TIP3    H151328   3.882   1.054  12.923 -1.2279  0.4325  0.1314
 9971TIP3    H251329   3.872   1.001  13.064  0.0485  0.0180  0.0725
 9972TIP3   OH251330   5.206   4.569  16.825 -0.0462  0.1110  0.4655
 9972TIP3    H151331   5.140   4.529  16.768  0.5504  0.0005 -0.1635
 9972TIP3    H251332   5.163   4.649  16.858 -0.6451 -0.1835  0.4141
 9973TIP3   OH251333   1.182   3.152   1.889 -0.1761 -0.1489 -0.0918
 9973TIP3    H151334   1.261   3.102   1.869 -0.2203  0.3325 -1.5668
 9973TIP3    H251335   1.142   3.105   1.963  1.3224 -0.5594  0.4933
 9974TIP3   OH251336   1.800   5.702  13.791  0.0031  1.1515 -0.4282
 9974TIP3    H151337   1.806   5.621  13.843  3.1879 -0.4728 -2.9506
 9974TIP3    H251338   1.707   5.726  13.796 -1.3321 -3.0920 -0.0973
 9975TIP3   OH251339   1.041   0.093  13.572 -0.3797 -0.2853 -0.2696
 9975TIP3    H151340   0.952   0.114  13.597 -1.0910 -0.9665 -2.0552
 9975TIP3    H251341   1.049  -0.001  13.589 -0.7149 -0.6569 -1.9568
 9976TIP3   OH251342   2.335   2.919  15.090 -0.3305 -0.5310 -0.0567
 9976TIP3    H151343   2.338   2.925  15.185  0.5060 -0.2497 -0.0888
 9976TIP3    H251344   2.260   2.973  15.065  0.9943  1.5996  0.3075
 9977TIP3   OH251345   2.058   3.801   0.712  0.1410  1.1403 -0.2207
 9977TIP3    H151346   2.065   3.779   0.805  1.9382 -0.0328 -0.5794
 9977TIP3    H251347   2.143   3.777   0.675 -0.7657  0.8775 -2.3093
 9978TIP3   OH251348   5.161   1.030   0.782 -0.2471  0.2896  0.4633
 9978TIP3    H151349   5.079   1.056   0.825 -0.9282 -0.0533 -0.5735
 9978TIP3    H251350   5.215   0.994   0.852 -1.1439  0.1474  1.1008
 9979TIP3   OH251351   6.807   0.149   2.580 -0.0373  0.6561 -0.3621
 9979TIP3    H151352   6.891   0.134   2.622 -0.8730  1.1315  1.6148
 9979TIP3    H251353   6.802   0.083   2.512  1.9656  0.7037 -0.6146
 9980TIP3   OH251354   5.891   6.157   0.883 -0.3257 -0.2860  0.2570
 9980TIP3    H151355   5.804   6.120   0.892 -0.6122  0.2057 -0.4380
 9980TIP3    H251356   5.943   6.112   0.950 -0.5632 -2.1978 -0.7978
 9981TIP3   OH251357   1.270   3.322   4.222 -0.9832  0.1226 -0.1302
 9981TIP3    H151358   1.222   3.397   4.257  0.8735  2.0230 -1.3846
 9981TIP3    H251359   1.252   3.324   4.128 -0.7582 -0.8782 -0.1989
 9982TIP3   OH251360   4.000   4.165  11.151 -0.2021  0.6502  0.2185
 9982TIP3    H151361   3.956   4.080  11.145  2.1057 -0.4924 -2.5009
 9982TIP3    H251362   4.038   4.165  11.239 -0.8903 -0.7878  0.5487
 9983TIP3   OH251363   3.611   2.711   5.094  0.0219  0.7713  0.0757
 9983TIP3    H151364   3.602   2.734   5.186 -2.3765 -0.2869  0.1658
 9983TIP3    H251365   3.660   2.629   5.094  0.3426  0.9607  0.3696
 9984TIP3   OH251366   6.431   2.010   6.157 -0.5440 -0.3750 -0.2609
 9984TIP3    H151367   6.356   2.042   6.207  0.7798  3.3697 -0.3561
 9984TIP3    H251368   6.425   2.055   6.073  1.7461  0.0319 -0.2763
 9985TIP3   OH251369   6.199   0.419  14.135 -0.4494 -0.1630 -0.8794
 9985TIP3    H151370   6.222   0.328  14.116  0.2044 -0.1434 -0.2103
 9985TIP3    H251371   6.104   0.423  14.120 -0.8798 -1.4880  1.1192
 9986TIP3   OH251372   4.843   5.545   4.952 -0.7133  0.8545 -0.4148
 9986TIP3    H151373   4.835   5.471   5.012  0.8442  1.5804  0.7709
 9986TIP3    H251374   4.869   5.506   4.869 -1.2324 -0.0282 -0.1685
 9987TIP3   OH251375   4.696   0.522  11.188  0.2386  0.9405  0.1444
 9987TIP3    H151376   4.690   0.459  11.116 -0.1314 -1.2558  1.9726
 9987TIP3    H251377   4.790   0.530  11.206  0.3465  1.6342 -0.6272
 9988TIP3   OH251378   5.418   4.151   0.998  0.7981 -0.2389 -0.3626
 9988TIP3    H151379   5.433   4.103   0.917 -0.7555 -0.8483 -0.3197
 9988TIP3    H251380   5.323   4.148   1.011  1.1044 -1.2027  2.1280
 9989TIP3   OH251381   1.889   0.198  10.889  0.0653  0.2584  0.4216
 9989TIP3    H151382   1.829   0.258  10.844  0.3459  0.5476  0.4287
 9989TIP3    H251383   1.952   0.256  10.931  0.1673 -0.0357  0.6708
 9990TIP3   OH251384   3.668   3.649   0.645  0.0457  0.4290 -0.4308
 9990TIP3    H151385   3.592   3.626   0.592  1.6755 -1.3437 -2.1792
 9990TIP3    H251386   3.659   3.596   0.724 -0.6126  0.3867 -0.5285
 9991TIP3   OH251387   5.244   2.551  16.059  0.0200 -0.4297 -0.4355
 9991TIP3    H151388   5.314   2.609  16.091  0.5233 -1.0770 -0.3466
 9991TIP3    H251389   5.239   2.482  16.125 -0.8637 -0.2709 -0.3298
 9992TIP3   OH251390   4.438   4.815  12.885 -0.4877 -0.3908  0.1479
 9992TIP3    H151391   4.425   4.909  12.897 -2.0921 -0.6592  0.8685
 9992TIP3    H251392   4.532   4.804  12.876 -0.4308  1.6721 -3.7716
 9993TIP3   OH251393   1.180   6.321   0.559  0.7026 -0.0239 -0.1075
 9993TIP3    H151394   1.126   6.305   0.637  1.0018 -1.0901 -0.1052
 9993TIP3    H251395   1.224   6.238   0.543  0.9323  0.2949 -1.2017
 9994TIP3   OH251396   0.668   3.945  15.573  0.6260 -0.5193  0.0336
 9994TIP3    H151397   0.605   3.873  15.574  1.5848 -1.3842  0.1833
 9994TIP3    H251398   0.752   3.903  15.592  1.0347  0.8161  1.3481
 9995TIP3   OH251399   1.184   6.409   4.304 -0.4207 -0.5279 -0.5503
 9995TIP3    H151400   1.193   6.422   4.210  0.0068 -0.4348 -0.4943
 9995TIP3    H251401   1.092   6.431   4.322  0.4643  3.7503 -0.2626
 9996TIP3   OH251402   0.161   1.115   3.139 -0.3627  0.3287  0.0995
 9996TIP3    H151403   0.143   1.177   3.209 -1.3736  0.8907 -0.6364
 9996TIP3    H251404   0.213   1.046   3.181 -2.3815 -0.2314  1.8094
 9997TIP3   OH251405   1.173   0.536  11.316 -0.0757  0.3057  0.2312
 9997TIP3    H151406   1.178   0.442  11.332 -0.6825  0.0790 -0.7841
 9997TIP3    H251407   1.194   0.546  11.223 -2.4363  0.8718 -0.3168
 9998TIP3   OH251408   5.190   2.473   6.104 -0.0982  0.0595  0.1525
 9998TIP3    H151409   5.271   2.426   6.126  0.5746  0.2871 -1.6769
 9998TIP3    H251410   5.194   2.553   6.155  1.4325  0.6078 -0.7709
 9999TIP3   OH251411   4.667   5.792   1.515 -0.5548  0.3104  0.2458
 9999TIP3    H151412   4.588   5.804   1.462 -1.4971  0.8550  1.7186
 9999TIP3    H251413   4.716   5.873   1.503  0.7140 -0.6978 -2.0630
10000TIP3   OH251414   6.448   2.138   1.175  0.2903  0.9060  0.2457
10000TIP3    H151415   6.481   2.051   1.151  0.8000  1.7894 -2.6624
10000TIP3    H251416   6.486   2.155   1.261  0.9364 -1.3673  0.4704
10001TIP3   OH251417   0.817   4.573  13.124 -0.3547 -0.0570  0.1684
10001TIP3    H151418   0.724   4.585  13.144 -0.9466 -1.6858 -1.2909
10001TIP3    H251419   0.822   4.486  13.086  2.3469 -1.4753  3.2866
10002TIP3   OH251420   5.553   6.587   1.854 -0.4575  0.1662  0.2676
10002TIP3    H151421   5.477   6.644   1.860  1.3010  2.9186 -1.3132
10002TIP3    H251422   5.593   6.592   1.941 -0.7438  0.7115  0.3708
10003TIP3   OH251423   5.620   0.282  12.922 -0.1614 -0.3621  0.5032
10003TIP3    H151424   5.555   0.335  12.968 -1.5784 -0.5574 -1.1578
10003TIP3    H251425   5.568   0.214  12.879  0.9549  0.2079 -1.9154
10004TIP3   OH251426   6.611   4.160   4.835  0.2702  0.1450  0.1535
10004TIP3    H151427   6.640   4.100   4.904  0.4283  0.7216  0.6004
10004TIP3    H251428   6.660   4.240   4.852 -1.2070  0.9808  0.6169
10005TIP3   OH251429   1.310   4.576   4.191 -0.2873 -0.7717 -0.4161
10005TIP3    H151430   1.229   4.584   4.140  0.0227 -1.5433 -1.0563
10005TIP3    H251431   1.297   4.633   4.267 -0.0651  1.8543 -2.2277
10006TIP3   OH251432   3.965   3.840   5.006  0.0652  0.2064 -1.1409
10006TIP3    H151433   3.918   3.810   5.084 -0.9279 -1.4215 -2.3075
10006TIP3    H251434   4.056   3.849   5.035  0.0193 -1.8785 -0.1089
10007TIP3   OH251435   1.193   3.088  12.117 -0.4893  0.5337  0.0998
10007TIP3    H151436   1.179   3.149  12.045  0.8932  0.4981 -0.2315
10007TIP3    H251437   1.279   3.112  12.152 -0.5283 -0.3480  0.8437
10008TIP3   OH251438   1.459   4.834  16.620  0.4673  0.0933 -0.0215
10008TIP3    H151439   1.373   4.820  16.581  1.1658 -0.6455 -1.3670
10008TIP3    H251440   1.511   4.872  16.549  2.0185 -2.0443 -0.0962
10009TIP3   OH251441   0.724   0.338   4.921 -0.3719  0.5155 -0.3723
10009TIP3    H151442   0.734   0.289   5.003 -0.1295  1.2704  0.0522
10009TIP3    H251443   0.650   0.397   4.937 -1.5378 -0.6193 -1.3391
10010TIP3   OH251444   2.642   1.042   0.174  0.2139 -0.7404 -0.4054
10010TIP3    H151445   2.570   1.003   0.124 -1.1195  1.3573 -0.1818
10010TIP3    H251446   2.606   1.059   0.261  1.2120 -0.3592 -0.0510
10011TIP3   OH251447   0.655   3.811  12.915 -0.1162  0.2370  0.2956
10011TIP3    H151448   0.749   3.814  12.935  0.1123 -1.5079 -0.3276
10011TIP3    H251449   0.643   3.727  12.872 -1.9628  0.5055  0.2243
10012TIP3   OH251450   0.803   5.437   4.170 -0.1634  0.0562 -0.4279
10012TIP3    H151451   0.807   5.420   4.076 -2.0991  0.9994 -0.7231
10012TIP3    H251452   0.826   5.529   4.179  0.0161 -0.0318  0.0351
10013TIP3   OH251453   1.401   2.574   5.603  0.1549  0.6988  0.3700
10013TIP3    H151454   1.337   2.643   5.586  1.8869  2.0618 -1.0602
10013TIP3    H251455   1.372   2.533   5.685 -2.0336  1.7895  0.2086
10014TIP3   OH251456   3.327   2.922   3.801 -0.0800 -0.0165  0.3611
10014TIP3    H151457   3.269   2.967   3.739 -1.8731 -0.0956  1.9186
10014TIP3    H251458   3.399   2.889   3.746 -1.9272 -0.6945 -1.7964
10015TIP3   OH251459   2.540   2.473   4.940 -0.4752  0.5876 -0.2653
10015TIP3    H151460   2.535   2.568   4.930 -0.9566  0.6802  0.7650
10015TIP3    H251461   2.537   2.439   4.851  1.3932  1.6009 -0.7782
10016TIP3   OH251462   2.918   3.064  12.604 -0.6588 -0.3373  0.0674
10016TIP3    H151463   2.957   2.977  12.610  3.5691  1.0389 -2.7609
10016TIP3    H251464   2.904   3.091  12.695 -0.2324 -3.1554  1.0696
10017TIP3   OH251465   2.003   2.093  15.915 -0.1505 -0.0157 -0.4319
10017TIP3    H151466   2.022   2.003  15.888  1.4430  0.4867 -1.0996
10017TIP3    H251467   1.907   2.098  15.918 -0.3676 -2.6180  2.6854
10018TIP3   OH251468   3.510   0.180  10.612  0.5152 -0.1638  0.1546
10018TIP3    H151469   3.598   0.159  10.580  1.1014  1.5783  0.5565
10018TIP3    H251470   3.522   0.201  10.704 -0.2348  0.5642  0.0988
10019TIP3   OH251471   3.639   0.382  13.066 -0.0726  0.0455  0.3423
10019TIP3    H151472   3.679   0.333  13.138  1.8172  1.1174  0.0903
10019TIP3    H251473   3.672   0.338  12.987  1.8610  1.7438  0.1054
10020TIP3   OH251474   0.846   0.333  11.543 -0.0956 -0.3872  0.4498
10020TIP3    H151475   0.769   0.354  11.596 -0.1010  0.9666 -0.0600
10020TIP3    H251476   0.811   0.303  11.460 -0.0844  0.7719  0.0173
10021TIP3   OH251477   6.759   0.313  14.848  0.1704  0.6502 -0.3912
10021TIP3    H151478   6.675   0.358  14.850 -0.3723 -0.3268 -0.6940
10021TIP3    H251479   6.739   0.224  14.877  1.2133  0.5788  0.1645
10022TIP3   OH251480   3.565   6.530   5.917 -0.4118  0.1626 -0.0861
10022TIP3    H151481   3.478   6.506   5.951  0.4828 -2.2579  0.6998
10022TIP3    H251482   3.625   6.512   5.990  0.8529  1.0566 -0.8753
10023TIP3   OH251483   4.209   1.641   3.883  0.3945  0.1120 -0.4687
10023TIP3    H151484   4.147   1.640   3.956  1.1359  0.1199  0.1802
10023TIP3    H251485   4.242   1.731   3.880  0.3101  0.1308 -0.8638
10024TIP3   OH251486   6.169   4.532  15.918 -0.5815 -0.4461  0.5503
10024TIP3    H151487   6.207   4.445  15.915  1.3552  0.3638  0.1502
10024TIP3    H251488   6.128   4.537  16.005  0.7623 -1.1712  1.2558
10025TIP3   OH251489   6.296   6.592   5.074  0.6698  0.8224 -0.2206
10025TIP3    H151490   6.231   6.546   5.128 -1.2885 -0.3882 -3.3529
10025TIP3    H251491   6.260   6.680   5.062  1.8751  1.6268  1.5382
10026TIP3   OH251492   0.614   2.951  15.810  0.0683  0.3501 -0.7688
10026TIP3    H151493   0.558   2.932  15.735 -1.0597  1.1575 -0.1564
10026TIP3    H251494   0.562   3.009  15.865  1.1503  0.3505  0.2974
10027TIP3   OH251495   1.355   5.353   2.989  0.1265  0.1462  0.3705
10027TIP3    H151496   1.328   5.277   3.040  0.6902 -0.8576 -0.7942
10027TIP3    H251497   1.444   5.333   2.960 -0.6472  0.0224 -2.1572
10028TIP3   OH251498   5.869   0.781  10.731 -0.4033 -0.2637 -0.0014
10028TIP3    H151499   5.935   0.768  10.799  0.0679  0.8710 -0.2261
10028TIP3    H251500   5.917   0.818  10.657 -1.1863  0.0584 -0.3631
10029TIP3   OH251501   1.602   3.390  16.405 -0.5996 -0.2467 -0.2606
10029TIP3    H151502   1.672   3.359  16.463  0.3916  0.8072 -0.8553
10029TIP3    H251503   1.521   3.373  16.454  0.1508 -0.2981  1.0041
10030TIP3   OH251504   5.788   6.256  12.193 -0.3735 -0.2365  0.3859
10030TIP3    H151505   5.717   6.262  12.257 -0.3468 -0.5627  0.4464
10030TIP3    H251506   5.766   6.180  12.140 -1.0100  0.6895 -0.7458
10031TIP3   OH251507   3.506   3.069  12.539  0.0370  0.8919 -0.2064
10031TIP3    H151508   3.514   2.974  12.551 -0.4402  0.9806  0.9691
10031TIP3    H251509   3.455   3.079  12.459  0.4587  0.1680 -0.5757
10032TIP3   OH251510   2.460   0.720   3.670 -0.5010  0.3149  0.3035
10032TIP3    H151511   2.423   0.765   3.746 -1.4921 -0.0340  0.0420
10032TIP3    H251512   2.427   0.630   3.677 -0.7372  0.3231 -0.6245
10033TIP3   OH251513   4.564   6.167   0.475  0.5817 -0.1563 -0.0324
10033TIP3    H151514   4.589   6.114   0.551  3.5383  1.1812  0.0749
10033TIP3    H251515   4.562   6.106   0.402 -1.2381 -1.2708  0.9008
10034TIP3   OH251516   4.921   0.448  16.998  0.5686 -0.1978 -0.4248
10034TIP3    H151517   4.985   0.505  16.955  0.1506  0.5264 -0.1052
10034TIP3    H251518   4.942   0.453  17.091  0.1114 -0.0342 -0.3265
10035TIP3   OH251519   6.226   3.751  15.642 -0.0664  0.4182  0.0840
10035TIP3    H151520   6.242   3.687  15.573 -0.2497  0.0538  0.3754
10035TIP3    H251521   6.285   3.824  15.622  2.2270 -0.9959  1.2740
10036TIP3   OH251522   5.682   1.110  11.193  0.4778  0.0899  0.6195
10036TIP3    H151523   5.602   1.162  11.180  0.2912 -0.4531 -0.6312
10036TIP3    H251524   5.719   1.101  11.105  1.1837 -0.8265  0.9897
10037TIP3   OH251525   4.714   5.157  11.700  0.4533 -0.2959 -0.5318
10037TIP3    H151526   4.736   5.167  11.607  0.8141 -0.3618 -0.4525
10037TIP3    H251527   4.623   5.128  11.699  0.2978  0.1895 -0.8502
10038TIP3   OH251528   1.587   1.576   5.166  0.0827  0.4201 -0.1689
10038TIP3    H151529   1.591   1.630   5.244  0.8927 -0.0335  0.1247
10038TIP3    H251530   1.533   1.501   5.191  0.6859  0.0682  0.0987
10039TIP3   OH251531   1.213   6.780  12.363  0.2309  0.8887  0.0017
10039TIP3    H151532   1.246   6.785  12.273 -0.4801 -0.9298 -0.4128
10039TIP3    H251533   1.272   6.718  12.406 -0.8649 -0.1318  0.0762
10040TIP3   OH251534   0.431   1.115   6.285 -0.2667  0.3969  0.3027
10040TIP3    H151535   0.393   1.030   6.262  0.2188  0.5350 -1.0861
10040TIP3    H251536   0.461   1.105   6.375  0.5822 -1.2002 -0.1267
10041TIP3   OH251537   1.862   3.619   0.838  0.4512  0.1674 -0.0102
10041TIP3    H151538   1.767   3.607   0.833  0.6640 -1.4197 -1.5843
10041TIP3    H251539   1.878   3.705   0.799 -0.3790  0.7501  0.9159
10042TIP3   OH251540   0.925   4.839   2.387 -0.3723  0.1266 -0.2861
10042TIP3    H151541   0.979   4.808   2.460 -0.4454 -0.3098 -0.4139
10042TIP3    H251542   0.967   4.920   2.358  1.3227 -1.1706 -1.6207
10043TIP3   OH251543   3.063   2.846  14.780 -0.0472  0.3203  0.0822
10043TIP3    H151544   3.081   2.868  14.872 -0.3497 -0.1400  0.2553
10043TIP3    H251545   3.113   2.765  14.765  0.6186  0.8017 -0.3886
10044TIP3   OH251546   2.692   2.934   6.047  0.1776 -0.1422  0.0941
10044TIP3    H151547   2.767   2.953   6.104 -0.7005  0.4358  1.0876
10044TIP3    H251548   2.708   2.845   6.016  0.4755 -0.6423  1.6045
10045TIP3   OH251549   0.814   3.748   3.483 -0.0667 -0.7508  0.4105
10045TIP3    H151550   0.815   3.809   3.409 -2.2827 -0.9367  0.1641
10045TIP3    H251551   0.876   3.785   3.545  1.8159 -0.5473 -1.4663
10046TIP3   OH251552   5.986   3.683   4.753  0.4756 -0.1760  0.2212
10046TIP3    H151553   6.076   3.692   4.783  0.8814 -1.9470 -0.3739
10046TIP3    H251554   5.994   3.662   4.660 -0.5072 -0.9589  0.2956
10047TIP3   OH251555   2.914   0.388  16.111  0.2261 -0.0848 -0.5066
10047TIP3    H151556   2.897   0.313  16.054 -0.0468  0.1371 -0.7145
10047TIP3    H251557   2.979   0.440  16.064 -0.5651  0.4960 -0.9683
10048TIP3   OH251558   1.702   5.567  11.992  0.2233 -0.1801 -0.2046
10048TIP3    H151559   1.670   5.588  11.904  0.3946  1.6186  0.1268
10048TIP3    H251560   1.759   5.640  12.015  0.3696 -0.7333  1.3175
10049TIP3   OH251561   3.836   0.179   1.570 -0.0560  0.1825  0.1274
10049TIP3    H151562   3.748   0.148   1.592 -0.1356 -1.0221 -1.6725
10049TIP3    H251563   3.894   0.137   1.634 -0.4653 -1.6030 -0.6226
10050TIP3   OH251564   2.601   0.946  12.920 -0.0334  0.1986 -0.1629
10050TIP3    H151565   2.515   0.930  12.881 -0.0590  1.6049 -0.7294
10050TIP3    H251566   2.594   1.032  12.961  0.3881 -0.6886  1.9271
10051TIP3   OH251567   4.618   4.403  14.865  0.0715 -0.6269 -0.7469
10051TIP3    H151568   4.689   4.433  14.808 -1.2530 -2.0691 -3.3678
10051TIP3    H251569   4.550   4.470  14.856 -0.1838 -0.9144 -0.9879
10052TIP3   OH251570   0.637   2.939  14.021 -0.4219  0.4951 -0.3828
10052TIP3    H151571   0.688   2.870  14.063 -0.3708 -0.3907 -1.8431
10052TIP3    H251572   0.546   2.908  14.026 -0.7977  1.7158  1.5360
10053TIP3   OH251573   6.109   2.320  14.352  0.5907  0.5215 -0.0452
10053TIP3    H151574   6.113   2.312  14.447  2.3363  3.8788  0.3443
10053TIP3    H251575   6.139   2.236  14.319  0.3195 -0.6001  2.3501
10054TIP3   OH251576   0.739   4.847  11.433 -0.1924 -0.1473 -0.3702
10054TIP3    H151577   0.783   4.787  11.373 -2.5963 -2.1651 -0.2926
10054TIP3    H251578   0.649   4.851  11.401 -0.7297  1.3414  1.2056
10055TIP3   OH251579   2.952   0.474  15.267  0.1559  0.1767 -0.5312
10055TIP3    H151580   2.925   0.386  15.240  0.2257  0.2310 -0.7814
10055TIP3    H251581   2.895   0.533  15.217  2.5584  0.3888 -3.2552
10056TIP3   OH251582   1.861   3.484   1.827  0.4550  0.1329 -0.1679
10056TIP3    H151583   1.780   3.527   1.853  0.4027 -0.0882  0.0336
10056TIP3    H251584   1.847   3.391   1.846  0.8441  0.1247  0.0984
10057TIP3   OH251585   0.093   2.576   1.102 -0.7627  0.3668  0.5327
10057TIP3    H151586   0.024   2.589   1.037 -2.6523  1.9149  2.7345
10057TIP3    H251587   0.174   2.598   1.055 -2.0404  1.3371 -1.3205
10058TIP3   OH251588   0.019   1.028   4.605  0.1173  0.6039 -0.3506
10058TIP3    H151589  -0.035   1.025   4.684 -0.2666 -1.9900 -0.6230
10058TIP3    H251590  -0.044   1.035   4.534  0.0608 -2.0218 -0.6454
10059TIP3   OH251591   1.438   4.108   5.100  0.1621  0.2146  0.0879
10059TIP3    H151592   1.408   4.196   5.122 -0.4050  0.1215 -0.3065
10059TIP3    H251593   1.527   4.122   5.066  0.2332  0.5851  0.4150
10060TIP3   OH251594   1.920   6.570  13.244  0.3115  0.4285 -0.2165
10060TIP3    H151595   1.843   6.625  13.232 -0.8350 -0.8642  0.9514
10060TIP3    H251596   1.948   6.587  13.334 -0.0596 -0.8410  0.1663
10061TIP3   OH251597   3.816   4.375   0.222 -0.3344  0.8869 -0.2533
10061TIP3    H151598   3.783   4.294   0.183 -1.5525  1.1706  0.1423
10061TIP3    H251599   3.742   4.409   0.273  0.4385  1.7905  0.3050
10062TIP3   OH251600   4.078   3.969   3.322  0.6118 -0.1106 -0.6438
10062TIP3    H151601   4.000   4.005   3.364  0.6627  0.6001 -1.1597
10062TIP3    H251602   4.053   3.879   3.300 -0.5163  0.5037 -1.9715
10063TIP3   OH251603   0.231   0.949   5.866 -0.1975 -0.4383 -0.1586
10063TIP3    H151604   0.246   0.980   5.955  0.5277 -1.4415  0.0882
10063TIP3    H251605   0.297   0.993   5.813  0.6287 -1.2857  0.1376
10064TIP3   OH251606   2.761   4.151   5.411 -0.4441 -0.0427 -0.1801
10064TIP3    H151607   2.836   4.199   5.374 -0.4174 -1.4745 -2.1127
10064TIP3    H251608   2.696   4.219   5.430  0.6126  1.0244 -0.2389
10065TIP3   OH251609   1.120   3.305   2.913 -0.5374 -0.4112 -0.1400
10065TIP3    H151610   1.025   3.312   2.902 -0.6754 -0.9353  0.5928
10065TIP3    H251611   1.136   3.339   3.002 -0.1495 -1.0997  0.0606
10066TIP3   OH251612   3.442   5.468  12.556  0.4264  0.0635  0.1546
10066TIP3    H151613   3.403   5.553  12.537  1.1519  0.6861  1.3647
10066TIP3    H251614   3.533   5.477  12.527  0.9800  0.3187  1.9014
10067TIP3   OH251615   0.846   1.587   2.974  0.3208  0.3599  0.4247
10067TIP3    H151616   0.894   1.659   2.933  0.1998  0.2936  0.1661
10067TIP3    H251617   0.787   1.630   3.037 -0.3939  0.5615 -0.3607
10068TIP3   OH251618   6.709   1.002  13.448 -0.2821  0.2712 -0.4984
10068TIP3    H151619   6.631   1.049  13.477 -0.2041  0.3501 -0.4119
10068TIP3    H251620   6.745   1.057  13.378 -0.4902  0.0625 -0.7689
10069TIP3   OH251621   3.795   4.320   2.741 -0.2362  0.0657  0.3480
10069TIP3    H151622   3.767   4.365   2.821 -0.6079 -0.0741  0.2981
10069TIP3    H251623   3.843   4.243   2.771  0.1236  0.3177  0.4335
10070TIP3   OH251624   6.014   1.645   0.362  0.3579 -0.0082  0.5919
10070TIP3    H151625   5.991   1.555   0.380 -0.0083 -0.1608 -0.5507
10070TIP3    H251626   6.107   1.642   0.336 -0.4381 -0.6114 -2.7106
10071TIP3   OH251627   1.177   5.577  15.036  0.0260 -0.1690  0.7957
10071TIP3    H151628   1.116   5.611  14.970 -0.1691 -1.3983  0.3277
10071TIP3    H251629   1.234   5.517  14.988  0.3564 -0.5215  1.6057
10072TIP3   OH251630   5.757   6.296   1.270 -0.0594  0.0865  0.2846
10072TIP3    H151631   5.691   6.356   1.235  0.0421  0.2175  0.3152
10072TIP3    H251632   5.828   6.299   1.206  0.6543  1.2702  1.0968
10073TIP3   OH251633   4.904   0.555  16.530  0.1013  0.0967  0.1544
10073TIP3    H151634   4.978   0.612  16.510 -0.1107  0.8368  1.3918
10073TIP3    H251635   4.842   0.611  16.577 -0.4987 -0.9400  0.6357
10074TIP3   OH251636   5.623   0.871  15.330 -0.6919 -0.2488  0.1065
10074TIP3    H151637   5.640   0.888  15.423 -2.8536 -0.3714  0.5854
10074TIP3    H251638   5.557   0.937  15.306 -0.8542 -0.8237 -1.0819
10075TIP3   OH251639   0.620   4.207  11.794 -0.0859 -0.2437 -0.4157
10075TIP3    H151640   0.655   4.280  11.845  1.4399  0.0753 -1.8063
10075TIP3    H251641   0.565   4.248  11.727  0.2208 -0.4089 -0.7739
10076TIP3   OH251642   4.872   5.975   0.296 -0.0404  0.1709  0.2868
10076TIP3    H151643   4.875   5.944   0.205 -1.3754 -1.7336  0.8310
10076TIP3    H251644   4.940   5.925   0.341 -1.4131 -1.2428  0.9166
10077TIP3   OH251645   2.326   3.297  10.896  0.0280 -0.2768  0.0700
10077TIP3    H151646   2.398   3.307  10.834  0.2097 -1.2685  0.1120
10077TIP3    H251647   2.251   3.336  10.852  0.9332  2.4452  0.7497
10078TIP3   OH251648   6.629   3.884   0.153 -1.1049  0.0427 -0.1923
10078TIP3    H151649   6.651   3.953   0.216  1.1099 -3.0231  2.6943
10078TIP3    H251650   6.553   3.840   0.190 -0.7558 -0.8297 -0.4842
10079TIP3   OH251651   2.084   0.669  15.021 -0.4818  0.0803  0.3837
10079TIP3    H151652   2.002   0.674  15.070 -0.9168 -1.6157 -0.1087
10079TIP3    H251653   2.104   0.576  15.017  0.8314  0.3750 -0.5693
10080TIP3   OH251654   6.195   1.838   5.516  0.3866 -0.2828  0.2270
10080TIP3    H151655   6.162   1.748   5.524  0.8559 -0.7410 -2.0753
10080TIP3    H251656   6.186   1.875   5.604 -0.1875 -2.4447  1.1571
10081TIP3   OH251657   5.448   2.541  14.198 -0.1800 -0.1721  1.0457
10081TIP3    H151658   5.506   2.614  14.177 -0.8956  0.3127  0.7132
10081TIP3    H251659   5.431   2.549  14.292  0.4378 -0.4325  1.1834
10082TIP3   OH251660   3.985   5.751   1.401  0.0562 -0.0288 -0.2645
10082TIP3    H151661   3.913   5.689   1.414  0.2801 -0.1428  0.4295
10082TIP3    H251662   3.941   5.835   1.389 -0.1824 -0.0290  0.5644
10083TIP3   OH251663   2.473   1.756  16.953  0.7769  0.2487 -0.2225
10083TIP3    H151664   2.456   1.674  16.907  1.0155  1.2712 -2.2736
10083TIP3    H251665   2.390   1.804  16.949  1.2831  1.0829 -1.2362
10084TIP3   OH251666   4.161   2.700   6.543  0.5001  0.0600 -0.5110
10084TIP3    H151667   4.222   2.755   6.591 -1.6713  1.1245  1.2612
10084TIP3    H251668   4.151   2.622   6.597 -1.8984  1.2301  0.9174
10085TIP3   OH251669   6.555   1.994  12.137  0.5980 -0.8698  0.3946
10085TIP3    H151670   6.481   2.011  12.195  0.3192 -2.0015  0.3928
10085TIP3    H251671   6.526   2.022  12.051  0.3403 -0.8981  0.4737
10086TIP3   OH251672   6.447   1.449   5.110 -0.0224  0.1881  0.3289
10086TIP3    H151673   6.449   1.467   5.016  1.0323  0.2566  0.3581
10086TIP3    H251674   6.447   1.353   5.116  0.8471  0.1766  0.2628
10087TIP3   OH251675   1.641   0.564  12.466  0.2017 -0.3827 -0.8660
10087TIP3    H151676   1.658   0.571  12.560  1.6650 -1.9737 -0.9764
10087TIP3    H251677   1.547   0.551  12.460  0.2684 -1.7191  0.4941
10088TIP3   OH251678   6.252   0.466  15.703 -0.5494  0.1789  0.2909
10088TIP3    H151679   6.261   0.562  15.705 -0.2098  0.1351  1.7497
10088TIP3    H251680   6.253   0.444  15.610  0.1393  1.5259 -0.0479
10089TIP3   OH251681   0.713   6.289  15.019 -0.7380 -0.2216  0.2658
10089TIP3    H151682   0.805   6.270  15.002 -0.9240 -1.6243  0.6963
10089TIP3    H251683   0.665   6.223  14.968 -1.4901  0.1792  0.4404
10090TIP3   OH251684   5.862   5.242   5.843  0.1133  0.4884 -0.4430
10090TIP3    H151685   5.890   5.226   5.752  1.1812 -0.3189  0.0057
10090TIP3    H251686   5.944   5.241   5.893 -0.5614 -0.0127  0.6619
10091TIP3   OH251687   1.200   6.422   4.681  0.0616 -0.3015  0.0717
10091TIP3    H151688   1.161   6.446   4.765  0.8408  1.0334  0.0737
10091TIP3    H251689   1.126   6.389   4.629 -0.4502 -1.0388  1.2214
10092TIP3   OH251690   0.573   5.170   2.730  0.2565  0.3922 -0.2005
10092TIP3    H151691   0.637   5.237   2.751 -0.9284  1.9276 -1.2905
10092TIP3    H251692   0.594   5.145   2.640  0.0917 -0.0097 -0.1303
10093TIP3   OH251693   1.212   4.210  13.335 -0.1251  0.6218  0.1193
10093TIP3    H151694   1.302   4.241  13.329  0.2084 -0.1176  1.1431
10093TIP3    H251695   1.174   4.232  13.250  0.8774  1.3628 -0.1561
10094TIP3   OH251696   2.780   1.883  16.129 -0.2169 -0.0702 -0.1674
10094TIP3    H151697   2.756   1.791  16.130 -1.3792  0.1970  2.0242
10094TIP3    H251698   2.834   1.893  16.051 -0.2948 -2.5328 -0.6021
10095TIP3   OH251699   1.085   3.531  16.603 -0.3934  0.2723 -0.1485
10095TIP3    H151700   1.134   3.536  16.521  0.5672  0.7821  0.4346
10095TIP3    H251701   1.048   3.618  16.614  0.2997  0.4973  0.4422
10096TIP3   OH251702   1.637   1.671  12.733  0.4302  0.5942 -0.1452
10096TIP3    H151703   1.688   1.734  12.682  0.0114  0.2530 -0.9946
10096TIP3    H251704   1.548   1.707  12.733 -0.5628 -1.4962 -3.3145
10097TIP3   OH251705   2.099   2.007  15.370  0.0849 -0.1155  0.0044
10097TIP3    H151706   2.153   2.016  15.449  1.6396  0.6194 -1.0966
10097TIP3    H251707   2.024   2.063  15.387 -0.4515 -1.2432  1.6239
10098TIP3   OH251708   0.646   6.708  13.089 -0.1902  0.1684  0.7787
10098TIP3    H151709   0.609   6.777  13.144 -1.1856  1.9554 -1.9199
10098TIP3    H251710   0.736   6.699  13.119 -0.3599  1.8180  1.9564
10099TIP3   OH251711   0.074   0.559  14.804  0.3902  0.0733  0.0261
10099TIP3    H151712   0.039   0.476  14.771  1.3226 -0.5663  0.6070
10099TIP3    H251713   0.128   0.534  14.879  2.7964  0.9229 -1.3293
10100TIP3   OH251714   6.006   4.226   2.258 -0.0168 -0.4923 -0.3191
10100TIP3    H151715   5.998   4.208   2.164  1.8787 -2.9633 -0.1089
10100TIP3    H251716   6.099   4.246   2.271 -0.3323  0.2318  0.9834
10101TIP3   OH251717   0.536   3.022   3.542  0.2784 -0.3457 -1.1535
10101TIP3    H151718   0.475   3.095   3.536  1.1167  0.6153  0.9918
10101TIP3    H251719   0.487   2.954   3.589  0.0932 -0.5117 -1.5758
10102TIP3   OH251720   3.326   3.935   2.912 -0.4196 -0.0501 -0.0765
10102TIP3    H151721   3.275   3.980   2.845 -1.0662  0.3612  0.6724
10102TIP3    H251722   3.301   3.843   2.904 -2.8699  0.3856  1.5846
10103TIP3   OH251723   1.306   4.321   2.651  0.1216 -0.3588  0.4125
10103TIP3    H151724   1.379   4.260   2.642  0.8603  0.5857 -0.2688
10103TIP3    H251725   1.228   4.266   2.647  0.7768 -1.4574  1.7287
10104TIP3   OH251726   1.357   3.791  10.828  0.6575 -0.2272  0.3884
10104TIP3    H151727   1.415   3.761  10.898  1.1360 -1.3374 -0.4577
10104TIP3    H251728   1.400   3.763  10.747  0.3781  1.4903 -0.3895
10105TIP3   OH251729   6.096   4.318   2.687 -0.3159  0.2706  0.0592
10105TIP3    H151730   6.140   4.258   2.626  0.2090 -0.3260  0.9951
10105TIP3    H251731   6.010   4.332   2.649  0.0580  0.0233 -0.8970
10106TIP3   OH251732   6.707   2.614  15.999  0.1442  0.5740  0.0010
10106TIP3    H151733   6.629   2.660  16.030 -0.4294 -0.8861  0.7949
10106TIP3    H251734   6.701   2.618  15.903 -0.8973  0.4865  0.0594
10107TIP3   OH251735   0.604   4.944  11.133  0.0243 -0.1395  0.0906
10107TIP3    H151736   0.557   5.020  11.098  0.0169  0.4427  1.3068
10107TIP3    H251737   0.687   4.943  11.085 -0.2287  0.2843 -0.3603
10108TIP3   OH251738   2.863   6.585  10.504 -0.1640  0.6647 -0.3876
10108TIP3    H151739   2.816   6.585  10.420 -0.2379 -0.2875 -0.3603
10108TIP3    H251740   2.821   6.515  10.554  1.6827 -0.6603 -0.5996
10109TIP3   OH251741   4.710   0.087  12.094 -0.6454 -0.9211  0.1424
10109TIP3    H151742   4.686   0.113  12.005  1.7591  1.3768  0.0323
10109TIP3    H251743   4.737  -0.004  12.086  0.2172 -0.5496 -1.6739
10110TIP3   OH251744   0.987   2.881  14.524  0.1995 -0.2677 -0.2559
10110TIP3    H151745   1.029   2.798  14.549  1.1542 -0.0137 -0.9553
10110TIP3    H251746   0.895   2.858  14.512  0.4468 -1.2394 -0.4205
10111TIP3   OH251747   4.305   1.878  13.331 -0.2079 -0.6946 -0.7823
10111TIP3    H151748   4.220   1.916  13.313  0.0425 -0.0539 -0.6368
10111TIP3    H251749   4.345   1.866  13.245  0.1066  0.2989 -0.7800
10112TIP3   OH251750   3.636   5.886   1.760  0.2842 -0.4401  0.4580
10112TIP3    H151751   3.555   5.840   1.781  1.1409 -1.2626  2.2229
10112TIP3    H251752   3.616   5.978   1.774 -1.1157 -0.2932 -1.9440
10113TIP3   OH251753   5.830   4.090   4.104  0.4883 -0.0659 -0.7236
10113TIP3    H151754   5.778   4.168   4.085  0.9671  0.5183  0.3116
10113TIP3    H251755   5.902   4.094   4.040 -0.4954 -0.6693 -1.8992
10114TIP3   OH251756   0.696   3.848  16.313  0.0376  0.2946 -0.3223
10114TIP3    H151757   0.610   3.886  16.294  0.6778  0.7435 -2.4665
10114TIP3    H251758   0.675   3.768  16.362 -1.6414  0.0519 -1.3531
10115TIP3   OH251759   5.493   5.602  15.385 -0.2223  0.4875  0.2656
10115TIP3    H151760   5.508   5.540  15.314  0.8293  1.1971 -0.1657
10115TIP3    H251761   5.579   5.640  15.402 -0.1089 -0.8152  3.0562
10116TIP3   OH251762   1.147   1.861  13.979 -0.2065 -0.1553  0.1714
10116TIP3    H151763   1.214   1.901  14.035  2.1692 -3.5897  0.1115
10116TIP3    H251764   1.081   1.828  14.040 -0.1616  0.4172  0.5312
10117TIP3   OH251765   1.206   5.218   5.368 -0.2854  0.4572 -0.5182
10117TIP3    H151766   1.159   5.139   5.396  0.4462  0.4038  0.6140
10117TIP3    H251767   1.218   5.268   5.449  1.0678  0.7533 -0.8835
10118TIP3   OH251768   5.339   4.667   3.557 -0.3165 -0.5630 -0.5930
10118TIP3    H151769   5.391   4.740   3.523 -0.2767  0.5857  1.7123
10118TIP3    H251770   5.404   4.599   3.576  0.0729 -0.0056  0.1247
10119TIP3   OH251771   2.764   4.117  16.440 -0.1716 -0.4239  0.0381
10119TIP3    H151772   2.719   4.140  16.521 -0.1407  2.8266 -0.6987
10119TIP3    H251773   2.702   4.061  16.393 -0.3853 -1.9313  2.0373
10120TIP3   OH251774   2.792   1.955  11.135  0.8058 -0.1988  0.1398
10120TIP3    H151775   2.831   1.908  11.061  2.3021 -0.1759  0.8810
10120TIP3    H251776   2.784   1.890  11.204 -0.7445 -0.2588 -0.0584
10121TIP3   OH251777   2.792   5.403   1.429  0.2354 -0.6801 -0.2662
10121TIP3    H151778   2.835   5.323   1.459  0.2394 -0.8845 -0.7932
10121TIP3    H251779   2.862   5.468   1.426  0.4177 -0.8909 -0.6803
10122TIP3   OH251780   0.984   3.141   0.583  0.1771 -0.3623 -0.7929
10122TIP3    H151781   0.932   3.074   0.538 -0.0427 -0.5541 -0.2584
10122TIP3    H251782   0.952   3.224   0.547 -1.6585 -0.3668  0.6633
10123TIP3   OH251783   1.452   5.329  16.874 -0.0286 -0.3178 -0.0298
10123TIP3    H151784   1.546   5.344  16.864 -0.0576 -0.1711 -0.0853
10123TIP3    H251785   1.425   5.293  16.790 -0.0417 -0.2662 -0.0474
10124TIP3   OH251786   6.195   6.772  13.242  0.4109 -0.1980 -0.1300
10124TIP3    H151787   6.198   6.741  13.332  2.1431  1.5110  0.4707
10124TIP3    H251788   6.254   6.713  13.194  1.1523  0.1589  0.3253
10125TIP3   OH251789   1.659   3.343   3.455  0.2920  0.0615 -0.1554
10125TIP3    H151790   1.600   3.336   3.380 -1.1124 -1.3583  1.0283
10125TIP3    H251791   1.684   3.435   3.457 -0.2898  0.2993 -1.8499
10126TIP3   OH251792   1.468   0.984  13.181 -0.1755  0.3587 -0.1162
10126TIP3    H151793   1.454   0.943  13.095  0.4602 -1.4288  0.6034
10126TIP3    H251794   1.400   0.946  13.236 -0.3316  1.2087  0.2904
10127TIP3   OH251795   6.088   3.709   4.501 -0.5976 -0.2377  0.8493
10127TIP3    H151796   6.116   3.791   4.540  0.9634  1.7602 -3.7411
10127TIP3    H251797   6.003   3.728   4.462  0.9334  0.3323 -2.5926
10128TIP3   OH251798   5.041   3.445  14.472  0.1076  0.8091 -0.0905
10128TIP3    H151799   4.993   3.395  14.538 -0.9594 -0.4141 -1.7162
10128TIP3    H251800   5.133   3.427  14.490 -0.1975 -0.2078  0.5272
10129TIP3   OH251801   5.957   1.180   1.494  0.3010  0.6682  0.6226
10129TIP3    H151802   6.006   1.211   1.570 -0.7057 -0.3656  1.7205
10129TIP3    H251803   5.941   1.088   1.512 -0.0756  0.4375 -0.7939
10130TIP3   OH251804   0.699   1.165  13.015 -0.5717  0.4745  0.3631
10130TIP3    H151805   0.623   1.150  12.958  0.1210 -0.3558 -0.3661
10130TIP3    H251806   0.712   1.082  13.060  0.3578  0.3513 -0.1001
10131TIP3   OH251807   1.518   6.381   4.938  0.3587  0.1960 -0.0757
10131TIP3    H151808   1.512   6.417   4.850  0.4937  0.1443 -0.1073
10131TIP3    H251809   1.472   6.444   4.994 -1.7538 -0.9043 -0.4938
10132TIP3   OH251810   3.455   1.946  12.836 -0.0931 -0.4811  0.3730
10132TIP3    H151811   3.377   1.978  12.790  0.4448  1.0945  0.5191
10132TIP3    H251812   3.521   2.015  12.824  1.5049 -2.0463 -0.2671
10133TIP3   OH251813   0.814   5.749   4.495 -0.7216 -0.0466 -0.8873
10133TIP3    H151814   0.827   5.783   4.584  0.3634  0.2270 -1.1295
10133TIP3    H251815   0.731   5.788   4.466 -1.1504 -0.2426  0.0494
10134TIP3   OH251816   4.806   3.614   0.150  0.3784  0.6130 -0.3109
10134TIP3    H151817   4.777   3.576   0.233  2.4023  0.1217  0.2493
10134TIP3    H251818   4.780   3.550   0.084 -0.8258  0.7710 -0.0039
10135TIP3   OH251819   4.868   1.521  13.372  0.6113  0.1200 -0.0697
10135TIP3    H151820   4.897   1.445  13.421 -1.7575 -0.3898  0.6722
10135TIP3    H251821   4.927   1.591  13.398  0.2615 -0.4659  2.4862
10136TIP3   OH251822   0.815   0.838   6.282  0.1918 -0.2596 -0.2965
10136TIP3    H151823   0.778   0.918   6.246 -1.7543 -1.1156 -0.3087
10136TIP3    H251824   0.748   0.805   6.341  1.6011 -1.0798  0.9322
10137TIP3   OH251825   6.580   3.041   4.761  0.5558 -0.0177 -0.6356
10137TIP3    H151826   6.566   3.130   4.729  0.3934 -0.1996 -1.0794
10137TIP3    H251827   6.505   3.023   4.817  0.6429  0.1629 -0.4612
10138TIP3   OH251828   2.420   4.779  14.034  0.3832  0.3244 -0.3863
10138TIP3    H151829   2.494   4.748  14.086 -0.5463  0.3708  1.0281
10138TIP3    H251830   2.382   4.699  13.996 -0.2290  0.0091  0.8241
10139TIP3   OH251831   2.783   0.439  11.497 -0.3918  0.3897 -0.1811
10139TIP3    H151832   2.791   0.501  11.425  0.4217  0.3166 -0.1605
10139TIP3    H251833   2.730   0.485  11.562  0.6676  1.2947  0.0756
10140TIP3   OH251834   3.680   4.069  11.594 -0.4012 -0.3767  0.6587
10140TIP3    H151835   3.662   3.977  11.579 -2.8642 -0.0558  1.2445
10140TIP3    H251836   3.606   4.100  11.647 -0.1043  2.1342 -0.2562
10141TIP3   OH251837   1.516   3.325  14.882  0.2100 -0.4346  0.2441
10141TIP3    H151838   1.435   3.277  14.898 -0.2614  0.9493  2.3473
10141TIP3    H251839   1.488   3.414  14.860  1.0903 -0.8091 -2.9423
10142TIP3   OH251840   1.336   3.833  11.661 -0.0375 -0.0463  0.0819
10142TIP3    H151841   1.292   3.914  11.685 -0.5334  0.1638 -1.4321
10142TIP3    H251842   1.297   3.766  11.717 -1.5989  0.3020 -0.5547
10143TIP3   OH251843   3.490   3.557   4.748  0.1819  0.5660  0.1777
10143TIP3    H151844   3.568   3.536   4.696  0.7735 -2.0748  1.9177
10143TIP3    H251845   3.493   3.495   4.821 -1.8446  2.5335  2.0943
10144TIP3   OH251846   4.669   2.704   4.416  0.7424  0.2443 -0.2942
10144TIP3    H151847   4.721   2.784   4.421  1.7880 -0.2946 -1.7938
10144TIP3    H251848   4.733   2.633   4.419 -0.0025 -0.4753 -0.9322
10145TIP3   OH251849   5.171   3.081  13.255  0.3740  0.4741 -0.4332
10145TIP3    H151850   5.213   2.996  13.244 -0.6974 -0.1462  0.1037
10145TIP3    H251851   5.242   3.145  13.247  1.6028 -0.5828  1.4941
10146TIP3   OH251852   0.181   5.553   0.248  0.2329 -0.0464 -0.1187
10146TIP3    H151853   0.194   5.475   0.195  0.2634 -0.8838  1.0776
10146TIP3    H251854   0.199   5.626   0.189 -0.1288 -0.9231 -1.3534
10147TIP3   OH251855   4.443   4.904  12.558 -0.1299  0.0968  0.0300
10147TIP3    H151856   4.397   4.822  12.539 -0.0004 -0.2889  1.2337
10147TIP3    H251857   4.535   4.886  12.538 -0.1331  0.0005  0.0979
10148TIP3   OH251858   3.278   1.716   3.019 -0.7904  0.5762  0.5321
10148TIP3    H151859   3.256   1.652   3.086 -0.2546  1.6661  1.7816
10148TIP3    H251860   3.369   1.696   2.997 -1.3124 -0.5409 -0.7876
10149TIP3   OH251861   5.877   2.854  15.155  0.1505 -0.3633 -0.4141
10149TIP3    H151862   5.782   2.841  15.159 -0.1980  0.4422 -3.3995
10149TIP3    H251863   5.890   2.943  15.186 -0.1522 -0.2776 -0.5223
10150TIP3   OH251864   6.449   0.187  12.947  0.2474  0.5891  0.1178
10150TIP3    H151865   6.499   0.227  13.018 -0.9720  0.7658  0.9055
10150TIP3    H251866   6.360   0.177  12.982  0.1477 -1.4556 -0.5548
10151TIP3   OH251867   6.181   5.340  16.142  0.4263  0.2525 -0.2833
10151TIP3    H151868   6.100   5.288  16.143  0.0934  0.7690  0.4919
10151TIP3    H251869   6.242   5.290  16.196 -0.1892  1.0849  1.2596
10152TIP3   OH251870   6.027   6.812  12.115 -0.4902 -0.3805 -0.1808
10152TIP3    H151871   6.093   6.816  12.184  0.6406  0.6705 -1.2935
10152TIP3    H251872   6.004   6.903  12.098 -2.2574 -0.7099  0.1595
10153TIP3   OH251873   1.376   1.370   5.513 -0.3831 -0.2870 -0.1116
10153TIP3    H151874   1.400   1.459   5.486  0.6098 -0.2035  0.9787
10153TIP3    H251875   1.282   1.376   5.532 -0.0435  0.9329  1.4119
10154TIP3   OH251876   3.865   1.153  16.524  0.8990  0.0088  0.4709
10154TIP3    H151877   3.879   1.116  16.611  0.6819  1.0015  0.9328
10154TIP3    H251878   3.816   1.085  16.477 -0.4810  0.1439  1.6537
10155TIP3   OH251879   5.343   2.510   2.688  0.0011  0.4759  0.0963
10155TIP3    H151880   5.336   2.604   2.676 -2.0514 -0.0239 -5.5119
10155TIP3    H251881   5.264   2.486   2.737 -0.1442  1.5340  0.3925
10156TIP3   OH251882   2.414   0.655  12.935 -0.6370 -0.2152 -0.0331
10156TIP3    H151883   2.497   0.608  12.928 -1.4202 -1.4192 -2.5863
10156TIP3    H251884   2.373   0.620  13.014  0.0183 -1.8211 -0.3626
10157TIP3   OH251885   2.471   2.097  12.736  0.5586 -0.2175 -0.0450
10157TIP3    H151886   2.499   2.188  12.727  0.1130  0.1939  2.2194
10157TIP3    H251887   2.392   2.091  12.682  0.4326  0.8026  0.0126
10158TIP3   OH251888   3.782   2.219  15.777 -0.3836 -0.5074 -0.4710
10158TIP3    H151889   3.874   2.204  15.755 -0.1951  1.1653 -0.9581
10158TIP3    H251890   3.759   2.301  15.733 -1.9241 -0.5334  0.1918
10159TIP3   OH251891   6.152   4.766   6.083 -0.6439  0.5086 -0.1117
10159TIP3    H151892   6.173   4.756   5.990  0.0317 -1.5968  0.2142
10159TIP3    H251893   6.174   4.857   6.103  1.4911  0.3482 -1.4498
10160TIP3   OH251894   6.352   6.688  16.208 -0.3421 -0.3808  0.0209
10160TIP3    H151895   6.411   6.760  16.231  1.0310 -0.9339 -1.6027
10160TIP3    H251896   6.402   6.633  16.148 -2.2288 -1.3084 -0.8103
10161TIP3   OH251897   0.057   4.191   4.634 -0.0075  0.0511  0.6532
10161TIP3    H151898   0.018   4.160   4.716  0.3374 -1.0245  0.4206
10161TIP3    H251899   0.020   4.133   4.567  1.1546 -0.3010  0.2945
10162TIP3   OH251900   4.839   0.287   6.006  0.6731 -0.3676  0.0386
10162TIP3    H151901   4.814   0.281   6.098 -1.6919  2.7131 -0.2495
10162TIP3    H251902   4.932   0.311   6.008  1.0724 -1.8490  1.4983
10163TIP3   OH251903   5.747   3.921  12.165 -0.1247 -0.1315 -0.5401
10163TIP3    H151904   5.776   3.876  12.245  1.5576 -0.1131 -1.1029
10163TIP3    H251905   5.700   3.998  12.197 -1.1156 -1.0894  0.4227
10164TIP3   OH251906   3.228   1.297  15.066 -0.2592 -0.0807  0.1864
10164TIP3    H151907   3.250   1.390  15.075 -1.5436  0.4143 -1.4019
10164TIP3    H251908   3.148   1.286  15.118 -0.6205 -0.0757 -0.3608
10165TIP3   OH251909   1.629   6.688  11.578 -0.4415  1.2607 -0.2682
10165TIP3    H151910   1.631   6.640  11.660 -3.1824 -0.2572 -0.9969
10165TIP3    H251911   1.557   6.750  11.588  0.8453  2.9036 -0.6434
10166TIP3   OH251912   2.871   0.214   2.932 -0.0565 -0.1909  0.1115
10166TIP3    H151913   2.884   0.207   3.027 -0.6561  0.2555  0.2388
10166TIP3    H251914   2.937   0.277   2.904  0.3518 -0.5875  0.1758
10167TIP3   OH251915   4.844   1.371   3.450  0.0532 -0.2522 -0.1859
10167TIP3    H151916   4.846   1.454   3.499  1.0774 -0.9925  1.0777
10167TIP3    H251917   4.854   1.398   3.358  0.2457  1.0347  0.1850
10168TIP3   OH251918   5.193   5.291   5.902  0.9545 -0.2914 -0.2240
10168TIP3    H151919   5.149   5.373   5.924  0.0031 -0.7768 -0.2848
10168TIP3    H251920   5.213   5.252   5.987 -1.0216 -1.2624 -0.1547
10169TIP3   OH251921   3.740   0.589  16.247 -0.6498  0.2031  0.2837
10169TIP3    H151922   3.820   0.621  16.289 -0.3584  0.6258 -0.5752
10169TIP3    H251923   3.680   0.663  16.249 -0.1943  0.6576 -1.1386
10170TIP3   OH251924   5.659   5.002   4.419  0.1759 -0.2814  1.1460
10170TIP3    H151925   5.585   4.953   4.455  0.3034 -0.7210  0.8169
10170TIP3    H251926   5.625   5.039   4.337  1.4858 -3.9849 -1.2716
10171TIP3   OH251927   0.514   0.082  13.624 -0.0621  0.1127 -0.4256
10171TIP3    H151928   0.515   0.031  13.705 -1.1289  0.3022 -0.2706
10171TIP3    H251929   0.561   0.028  13.561  3.0134  1.0592  0.8963
10172TIP3   OH251930   1.156   6.070   3.770 -0.2676  0.1003 -0.0812
10172TIP3    H151931   1.204   5.987   3.776  0.9789  0.8252  0.3234
10172TIP3    H251932   1.071   6.046   3.733 -0.2263 -1.4711  0.7705
10173TIP3   OH251933   0.967   0.913   4.904  0.4111  0.3177  0.1370
10173TIP3    H151934   0.874   0.913   4.927  0.2832 -0.2490 -0.3627
10173TIP3    H251935   1.011   0.941   4.985 -0.2071  0.9022  0.2847
10174TIP3   OH251936   2.420   0.025  16.226  0.4157  0.1212  0.0898
10174TIP3    H151937   2.347  -0.004  16.173 -0.0579 -2.9323  2.1331
10174TIP3    H251938   2.493   0.034  16.165 -0.6613 -0.9295 -1.4093
10175TIP3   OH251939   2.743   2.707  13.309 -0.4060 -0.4682 -0.0377
10175TIP3    H151940   2.660   2.703  13.357 -0.3099 -0.2893  0.1431
10175TIP3    H251941   2.807   2.665  13.367 -0.2856 -0.2364 -0.0012
10176TIP3   OH251942   3.027   0.717   0.405  0.0016 -0.1380  0.1280
10176TIP3    H151943   3.077   0.640   0.378  0.1165 -0.2272  0.5848
10176TIP3    H251944   2.992   0.694   0.491  0.5722  0.5558  0.5587
10177TIP3   OH251945   3.140   6.447  11.152 -0.7460  0.2343  0.1143
10177TIP3    H151946   3.099   6.418  11.070 -0.3957  0.2202 -0.0598
10177TIP3    H251947   3.227   6.407  11.150 -1.1087 -0.6354  0.9927
10178TIP3   OH251948   6.532   5.603   3.468  0.0948 -0.0977 -0.0849
10178TIP3    H151949   6.490   5.568   3.547  0.2230 -1.1662 -0.4719
10178TIP3    H251950   6.501   5.693   3.462 -1.1438 -0.4814  0.3267
10179TIP3   OH251951   2.078   6.723   4.658  0.0948 -0.1536  0.3477
10179TIP3    H151952   2.170   6.724   4.683  0.6272  0.8212 -1.4811
10179TIP3    H251953   2.077   6.755   4.568 -2.2148  1.6757  0.9246
10180TIP3   OH251954   4.962   3.108   0.589  0.1694 -0.0445  0.8500
10180TIP3    H151955   5.048   3.089   0.553 -1.2709 -1.5678 -2.2172
10180TIP3    H251956   4.972   3.191   0.635  2.7911  0.9850 -1.3419
10181TIP3   OH251957   5.802   2.013  11.631 -0.4594 -0.0401 -0.7468
10181TIP3    H151958   5.751   1.933  11.619 -0.4076  0.0737 -1.8329
10181TIP3    H251959   5.774   2.070  11.559  0.2167  0.5436 -0.5609
10182TIP3   OH251960   3.876   2.411  11.612 -0.0864 -0.0976 -0.6688
10182TIP3    H151961   3.801   2.463  11.582  0.3624  1.3679  0.6199
10182TIP3    H251962   3.845   2.321  11.612 -2.0156  0.5334  0.3037
10183TIP3   OH251963   2.466   1.918   4.262 -0.1034 -0.1427 -0.3767
10183TIP3    H151964   2.451   1.863   4.185 -2.5527  0.2716 -0.2999
10183TIP3    H251965   2.557   1.903   4.286 -0.3132 -3.1933 -1.0781
10184TIP3   OH251966   0.902   3.594  11.943 -0.0130 -0.1203  0.4933
10184TIP3    H151967   0.813   3.613  11.914  0.0868  0.1165  0.3393
10184TIP3    H251968   0.904   3.499  11.955  0.2844 -0.3927 -1.4231
10185TIP3   OH251969   2.171   3.590   5.410 -1.1030 -0.2607  0.3303
10185TIP3    H151970   2.156   3.498   5.385 -1.5844 -0.1323  0.1390
10185TIP3    H251971   2.099   3.638   5.369 -0.9809  0.1744  0.6203
10186TIP3   OH251972   2.479   6.804  11.690 -0.4711  0.0653 -0.4829
10186TIP3    H151973   2.540   6.802  11.616 -2.2666 -2.2949 -2.0525
10186TIP3    H251974   2.509   6.732  11.747 -0.3823  0.4721 -0.0078
10187TIP3   OH251975   5.152   6.516   1.813 -0.0751 -0.2553  0.3272
10187TIP3    H151976   5.179   6.577   1.881 -1.4172 -0.5945  1.1944
10187TIP3    H251977   5.123   6.572   1.741 -2.2579  0.2096  1.4865
10188TIP3   OH251978   3.265   0.173   1.804  0.2673 -0.5616  0.1788
10188TIP3    H151979   3.335   0.231   1.776  0.5670 -0.8081  0.4044
10188TIP3    H251980   3.305   0.086   1.805 -0.1731 -0.7728 -0.1559
10189TIP3   OH251981   5.762   0.259   3.189 -0.1115  0.2678 -0.3986
10189TIP3    H151982   5.848   0.227   3.162  0.7754  1.5911  0.6796
10189TIP3    H251983   5.728   0.191   3.247 -1.0336 -1.5125 -2.8399
10190TIP3   OH251984   1.553   6.741  16.160 -0.9225  0.1522  0.0835
10190TIP3    H151985   1.539   6.802  16.232 -1.1587 -0.7610  0.8275
10190TIP3    H251986   1.637   6.766  16.123 -0.6461  0.4328  0.8894
10191TIP3   OH251987   0.640   0.950  12.016 -0.9731  0.0160 -0.0707
10191TIP3    H151988   0.639   0.968  12.110 -0.7680 -1.4784  0.2444
10191TIP3    H251989   0.730   0.923  11.998 -0.9714  0.4511 -0.7369
10192TIP3   OH251990   4.010   1.337   5.545  0.5136  0.4770  0.1178
10192TIP3    H151991   3.992   1.317   5.453  0.1532  1.6743 -0.0847
10192TIP3    H251992   4.091   1.388   5.543  0.9507 -0.1799  0.5489
10193TIP3   OH251993   2.885   0.751  11.084 -0.1820 -0.2184  0.3355
10193TIP3    H151994   2.859   0.844  11.087 -1.0436 -0.4721  1.6036
10193TIP3    H251995   2.890   0.731  10.991 -1.4377  0.7290  0.0283
10194TIP3   OH251996   4.765   6.441  12.357  0.1221  0.9456 -0.0244
10194TIP3    H151997   4.802   6.354  12.373 -3.1966 -0.5197  0.6437
10194TIP3    H251998   4.729   6.434  12.268 -0.1802  1.6112  0.0447
10195TIP3   OH251999   5.869   4.945   2.652  0.3055  0.1434 -0.0787
10195TIP3    H152000   5.891   4.889   2.727 -2.1031  1.0072  1.4004
10195TIP3    H252001   5.846   5.029   2.692 -1.4118  0.5224 -1.7386
10196TIP3   OH252002   2.702   5.875   4.298  0.3113  0.8659  0.1245
10196TIP3    H152003   2.614   5.880   4.262  0.9966  1.7463 -1.5561
10196TIP3    H252004   2.731   5.785   4.277  0.1714  0.9043 -0.2402
10197TIP3   OH252005   4.953   3.569  12.818 -0.2912  0.1457 -0.0765
10197TIP3    H152006   4.887   3.566  12.887 -0.2028 -0.8432 -0.0102
10197TIP3    H252007   4.922   3.506  12.753  1.0004 -0.9911  0.3579
10198TIP3   OH252008   3.226   6.174  13.438 -0.0978 -0.3275  0.6529
10198TIP3    H152009   3.196   6.211  13.355  1.0594  0.2790  0.4734
10198TIP3    H252010   3.149   6.175  13.494 -0.5548  0.5901  0.0342
10199TIP3   OH252011   2.547   6.381   6.438 -0.1617  0.3313  0.1372
10199TIP3    H152012   2.508   6.447   6.496  0.5843  0.5487  0.3995
10199TIP3    H252013   2.622   6.425   6.398  0.3211 -0.3368  0.2797
10200TIP3   OH252014   2.741   4.798   2.259 -0.3594 -0.3115 -0.1347
10200TIP3    H152015   2.798   4.843   2.321  1.2254 -0.5331 -1.3692
10200TIP3    H252016   2.660   4.849   2.259 -0.9682 -1.0515  3.0659
10201TIP3   OH252017   5.035   4.603   2.241 -0.3162  0.4238  0.1879
10201TIP3    H152018   5.115   4.553   2.258 -0.4327  0.2631  0.2627
10201TIP3    H252019   5.054   4.690   2.277  1.2552  1.6064 -3.1070
10202TIP3   OH252020   4.731   1.731  13.578 -0.1145  0.5142  0.3246
10202TIP3    H152021   4.705   1.653  13.626  1.8888 -1.3757 -1.4873
10202TIP3    H252022   4.662   1.743  13.512 -0.1679 -0.0340  0.2787
10203TIP3   OH252023   3.083   2.724   0.923  0.0321 -0.0298  0.1262
10203TIP3    H152024   3.007   2.739   0.978  0.0204  0.9198 -0.1411
10203TIP3    H252025   3.115   2.811   0.901  1.0531 -0.4126  0.0308
10204TIP3   OH252026   6.569   1.193   1.202  0.2609  0.3829 -0.3685
10204TIP3    H152027   6.664   1.201   1.192 -0.0060  2.0320 -2.0435
10204TIP3    H252028   6.547   1.255   1.271  0.4502 -0.5136  0.5216
10205TIP3   OH252029   1.973   1.015  12.300 -0.1842  0.7186 -0.0271
10205TIP3    H152030   1.908   0.967  12.352 -0.0552  0.9777  0.3795
10205TIP3    H252031   2.035   0.948  12.271 -0.4620  0.5164 -0.1573
10206TIP3   OH252032   3.216   1.488  16.515 -0.0215  0.1080 -0.3201
10206TIP3    H152033   3.131   1.531  16.523 -0.6594 -1.1179 -0.2717
10206TIP3    H252034   3.242   1.470  16.605  0.0433  0.0130 -0.3573
10207TIP3   OH252035   6.625   1.867  10.774 -0.1813 -1.2312  0.2457
10207TIP3    H152036   6.540   1.864  10.818 -1.3044  1.6885 -1.4480
10207TIP3    H252037   6.621   1.797  10.709 -2.6418  0.6602 -1.8357
10208TIP3   OH252038   6.588   2.905  11.691 -0.1152 -0.0578  0.0803
10208TIP3    H152039   6.525   2.948  11.632  0.4922 -1.3706 -1.6217
10208TIP3    H252040   6.613   2.826  11.644  2.7481  0.3682  0.7306
10209TIP3   OH252041   3.169   2.146  12.722  0.0992 -0.7583  0.4304
10209TIP3    H152042   3.182   2.183  12.810 -1.9856  0.1439  0.4393
10209TIP3    H252043   3.210   2.210  12.663  2.4712 -1.9125  0.7474
10210TIP3   OH252044   0.809   2.815  17.015 -0.3233  0.5680  0.8452
10210TIP3    H152045   0.810   2.818  16.919  0.8375 -2.0250  0.6863
10210TIP3    H252046   0.845   2.899  17.042  2.2313  0.2082 -1.0951
10211TIP3   OH252047   1.276   1.196   4.807 -0.1302 -0.6558 -0.3464
10211TIP3    H152048   1.256   1.120   4.861 -0.5177 -1.3919 -1.4913
10211TIP3    H252049   1.212   1.192   4.735  0.7987 -0.0925 -1.2330
10212TIP3   OH252050   4.011   2.134  14.189  0.0287  0.6150  0.0752
10212TIP3    H152051   4.029   2.181  14.271  0.4385  1.1455 -0.3144
10212TIP3    H252052   3.915   2.126  14.187  0.0852 -1.3524  1.6797
10213TIP3   OH252053   2.317   0.866  14.249  0.5800  0.0619 -0.0951
10213TIP3    H152054   2.228   0.844  14.224  0.4858  0.9788 -0.6264
10213TIP3    H252055   2.357   0.783  14.273 -0.3850 -0.3700  0.0556
10214TIP3   OH252056   0.443   3.720   1.579 -0.4427 -0.2540  1.0581
10214TIP3    H152057   0.425   3.811   1.555 -1.1041 -0.6485 -0.0043
10214TIP3    H252058   0.357   3.679   1.587 -0.1332 -1.1562  0.0193
10215TIP3   OH252059   5.223   4.382   4.024 -0.5753 -0.0421 -0.0487
10215TIP3    H152060   5.148   4.325   4.004  0.0382 -0.5039 -1.1143
10215TIP3    H252061   5.214   4.401   4.117 -1.2010 -1.2981  0.1702
10216TIP3   OH252062   6.183   0.117  12.327 -0.6556  0.4559 -0.2228
10216TIP3    H152063   6.264   0.141  12.373  0.1325  0.3042 -1.5058
10216TIP3    H252064   6.141   0.201  12.307  0.4056  0.6601 -1.6926
10217TIP3   OH252065   5.481   1.413  11.349  0.2116  0.1417  0.7612
10217TIP3    H152066   5.498   1.499  11.387  2.2085 -0.9418  2.6110
10217TIP3    H252067   5.390   1.416  11.320  0.5758  3.2240 -0.3720
10218TIP3   OH252068   4.004   5.750  16.814 -0.9701  0.0295  0.0860
10218TIP3    H152069   4.012   5.669  16.763  0.4476  0.1843  0.0296
10218TIP3    H252070   3.970   5.720  16.899  1.6730 -1.0001  0.8650
10219TIP3   OH252071   3.565   3.914  13.115  0.8633 -0.7691  0.4214
10219TIP3    H152072   3.528   3.826  13.104  2.0088 -1.1867 -0.3391
10219TIP3    H252073   3.602   3.913  13.203  1.6641 -1.3842  0.0947
10220TIP3   OH252074   4.854   0.015  10.596 -0.0768 -0.4614 -0.3044
10220TIP3    H152075   4.935  -0.004  10.548 -0.4918  0.6900 -1.5316
10220TIP3    H252076   4.812  -0.070  10.606  0.6138 -0.8892 -0.9131
10221TIP3   OH252077   0.489   0.472   0.132  0.0449 -0.4207  0.1775
10221TIP3    H152078   0.540   0.450   0.209 -0.8325 -0.6738  0.6996
10221TIP3    H252079   0.440   0.392   0.112 -0.6080 -0.0030  0.0589
10222TIP3   OH252080   1.293   3.704  16.779  0.0949  0.5473 -0.3505
10222TIP3    H152081   1.387   3.713  16.764 -0.1488  1.8848 -1.2401
10222TIP3    H252082   1.255   3.709  16.691 -0.7549 -0.9820 -0.0951
10223TIP3   OH252083   2.842   5.841  11.719 -0.2230 -0.2550  0.0201
10223TIP3    H152084   2.878   5.765  11.672  0.2338 -1.2283  1.8426
10223TIP3    H252085   2.918   5.884  11.758 -0.6541  0.0301  0.5620
10224TIP3   OH252086   1.572   5.289  13.221 -0.7385  0.2459 -0.2495
10224TIP3    H152087   1.569   5.277  13.126 -1.1084  1.4308 -0.4037
10224TIP3    H252088   1.663   5.313  13.239 -0.1963 -1.7736 -0.0380
10225TIP3   OH252089   2.564   3.246   1.511  0.3612  0.1219 -0.6119
10225TIP3    H152090   2.610   3.329   1.500  2.4870 -0.8762  0.2037
10225TIP3    H252091   2.620   3.194   1.569 -2.0371 -1.0380  0.8775
10226TIP3   OH252092   4.677   3.285   4.734 -0.2201 -0.2057 -0.8311
10226TIP3    H152093   4.727   3.264   4.813  1.4898  1.4590 -1.3749
10226TIP3    H252094   4.714   3.228   4.667  1.2126  1.1731 -1.2818
10227TIP3   OH252095   2.097   6.811  14.721  0.1330  0.7190  0.6491
10227TIP3    H152096   2.148   6.855  14.654 -0.5714 -0.4077 -0.6869
10227TIP3    H252097   2.011   6.798  14.681 -0.6375  0.9492  2.1658
10228TIP3   OH252098   3.520   6.543  12.608 -0.4121 -0.3127  0.0435
10228TIP3    H152099   3.475   6.486  12.671 -1.5397 -1.4522 -1.6980
10228TIP3    H252100   3.487   6.631  12.628 -0.2216 -0.5408  1.4547
10229TIP3   OH252101   0.968   6.033   6.054 -0.1632  0.2595  0.2422
10229TIP3    H152102   0.899   6.048   6.118  0.1196 -1.1550  0.9050
10229TIP3    H252103   1.006   6.120   6.040 -1.8966  1.0273  0.0309
10230TIP3   OH252104   4.072   3.632  14.235  0.2914  0.2728  0.2593
10230TIP3    H152105   3.995   3.633  14.179  0.3148 -2.9209 -0.0176
10230TIP3    H252106   4.038   3.647  14.323 -0.5321 -0.1884  0.0336
10231TIP3   OH252107   5.656   5.711   5.653 -0.0986  0.4103 -0.3499
10231TIP3    H152108   5.628   5.776   5.589 -0.5282  0.9942  0.4184
10231TIP3    H252109   5.685   5.636   5.600  0.5384  1.2674 -1.2465
10232TIP3   OH252110   2.313   0.657  13.464 -0.6150 -0.0792  0.3196
10232TIP3    H152111   2.377   0.696  13.525 -0.0637 -0.1685 -0.1978
10232TIP3    H252112   2.274   0.586  13.514 -2.3619  1.6994  1.6639
10233TIP3   OH252113   1.375   1.200  15.403 -0.0881 -0.1861 -0.0026
10233TIP3    H152114   1.455   1.213  15.353  1.5235 -2.0406  1.9104
10233TIP3    H252115   1.390   1.243  15.487 -1.0557 -0.6449  0.4291
10234TIP3   OH252116   5.402   6.261  12.142 -0.3437 -0.4237  0.0830
10234TIP3    H152117   5.361   6.231  12.223 -2.3193  0.6942 -0.4208
10234TIP3    H252118   5.341   6.327  12.108  0.5613 -0.6658 -2.1625
10235TIP3   OH252119   4.679   3.407  11.832 -0.4808  0.1117  0.3693
10235TIP3    H152120   4.651   3.498  11.829  0.4768  0.4452  1.1002
10235TIP3    H252121   4.641   3.368  11.753 -0.2357  1.3268 -0.3718
10236TIP3   OH252122   5.413   5.498  11.892  0.1799 -0.4905  0.2187
10236TIP3    H152123   5.332   5.486  11.942 -0.3763  0.7526 -0.3357
10236TIP3    H252124   5.447   5.583  11.921 -0.5613  0.6388 -1.9670
10237TIP3   OH252125   2.457   5.854  12.109 -0.1853 -0.3740  0.3146
10237TIP3    H152126   2.478   5.780  12.052  0.7308  0.7512 -0.8672
10237TIP3    H252127   2.539   5.904  12.114 -1.2270  1.4699 -0.3290
10238TIP3   OH252128   3.473   1.986  13.277  0.3678  0.2336  0.9173
10238TIP3    H152129   3.429   2.005  13.194 -0.4208 -1.4449  0.9173
10238TIP3    H252130   3.534   1.915  13.257  3.3282  2.5375  0.8888
10239TIP3   OH252131   3.469   5.383  13.489  0.3070  0.1089 -0.3796
10239TIP3    H152132   3.496   5.474  13.502 -0.5310  0.1280  1.5512
10239TIP3    H252133   3.551   5.335  13.482  0.8357  0.6969  1.2603
10240TIP3   OH252134   3.260   4.692   4.289  0.1418 -0.1773 -0.0653
10240TIP3    H152135   3.220   4.702   4.375  1.8289  1.1998  0.6358
10240TIP3    H252136   3.237   4.603   4.261 -1.1259 -0.3525  1.4349
10241TIP3   OH252137   5.176   3.012   4.559 -0.1349 -0.2823 -0.3761
10241TIP3    H152138   5.202   3.104   4.549 -0.0724 -0.4352 -1.8908
10241TIP3    H252139   5.248   2.963   4.522  0.1859 -1.0117  1.1410
10242TIP3   OH252140   1.877   2.156  15.370  0.1422  0.0806  0.0251
10242TIP3    H152141   1.793   2.116  15.390  1.2868 -2.9262 -0.6866
10242TIP3    H252142   1.857   2.226  15.308 -2.0175  1.1074  1.7513
10243TIP3   OH252143   6.140   0.022   5.601  0.0771 -0.5950 -0.7462
10243TIP3    H152144   6.060   0.035   5.549  0.3119 -0.1557 -1.0048
10243TIP3    H252145   6.176  -0.060   5.570 -0.7110 -1.2302 -0.0492
10244TIP3   OH252146   4.211   1.135   6.436 -0.1688 -0.0027 -0.2048
10244TIP3    H152147   4.305   1.123   6.421  0.1256 -0.8739  1.9052
10244TIP3    H252148   4.175   1.152   6.350  1.7313 -1.0488 -1.2857
10245TIP3   OH252149   3.208   0.361   0.918  0.2352  0.8073  0.2949
10245TIP3    H152150   3.190   0.392   1.007 -1.2933 -0.1580  0.3469
10245TIP3    H252151   3.211   0.266   0.926 -1.5418  0.6018 -0.9265
10246TIP3   OH252152   1.152   3.817   2.998  0.4032  0.5722 -0.0298
10246TIP3    H152153   1.070   3.815   2.950  1.2993  2.8141 -1.8233
10246TIP3    H252154   1.126   3.823   3.090 -1.3815 -0.6171 -0.4184
10247TIP3   OH252155   3.981   4.497   4.486  0.4052  0.3124 -0.1029
10247TIP3    H152156   4.059   4.458   4.526  0.8624  1.1255 -0.1688
10247TIP3    H252157   3.925   4.423   4.464  1.3019 -0.3111 -0.3451
10248TIP3   OH252158   5.975   0.517  12.166 -0.3007 -0.2125 -0.2061
10248TIP3    H152159   6.015   0.578  12.104  1.9687 -0.8895  0.4868
10248TIP3    H252160   5.898   0.563  12.199  0.1039  1.3514 -1.3314
10249TIP3   OH252161   3.322   3.050  14.680 -0.5095  0.1414 -0.3056
10249TIP3    H152162   3.416   3.061  14.666 -0.6828  1.7280 -0.4153
10249TIP3    H252163   3.306   2.958  14.662  0.9804 -0.0969 -0.5524
10250TIP3   OH252164   0.485   6.334   6.184  0.0450 -0.3403 -0.0149
10250TIP3    H152165   0.440   6.254   6.211 -1.1511 -0.3985 -1.9649
10250TIP3    H252166   0.417   6.387   6.142  1.2859  0.6715 -0.8406
10251TIP3   OH252167   6.346   4.664  11.003 -0.2714  0.2237 -0.0337
10251TIP3    H152168   6.410   4.686  11.071 -1.1130  1.1308  0.4975
10251TIP3    H252169   6.286   4.738  11.001 -1.9394 -1.0346  0.2417
10252TIP3   OH252170   2.733   6.797   2.901  0.4727  0.2053 -0.3156
10252TIP3    H152171   2.777   6.878   2.929  1.0956 -0.6923  1.4186
10252TIP3    H252172   2.801   6.748   2.855  0.5809 -0.0467  0.1031
10253TIP3   OH252173   4.054   3.908   4.238 -0.1077  0.6119  0.4824
10253TIP3    H152174   4.110   3.855   4.294 -1.4015 -0.3254  0.9375
10253TIP3    H252175   4.107   3.984   4.215  1.0449  0.1527  1.5641
10254TIP3   OH252176   2.339   5.436   3.011 -0.2533 -0.6061  0.1503
10254TIP3    H152177   2.428   5.401   3.015 -0.1812 -0.3690  0.7522
10254TIP3    H252178   2.343   5.517   3.063 -0.2760  0.6019 -1.6289
10255TIP3   OH252179   6.440   0.805   2.632  0.0867  0.2459 -0.3617
10255TIP3    H152180   6.479   0.735   2.580 -0.0962  0.5203 -0.8755
10255TIP3    H252181   6.379   0.760   2.690  2.1854 -0.3775  1.5179
10256TIP3   OH252182   0.921   3.072  12.985 -0.2469 -0.0285  0.0988
10256TIP3    H152183   0.826   3.078  12.973 -0.4020 -0.5145  1.0253
10256TIP3    H252184   0.945   2.992  12.939 -0.3008  0.0350 -0.0413
10257TIP3   OH252185   2.999   0.420  16.396 -0.0267  0.1189 -0.7408
10257TIP3    H152186   2.941   0.476  16.448  2.8292  0.8102  2.0393
10257TIP3    H252187   3.008   0.465  16.313  0.2140  2.5345  0.5099
10258TIP3   OH252188   3.937   4.675   1.522 -0.2480 -0.5509 -0.1966
10258TIP3    H152189   3.950   4.765   1.493  1.8643  0.0815  2.3581
10258TIP3    H252190   3.934   4.624   1.441 -0.3032  1.6561 -1.6659
10259TIP3   OH252191   1.962   1.104  15.695  0.3850 -0.2562 -0.8045
10259TIP3    H152192   1.955   1.049  15.616 -0.1654  0.5106 -1.3125
10259TIP3    H252193   2.056   1.112  15.711  0.4965 -3.3297  0.7293
10260TIP3   OH252194   2.569   2.009   4.781 -0.1560  0.1595 -0.0997
10260TIP3    H152195   2.577   2.088   4.834 -0.9707  0.5087 -0.4836
10260TIP3    H252196   2.490   1.966   4.812 -0.0180 -0.2273 -0.2667
10261TIP3   OH252197   3.052   3.578  13.023  0.0674  0.0549 -0.0316
10261TIP3    H152198   3.061   3.492  12.982  0.0652  0.5813 -1.1697
10261TIP3    H252199   3.142   3.606  13.039  0.0958  0.2552 -0.5463
10262TIP3   OH252200   2.012   3.445   0.651 -0.2518  0.0453 -0.4414
10262TIP3    H152201   1.929   3.465   0.610  0.8815  3.3812 -1.4423
10262TIP3    H252202   2.005   3.483   0.739 -0.0825 -0.4225 -0.2241
10263TIP3   OH252203   1.332   2.262  16.505 -0.3264  0.0539 -0.1340
10263TIP3    H152204   1.359   2.181  16.464 -1.1932  0.0459 -0.7101
10263TIP3    H252205   1.370   2.331  16.451 -1.2538  0.0405 -0.8264
10264TIP3   OH252206   2.785   2.104   0.403  0.2616 -0.7108 -0.4194
10264TIP3    H152207   2.794   2.020   0.450  1.6707 -0.9192 -0.9884
10264TIP3    H252208   2.696   2.133   0.421  0.9034 -0.4486  2.9441
10265TIP3   OH252209   4.811   6.274  11.487 -0.0502  0.2151  0.1735
10265TIP3    H152210   4.897   6.313  11.476  0.3400 -0.6532  0.0455
10265TIP3    H252211   4.792   6.235  11.401  0.0395 -0.7693  0.5851
10266TIP3   OH252212   2.079   1.404  14.749 -0.1255 -0.0258  0.6540
10266TIP3    H152213   2.091   1.498  14.754 -0.6052  0.0235  0.9522
10266TIP3    H252214   1.999   1.387  14.799 -2.3778 -0.1323 -2.7069
10267TIP3   OH252215   5.932   6.770   2.134 -0.8135  0.1529 -0.1420
10267TIP3    H152216   5.914   6.822   2.056  1.7861  0.0899 -0.8489
10267TIP3    H252217   5.921   6.832   2.207 -1.4025  0.7057 -0.6883
10268TIP3   OH252218   3.861   0.016   5.826  0.1494  0.5150  0.0256
10268TIP3    H152219   3.873   0.063   5.743 -0.6116  0.7560  0.0483
10268TIP3    H252220   3.873  -0.076   5.803  1.4447  0.6902 -0.0586
10269TIP3   OH252221   0.504   4.438  16.572  0.2916  0.0884  0.5934
10269TIP3    H152222   0.499   4.440  16.667 -0.6531  0.2290  0.5509
10269TIP3    H252223   0.546   4.354  16.552  0.2991 -0.0358  1.1289
10270TIP3   OH252224   0.047   0.716  15.575 -0.5815 -0.4251  0.8682
10270TIP3    H152225   0.119   0.673  15.621 -0.0366 -0.8607 -0.3473
10270TIP3    H252226   0.032   0.797  15.623  0.8240 -0.2537  1.0477
10271TIP3   OH252227   0.992   6.137   4.403  0.2820  0.6794 -0.1135
10271TIP3    H152228   0.988   6.169   4.313 -1.1774  3.4918  0.8273
10271TIP3    H252229   0.922   6.073   4.409 -0.2099  1.1419 -0.7672
10272TIP3   OH252230   4.014   5.748   3.365 -0.9283 -0.0596 -0.1691
10272TIP3    H152231   3.998   5.664   3.408 -0.3116  0.5675  1.3424
10272TIP3    H252232   4.050   5.724   3.279 -1.6243 -1.3402 -0.1303
10273TIP3   OH252233   0.012   2.386   0.703 -1.1575 -0.5820  0.2861
10273TIP3    H152234   0.067   2.352   0.633  3.2254  0.2452  2.9428
10273TIP3    H252235  -0.030   2.309   0.742 -1.2763 -1.3610 -1.3371
10274TIP3   OH252236   3.583   5.509   5.203  0.3714  0.1105  0.0408
10274TIP3    H152237   3.663   5.492   5.153  0.8591  1.6562  0.2425
10274TIP3    H252238   3.553   5.594   5.171 -1.7293 -0.8453 -0.6963
10275TIP3   OH252239   1.403   5.129   5.201 -0.1252  0.1046 -0.0281
10275TIP3    H152240   1.474   5.089   5.251  1.5356  3.8371  0.9390
10275TIP3    H252241   1.337   5.152   5.267  0.8442  2.5575  0.1938
10276TIP3   OH252242   1.379   4.057  16.790 -0.0042  0.7255  0.6838
10276TIP3    H152243   1.417   3.971  16.776  0.4418  0.3451  3.6629
10276TIP3    H252244   1.424   4.114  16.727 -0.0269 -1.0668 -1.0668
10277TIP3   OH252245   4.120   5.179  16.615  0.4552  0.7881 -0.2709
10277TIP3    H152246   4.121   5.259  16.667  1.2581  1.0112 -0.6095
10277TIP3    H252247   4.212   5.152  16.610  0.4593  0.9581 -1.8288
10278TIP3   OH252248   5.422   2.134  13.183 -0.0284  0.1768  0.2250
10278TIP3    H152249   5.359   2.073  13.144  0.6375 -0.3334 -0.0728
10278TIP3    H252250   5.451   2.092  13.264  1.2109 -0.4190 -0.4935
10279TIP3   OH252251   6.234   2.776   2.002  0.1513 -0.6211 -0.4447
10279TIP3    H152252   6.246   2.867   2.027 -1.1972 -0.2868 -0.9145
10279TIP3    H252253   6.315   2.752   1.957  0.8235  0.0928  0.3456
10280TIP3   OH252254   1.927   5.364  11.091 -0.0639  0.2822  0.6511
10280TIP3    H152255   2.006   5.414  11.112  0.5389 -0.8481  1.1549
10280TIP3    H252256   1.942   5.332  11.002  1.3545 -2.2254  1.6738
10281TIP3   OH252257   2.669   3.310   0.520 -0.6916  0.4221  0.2622
10281TIP3    H152258   2.587   3.309   0.569 -0.7671 -1.3850  0.1678
10281TIP3    H252259   2.730   3.258   0.573  0.0187  0.6877 -0.2722
10282TIP3   OH252260   6.319   5.147  16.608 -0.4056  0.0793 -0.9951
10282TIP3    H152261   6.338   5.055  16.595 -2.3791 -0.5601  0.2413
10282TIP3    H252262   6.393   5.180  16.658 -0.8606 -1.5041  0.8392
10283TIP3   OH252263   2.645   4.731  17.000 -0.8779  0.8275 -0.1413
10283TIP3    H152264   2.564   4.685  17.020 -1.2196  0.8040 -1.4668
10283TIP3    H252265   2.661   4.713  16.907  1.2369 -0.0627  0.3401
10284TIP3   OH252266   1.363   0.079   0.037  0.1252 -0.4849  0.2839
10284TIP3    H152267   1.326   0.143  -0.024 -2.6461 -0.8874  1.4088
10284TIP3    H252268   1.386   0.131   0.114  1.7247 -0.2901 -0.2867
10285TIP3   OH252269   1.740   0.081   3.395 -0.6155  0.0596  0.1525
10285TIP3    H152270   1.698   0.103   3.313  1.6379  2.7823 -0.4288
10285TIP3    H252271   1.824   0.042   3.370 -1.0126 -1.5809  1.2185
10286TIP3   OH252272   2.386   3.799   1.861 -0.3537 -0.3361 -0.0407
10286TIP3    H152273   2.439   3.826   1.935  0.1677 -0.9093 -0.1964
10286TIP3    H252274   2.384   3.703   1.866  1.5290 -0.5701 -1.9776
10287TIP3   OH252275   5.034   4.531  16.280  0.1860  0.1415 -0.6524
10287TIP3    H152276   4.995   4.583  16.350 -1.1865  0.4558 -1.6032
10287TIP3    H252277   5.074   4.595  16.221 -1.6483  0.2066 -1.9094
10288TIP3   OH252278   4.340   2.740   5.150 -0.1037 -0.1060 -0.1583
10288TIP3    H152279   4.308   2.796   5.079  2.6746  0.3933 -1.1184
10288TIP3    H252280   4.264   2.687   5.174 -1.6090  0.9256 -2.3088
10289TIP3   OH252281   4.637   3.287  13.097  0.7621 -0.8279  0.4809
10289TIP3    H152282   4.557   3.306  13.147  0.7820 -0.4096  0.3632
10289TIP3    H252283   4.705   3.282  13.164  0.6127 -1.3658  0.5999
10290TIP3   OH252284   4.769   5.293   5.471  0.4383  0.0157  0.4905
10290TIP3    H152285   4.747   5.208   5.509 -0.6603  0.3576  0.6524
10290TIP3    H252286   4.863   5.302   5.485  0.7715 -1.6300 -0.4461
10291TIP3   OH252287   0.244   2.457   2.689  0.1870 -0.0022 -0.4958
10291TIP3    H152288   0.198   2.535   2.718  0.3144  0.1771 -0.7786
10291TIP3    H252289   0.222   2.448   2.596  1.1948  0.4206 -0.7866
10292TIP3   OH252290   3.412   5.338  16.469  0.5575  0.1188  0.9584
10292TIP3    H152291   3.452   5.385  16.396  0.6234 -0.0391  0.8937
10292TIP3    H252292   3.327   5.381  16.481  0.3242 -0.2000  0.4497
10293TIP3   OH252293   2.979   2.944   6.126  0.1484  0.5913 -0.3544
10293TIP3    H152294   2.962   2.873   6.189  0.1848 -0.4524 -1.4883
10293TIP3    H252295   3.069   2.929   6.098  0.3155  1.3858 -0.2598
10294TIP3   OH252296   2.432   5.886   4.511 -0.0908  0.5978  0.2836
10294TIP3    H152297   2.467   5.828   4.445 -1.5346  0.1211 -0.1058
10294TIP3    H252298   2.443   5.839   4.594  0.4785  0.6078  0.2130
10295TIP3   OH252299   1.281   0.418  13.023 -0.0696 -0.3047  0.0706
10295TIP3    H152300   1.219   0.466  13.078 -1.4766 -1.0202 -0.8153
10295TIP3    H252301   1.367   0.449  13.050 -0.5920 -1.3194  3.3408
10296TIP3   OH252302   2.377   2.127   5.240  0.3898  0.2715  0.0098
10296TIP3    H152303   2.427   2.206   5.262  0.1893  1.5030 -3.3085
10296TIP3    H252304   2.286   2.153   5.249  0.2873 -0.6745  2.0599
10297TIP3   OH252305   2.256   6.467  12.510 -1.0211  0.1356  0.3252
10297TIP3    H152306   2.209   6.549  12.520 -1.7403  0.1765 -2.5962
10297TIP3    H252307   2.192   6.406  12.474 -0.1050 -1.3035  1.0019
10298TIP3   OH252308   4.898   1.356  16.206  0.2710  0.3466 -0.0536
10298TIP3    H152309   4.924   1.439  16.166  0.2734  0.0133 -0.7657
10298TIP3    H252310   4.940   1.289  16.151  1.8228 -0.1100  1.5912
10299TIP3   OH252311   2.937   1.113   1.322  0.3012  0.5138 -0.1977
10299TIP3    H152312   3.026   1.089   1.299 -0.0809 -1.2605  0.0265
10299TIP3    H252313   2.919   1.192   1.271  1.5417  0.1291 -1.2824
10300TIP3   OH252314   6.638   2.639  14.409 -0.3033  0.3359 -0.6935
10300TIP3    H152315   6.660   2.629  14.502 -0.6828  1.2079 -0.5018
10300TIP3    H252316   6.719   2.672  14.369 -0.9149  2.6841 -0.1464
10301TIP3   OH252317   1.117   6.541  14.309  0.5486 -0.0296  0.1990
10301TIP3    H152318   1.069   6.520  14.228  0.3581 -1.1686  0.5947
10301TIP3    H252319   1.173   6.465  14.324  1.1012  0.4809  0.7663
10302TIP3   OH252320   1.346   3.623  10.145  0.5090  0.4517  0.1791
10302TIP3    H152321   1.345   3.560  10.218  0.3298 -0.7668 -0.8357
10302TIP3    H252322   1.315   3.572  10.070  2.3487  1.1826 -1.1436
10303TIP3   OH252323   5.802   3.777   0.793  0.0228 -0.2340  0.0738
10303TIP3    H152324   5.859   3.850   0.818  0.6510 -0.1490 -1.4815
10303TIP3    H252325   5.846   3.699   0.828  0.2594 -0.0215  0.2512
10304TIP3   OH252326   5.204   4.336  10.653  0.0085 -0.2378  0.0947
10304TIP3    H152327   5.166   4.424  10.659 -1.2582 -0.7256 -0.4716
10304TIP3    H252328   5.281   4.347  10.597  1.0114  0.8412  1.5762
10305TIP3   OH252329   0.763   3.623   6.444  0.0782  0.2214  0.4308
10305TIP3    H152330   0.772   3.682   6.368 -1.7118  0.1376  0.1048
10305TIP3    H252331   0.824   3.659   6.509 -0.4233  2.0161 -0.0241
10306TIP3   OH252332   0.755   0.187  13.506  0.7402 -0.3303 -0.6882
10306TIP3    H152333   0.684   0.138  13.547  0.3544  0.6809 -0.1089
10306TIP3    H252334   0.736   0.184  13.412 -0.2327  0.1664 -0.5174
10307TIP3   OH252335   5.680   5.249  12.210 -0.0993 -0.0683  0.1812
10307TIP3    H152336   5.663   5.259  12.304  1.0721  0.3034  0.3649
10307TIP3    H252337   5.596   5.219  12.174 -0.7673  0.4872  1.2248
10308TIP3   OH252338   5.602   6.507   3.014  0.2372  0.0788  0.1395
10308TIP3    H152339   5.682   6.480   2.968  1.4538  0.3349  1.9957
10308TIP3    H252340   5.547   6.429   3.014  1.1045 -0.5489  0.0656
10309TIP3   OH252341   4.104   4.948   2.713  0.3773  0.9408 -0.2123
10309TIP3    H152342   4.123   4.855   2.718  1.7615  1.2324  0.2460
10309TIP3    H252343   4.111   4.979   2.803  0.8120  1.6524 -0.4836
10310TIP3   OH252344   2.490   2.690  13.415 -0.1015 -0.4458  0.4513
10310TIP3    H152345   2.400   2.702  13.384 -0.0359 -0.9716  0.0291
10310TIP3    H252346   2.485   2.614  13.473  0.4106 -1.8294 -1.2241
10311TIP3   OH252347   6.372   4.730   5.847 -0.2395 -0.3769 -0.5886
10311TIP3    H152348   6.454   4.724   5.798 -1.2188  0.0253 -2.3833
10311TIP3    H252349   6.327   4.647   5.828 -0.2685 -0.5935  0.3759
10312TIP3   OH252350   4.607   5.327   3.207  0.0124  0.4101 -1.1067
10312TIP3    H152351   4.526   5.312   3.159 -0.2534  0.2992 -0.6387
10312TIP3    H252352   4.602   5.266   3.281  0.9088 -0.1956 -1.5298
10313TIP3   OH252353   5.590   4.323  10.690  0.0662 -0.4927  0.1856
10313TIP3    H152354   5.558   4.315  10.779  1.6996 -1.4686  0.7360
10313TIP3    H252355   5.516   4.358  10.640 -0.6062  0.9070  2.0703
10314TIP3   OH252356   6.217   1.343   5.287 -0.0087 -0.1182 -1.0457
10314TIP3    H152357   6.246   1.260   5.325  0.0701  0.5908  0.5196
10314TIP3    H252358   6.286   1.405   5.310 -1.6668  1.1229  0.8604
10315TIP3   OH252359   6.800   5.311   6.497  0.2937 -0.0633 -0.0256
10315TIP3    H152360   6.868   5.377   6.508 -1.1235  1.3567  0.5388
10315TIP3    H252361   6.842   5.229   6.521  1.8253  0.7595  0.2195
10316TIP3   OH252362   6.007   6.068  16.510 -0.3824  0.2757 -0.5584
10316TIP3    H152363   5.943   6.105  16.570  0.5360 -0.4820  0.9290
10316TIP3    H252364   6.015   6.134  16.441  0.4825  2.4531  1.4853
10317TIP3   OH252365   0.349   5.224  12.323 -0.4771 -0.6318  0.1717
10317TIP3    H152366   0.434   5.182  12.311 -1.2244 -2.3165  0.4973
10317TIP3    H252367   0.362   5.314  12.291  1.0478 -1.2296 -1.0244
10318TIP3   OH252368   1.592   5.334   0.398 -0.2392 -0.6335 -0.2399
10318TIP3    H152369   1.551   5.398   0.340 -0.5805  0.6990  1.3801
10318TIP3    H252370   1.524   5.313   0.462  0.2119 -1.8409 -0.1329
10319TIP3   OH252371   4.182   3.048  16.753  0.4838 -0.1490  0.1944
10319TIP3    H152372   4.262   3.063  16.804  0.6638 -0.0711 -0.1126
10319TIP3    H252373   4.185   3.114  16.684 -1.1100  1.5762  1.6474
10320TIP3   OH252374   5.343   3.203  14.309 -0.3233  0.0585  0.4700
10320TIP3    H152375   5.385   3.138  14.365 -1.0713 -1.3278 -0.4907
10320TIP3    H252376   5.307   3.151  14.236 -1.1502  1.5359 -0.2167
10321TIP3   OH252377   0.741   0.957   0.558  0.1792  0.6984  0.3901
10321TIP3    H152378   0.739   1.001   0.473  0.1338  1.8771  0.9752
10321TIP3    H252379   0.832   0.964   0.587 -0.1657  1.9741  1.2535
10322TIP3   OH252380   3.157   1.217   9.993  0.1381 -0.3239  0.2231
10322TIP3    H152381   3.120   1.154   9.931  1.2121 -0.1196 -0.6730
10322TIP3    H252382   3.086   1.278  10.010 -0.4150 -0.8335 -0.2025
10323TIP3   OH252383   6.312   4.553  16.705 -0.0693  0.0607 -0.1482
10323TIP3    H152384   6.392   4.602  16.687  0.8286 -0.1148  2.8120
10323TIP3    H252385   6.245   4.596  16.652  1.0832  3.2262  0.7149
10324TIP3   OH252386   2.710   2.371   5.286 -0.1532  0.1720  0.0076
10324TIP3    H152387   2.731   2.283   5.319  0.0884  0.3370  0.2944
10324TIP3    H252388   2.789   2.398   5.240  0.6448  1.1639  1.8571
10325TIP3   OH252389   3.747   5.372  13.390  0.2707 -0.2430 -0.3590
10325TIP3    H152390   3.825   5.395  13.442 -0.4667  0.8553  0.3067
10325TIP3    H252391   3.734   5.279  13.408 -0.3791  0.2353  2.0783
10326TIP3   OH252392   4.132   5.021   2.212  0.4016 -0.1073 -0.1806
10326TIP3    H152393   4.115   4.974   2.294 -0.4415  0.8002  0.1858
10326TIP3    H252394   4.059   4.995   2.155  0.0479  0.5741 -0.0463
10327TIP3   OH252395   5.017   0.853   5.660  0.1495  0.1486  0.0085
10327TIP3    H152396   4.975   0.847   5.745 -0.8765 -0.5885 -0.5305
10327TIP3    H252397   5.020   0.763   5.628  1.5306  0.2751 -0.2712
10328TIP3   OH252398   5.478   2.401   5.327 -0.4670  0.0894  0.1550
10328TIP3    H152399   5.536   2.477   5.315 -1.5501  1.5110  2.9009
10328TIP3    H252400   5.537   2.327   5.337  0.6242  0.4410 -2.8429
10329TIP3   OH252401   1.068   4.059  15.430  0.1137  0.1186 -0.0611
10329TIP3    H152402   1.058   4.122  15.502 -0.0808  0.7613 -0.6465
10329TIP3    H252403   1.066   4.112  15.351 -0.3353 -0.6598 -0.5838
10330TIP3   OH252404   3.610   3.666   4.363  0.2704 -0.2888  0.2432
10330TIP3    H152405   3.613   3.600   4.432  0.1209 -0.2102  0.3259
10330TIP3    H252406   3.689   3.651   4.312  0.7373  0.0825  0.8378
10331TIP3   OH252407   0.451   3.998   0.075 -0.0571  0.1672  0.5265
10331TIP3    H152408   0.484   4.066   0.134 -0.6078  1.3911 -0.5246
10331TIP3    H252409   0.400   3.940   0.132  1.9759 -0.5124  1.7823
10332TIP3   OH252410   3.331   6.454  10.370 -0.4536  0.1126 -0.1372
10332TIP3    H152411   3.324   6.402  10.450 -0.5147  2.1673  1.2742
10332TIP3    H252412   3.399   6.410  10.319 -0.5802 -1.3920  0.9023
10333TIP3   OH252413   6.690   5.070   5.532 -0.0470  0.3905 -0.0255
10333TIP3    H152414   6.673   4.983   5.495  1.4289 -0.9901  2.2858
10333TIP3    H252415   6.783   5.069   5.555 -0.3498  1.9515  1.5491
10334TIP3   OH252416   4.749   3.817   3.716  0.0331  0.1974  0.0801
10334TIP3    H152417   4.690   3.864   3.657 -0.6800 -0.4719  0.2309
10334TIP3    H252418   4.715   3.728   3.717  0.5947 -0.0190  0.7770
10335TIP3   OH252419   5.885   4.262   1.589 -0.4386  0.4373 -0.0767
10335TIP3    H152420   5.846   4.264   1.676  1.3898 -0.3886  0.8113
10335TIP3    H252421   5.861   4.346   1.550 -1.9194  0.5132  0.8992
10336TIP3   OH252422   2.565   5.035  14.941 -0.2042  0.0987 -0.4977
10336TIP3    H152423   2.572   5.100  15.011  2.0838 -1.4261  0.8344
10336TIP3    H252424   2.476   5.045  14.908 -1.3865  1.0140  2.5504
10337TIP3   OH252425   3.403   1.855  12.280 -0.1274  0.3252  0.2723
10337TIP3    H152426   3.381   1.830  12.190 -0.0962 -2.0259  0.8425
10337TIP3    H252427   3.499   1.853  12.282 -0.1330  0.1677  0.4051
10338TIP3   OH252428   6.115   2.791  16.784  0.7620 -0.5203  0.4204
10338TIP3    H152429   6.079   2.754  16.704  0.3734  0.6468  0.0332
10338TIP3    H252430   6.042   2.839  16.823  1.2952  0.0161  0.7788
10339TIP3   OH252431   4.836   1.373  10.726  0.9165  0.3351  0.1457
10339TIP3    H152432   4.777   1.401  10.657 -0.3388 -1.2967  0.4874
10339TIP3    H252433   4.919   1.357  10.681  0.3244  0.0262 -0.8755
10340TIP3   OH252434   0.304   4.321  16.235 -0.5528 -0.4108  0.2386
10340TIP3    H152435   0.319   4.241  16.184  0.1273 -2.2634  3.1421
10340TIP3    H252436   0.210   4.319  16.254 -0.5725 -0.3974  0.1456
10341TIP3   OH252437   5.199   5.549  12.104 -0.6012 -0.1060 -0.1681
10341TIP3    H152438   5.193   5.643  12.090 -0.1402 -0.0204  0.2047
10341TIP3    H252439   5.108   5.520  12.109 -0.7387  0.3825  0.1519
10342TIP3   OH252440   5.256   4.442  14.388  0.6752 -0.3302  0.2653
10342TIP3    H152441   5.226   4.360  14.349 -0.0132 -0.1522  0.4101
10342TIP3    H252442   5.335   4.464  14.338 -0.8744  0.5679 -1.9957
10343TIP3   OH252443   5.833   3.306  11.831  0.6513  0.2957 -0.5780
10343TIP3    H152444   5.830   3.397  11.800  1.2855  0.5713  0.1260
10343TIP3    H252445   5.896   3.308  11.904  0.2043 -0.5832 -0.1517
10344TIP3   OH252446   1.199   0.756  12.791 -0.6965  0.0124 -0.0008
10344TIP3    H152447   1.276   0.719  12.747 -0.2880 -1.1421  1.5838
10344TIP3    H252448   1.135   0.684  12.792 -0.8935  0.1843  0.7628
10345TIP3   OH252449   0.822   0.032   2.361  0.4517 -0.0843  0.3000
10345TIP3    H152450   0.817   0.104   2.297 -0.5922  0.8284  1.3400
10345TIP3    H252451   0.795  -0.045   2.312 -1.1528  0.7356 -0.2133
10346TIP3   OH252452   4.274   2.022  12.964 -0.0431 -0.0158 -0.4904
10346TIP3    H152453   4.336   2.072  12.911 -1.3488  0.1190 -1.9568
10346TIP3    H252454   4.199   2.081  12.975 -1.4056 -1.4281 -1.8208
10347TIP3   OH252455   6.777   6.356  11.663  0.8186  0.5855  0.5610
10347TIP3    H152456   6.746   6.446  11.666  1.0036  0.6245  2.0646
10347TIP3    H252457   6.871   6.362  11.681  0.8026  0.0871  0.8269
10348TIP3   OH252458   3.895   1.805   5.337  0.1060  0.0453 -0.2256
10348TIP3    H152459   3.888   1.756   5.418 -2.1640  0.4853 -0.1065
10348TIP3    H252460   3.921   1.740   5.272  0.4996 -0.6021  0.5606
10349TIP3   OH252461   3.424   0.089   3.469  0.3540  0.2500 -0.4148
10349TIP3    H152462   3.360   0.054   3.406 -0.2064  0.4983  0.0019
10349TIP3    H252463   3.371   0.112   3.546  0.8737  0.9714 -0.2690
10350TIP3   OH252464   6.269   1.801   2.860  0.5244 -0.0973 -0.5419
10350TIP3    H152465   6.237   1.723   2.906 -1.0978  0.9315  0.1785
10350TIP3    H252466   6.237   1.790   2.771 -0.1157 -0.0444 -0.3258
10351TIP3   OH252467   1.988   4.176   6.240  0.0882  0.6951  0.4241
10351TIP3    H152468   1.955   4.087   6.255 -0.3952  0.8365  0.2407
10351TIP3    H252469   2.021   4.174   6.150  2.0177  0.1348  1.0945
10352TIP3   OH252470   4.513   0.836  15.005 -0.3127  0.1929 -0.6580
10352TIP3    H152471   4.529   0.742  15.005  2.4712  0.5980 -0.5164
10352TIP3    H252472   4.495   0.858  15.096  0.2649 -0.0177 -0.4955
10353TIP3   OH252473   6.481   5.199  15.152  0.6078  0.1271  0.1382
10353TIP3    H152474   6.577   5.203  15.152  0.5957  0.7935 -0.7100
10353TIP3    H252475   6.455   5.257  15.224  0.8315  0.4991 -0.0762
10354TIP3   OH252476   6.462   0.948   3.474 -0.6784  0.8602 -0.6166
10354TIP3    H152477   6.492   0.866   3.513 -0.1015  1.0524 -0.6423
10354TIP3    H252478   6.427   0.924   3.389 -2.4872  0.3454  0.2223
10355TIP3   OH252479   3.036   2.072  16.376 -0.2744  0.0174  0.5521
10355TIP3    H152480   2.996   1.986  16.382  1.3380 -0.7819  0.2995
10355TIP3    H252481   2.984   2.127  16.435 -2.2735 -0.7080 -0.4296
10356TIP3   OH252482   4.531   3.888  13.996 -0.4597  0.0329  0.7107
10356TIP3    H152483   4.612   3.838  14.003 -0.7105 -0.4216  0.4674
10356TIP3    H252484   4.496   3.890  14.085 -0.3728 -0.0947  0.7479
10357TIP3   OH252485   1.026   4.305   0.438 -0.2477  0.3194 -0.3315
10357TIP3    H152486   1.010   4.250   0.515 -0.0736 -0.6013 -0.9336
10357TIP3    H252487   1.114   4.340   0.452 -0.0558 -0.1677 -0.2964
10358TIP3   OH252488   6.460   4.867   2.509 -0.1672 -0.0745  0.6909
10358TIP3    H152489   6.431   4.823   2.589 -1.2049 -2.0290 -0.6525
10358TIP3    H252490   6.386   4.857   2.449  0.2607  2.0695 -0.2657
10359TIP3   OH252491   3.361   6.245  11.211 -0.0002 -0.0438  0.2289
10359TIP3    H152492   3.453   6.240  11.234 -0.2047 -2.5475  0.7852
10359TIP3    H252493   3.315   6.209  11.287 -1.3006 -0.3650 -0.6737
10360TIP3   OH252494   4.788   5.167   1.911  0.5489 -0.0860 -0.1569
10360TIP3    H152495   4.730   5.122   1.971  0.1847 -0.0905 -0.5080
10360TIP3    H252496   4.741   5.166   1.827  1.0189 -0.0237 -0.4238
10361TIP3   OH252497   3.002   0.995  16.771  0.1146  0.1535  0.1880
10361TIP3    H152498   2.962   0.918  16.812  0.5204  0.5955  1.4674
10361TIP3    H252499   3.068   1.024  16.834  0.7713  0.8735 -0.8014
10362TIP3   OH252500   1.283   5.075  16.296 -0.1092 -0.1198 -0.3404
10362TIP3    H152501   1.361   5.119  16.330 -0.5843  0.1624  0.4081
10362TIP3    H252502   1.266   5.004  16.358  0.5478 -1.2829 -1.4422
10363TIP3   OH252503   3.159   4.998   5.192 -0.0040  0.0814  0.1988
10363TIP3    H152504   3.206   5.006   5.275 -0.6605  1.1423  0.4874
10363TIP3    H252505   3.118   5.083   5.179  0.3556  0.0460 -1.3923
10364TIP3   OH252506   3.861   2.196   0.063  0.3173 -0.3707 -0.1849
10364TIP3    H152507   3.825   2.107   0.063  1.4494 -0.9091  2.4079
10364TIP3    H252508   3.837   2.231  -0.023  2.0275 -4.0282 -2.3880
10365TIP3   OH252509   2.991   0.341  16.940  0.3753  0.8440 -0.2593
10365TIP3    H152510   3.044   0.396  16.882 -1.2470  2.8305  0.0597
10365TIP3    H252511   3.050   0.319  17.012  1.5443  0.7313 -1.2152
10366TIP3   OH252512   3.770   3.314   5.279  0.1081  0.2823  0.1411
10366TIP3    H152513   3.728   3.400   5.280  0.7317  0.5920  1.4555
10366TIP3    H252514   3.794   3.300   5.188 -1.1584  0.9190 -0.3121
10367TIP3   OH252515   3.672   1.666  13.962 -0.0845  0.3420  0.0059
10367TIP3    H152516   3.668   1.582  14.008  0.6245 -0.9842 -2.1796
10367TIP3    H252517   3.759   1.667  13.923  0.0930  2.3458  0.3735
10368TIP3   OH252518   5.659   2.119   2.538 -0.7189 -0.0557  0.3519
10368TIP3    H152519   5.593   2.189   2.530 -0.9101 -0.1327  1.1962
10368TIP3    H252520   5.660   2.097   2.631  0.0051 -0.5467  0.2361
10369TIP3   OH252521   1.051   4.822   2.695 -0.2657 -0.6319 -0.8917
10369TIP3    H152522   1.089   4.735   2.706 -2.7344 -1.8362 -1.2189
10369TIP3    H252523   0.969   4.819   2.743  0.1535  2.0027  0.1952
10370TIP3   OH252524   1.672   1.338  15.878 -0.3244 -0.3633 -0.3884
10370TIP3    H152525   1.724   1.262  15.903  0.0581  0.1047  0.2690
10370TIP3    H252526   1.609   1.349  15.949 -0.8057 -0.4520 -0.7981
10371TIP3   OH252527   5.704   1.630  12.862  0.3299 -0.5990  0.8820
10371TIP3    H152528   5.627   1.687  12.858  1.5350  1.1754  2.0312
10371TIP3    H252529   5.686   1.562  12.797 -1.8419  0.2140  0.5499
10372TIP3   OH252530   3.719   3.415  13.779  0.5471 -0.0626 -0.1498
10372TIP3    H152531   3.669   3.490  13.811 -0.4824 -0.3703 -0.9828
10372TIP3    H252532   3.766   3.448  13.702 -0.1406 -0.3460 -0.6924
10373TIP3   OH252533   3.202   5.489  11.443  0.1131 -0.0518 -0.0711
10373TIP3    H152534   3.144   5.447  11.506 -1.0565  1.0983 -0.3282
10373TIP3    H252535   3.155   5.485  11.360  1.8743 -2.0647 -1.0876
10374TIP3   OH252536   4.431   2.690   3.799 -0.6294 -0.1158 -0.4168
10374TIP3    H152537   4.393   2.683   3.712 -1.9001  0.4367  0.0742
10374TIP3    H252538   4.525   2.675   3.785 -0.8372 -0.2595 -1.8314
10375TIP3   OH252539   3.326   1.284   2.212  0.3739  0.1977  0.5857
10375TIP3    H152540   3.274   1.277   2.132 -1.9966 -0.0582  2.0789
10375TIP3    H252541   3.301   1.368   2.250  0.5470 -0.2435  1.6954
10376TIP3   OH252542   1.297   1.315  12.955  0.4217  0.2716 -0.8723
10376TIP3    H152543   1.323   1.403  12.981 -1.5819  0.6640  0.0421
10376TIP3    H252544   1.313   1.312  12.861 -0.5465  2.0530 -1.1394
10377TIP3   OH252545   1.973   6.753   3.623 -0.6978  0.7067  0.3830
10377TIP3    H152546   1.934   6.835   3.594 -0.7678  0.3362 -0.6153
10377TIP3    H252547   1.898   6.697   3.644 -0.7184  0.2767 -0.7424
10378TIP3   OH252548   0.331   1.931  11.323 -0.2224  0.1843  0.1816
10378TIP3    H152549   0.238   1.908  11.313  0.2686 -1.3508 -1.2053
10378TIP3    H252550   0.349   1.916  11.416 -1.3916  0.6545  0.4996
10379TIP3   OH252551   0.944   2.837   6.050  0.5973  0.0592  0.2203
10379TIP3    H152552   0.859   2.794   6.063  0.8788 -0.3166  0.8665
10379TIP3    H252553   0.991   2.824   6.133  0.6862  1.6474  0.4479
10380TIP3   OH252554   3.379   3.273   0.116 -0.1506 -0.5258  0.0017
10380TIP3    H152555   3.472   3.289   0.102 -0.2820  2.6051  1.7402
10380TIP3    H252556   3.335   3.335   0.057 -1.1214 -1.1241  0.0649
10381TIP3   OH252557   3.961   0.573  13.044 -0.2217 -0.6164  0.0358
10381TIP3    H152558   3.887   0.570  12.983 -0.7686 -1.0576  0.7024
10381TIP3    H252559   3.939   0.508  13.111  1.3809 -1.6727 -0.4200
10382TIP3   OH252560   6.526   0.506  14.832  0.0561  0.0523 -0.6176
10382TIP3    H152561   6.539   0.601  14.838 -0.8942  0.1562 -0.0186
10382TIP3    H252562   6.431   0.495  14.834  0.1770 -1.0032  1.0087
10383TIP3   OH252563   2.099   2.475  13.126 -0.1492 -0.3475  0.0771
10383TIP3    H152564   2.152   2.527  13.065  0.9779 -2.8765 -1.2775
10383TIP3    H252565   2.018   2.526  13.137  1.0273  1.8494 -0.7777
10384TIP3   OH252566   5.981   6.026   6.080 -0.2974  0.2396 -0.3713
10384TIP3    H152567   5.978   6.121   6.092  3.2102  0.5525 -0.9948
10384TIP3    H252568   6.053   5.997   6.136 -0.8364 -1.9884 -0.7248
10385TIP3   OH252569   0.773   5.396  12.170  0.2133  0.1186  0.4695
10385TIP3    H152570   0.856   5.392  12.124 -1.1421  0.5229 -2.2054
10385TIP3    H252571   0.727   5.471  12.131 -1.7535 -0.6261  1.1994
10386TIP3   OH252572   5.987   5.205   0.473 -0.0066  0.6474  0.2819
10386TIP3    H152573   5.898   5.168   0.469  0.0340  0.4460  1.0844
10386TIP3    H252574   5.974   5.294   0.506 -0.1824  1.6997 -2.3527
10387TIP3   OH252575   4.414   0.171  14.527  0.0353 -0.3856 -0.1957
10387TIP3    H152576   4.508   0.190  14.519  0.8440 -4.0634 -1.2380
10387TIP3    H252577   4.371   0.247  14.488  2.5856  1.1354 -0.2640
10388TIP3   OH252578   3.257   0.498   2.221 -0.1850  0.0378 -0.2707
10388TIP3    H152579   3.174   0.472   2.182 -0.1006 -1.4858  0.4957
10388TIP3    H252580   3.234   0.535   2.306 -0.2322  1.7595 -0.9982
10389TIP3   OH252581   1.070   0.187   2.761  0.2970 -0.1699 -0.3727
10389TIP3    H152582   1.141   0.171   2.823  0.7368  0.1414 -0.7850
10389TIP3    H252583   1.100   0.263   2.710 -0.2301 -0.1786 -0.6997
10390TIP3   OH252584   4.003   4.936   3.431 -0.2049  0.5297 -0.1853
10390TIP3    H152585   3.942   5.006   3.407  0.1641  1.2235  0.8683
10390TIP3    H252586   3.958   4.888   3.501  0.4225  1.0164  0.5633
10391TIP3   OH252587   3.142   6.042   3.991 -0.0719  0.5958 -0.1827
10391TIP3    H152588   3.196   6.068   4.066  0.8168  0.4598 -0.7535
10391TIP3    H252589   3.060   6.011   4.030 -1.4249  4.5640  0.5736
10392TIP3   OH252590   1.660   2.769  12.816  0.5372  0.4993 -0.0000
10392TIP3    H152591   1.693   2.755  12.905 -0.1628  0.1318  0.2096
10392TIP3    H252592   1.643   2.681  12.783 -2.7156  0.6743  0.8753
10393TIP3   OH252593   6.250   5.415   2.484  0.4400  0.2883 -0.2833
10393TIP3    H152594   6.224   5.326   2.509 -0.0493  0.6410  0.4889
10393TIP3    H252595   6.197   5.434   2.406  0.6067 -0.1261 -0.5017
10394TIP3   OH252596   0.303   2.063   5.746 -0.4094  0.2583 -0.2971
10394TIP3    H152597   0.268   2.033   5.662 -1.4223  0.0009  0.1909
10394TIP3    H252598   0.351   2.143   5.725  0.5156 -0.5524 -1.3044
10395TIP3   OH252599   5.570   6.513   0.016 -0.1314  0.1014  0.3299
10395TIP3    H152600   5.494   6.569   0.032 -0.5531 -0.1740 -0.6670
10395TIP3    H252601   5.627   6.565  -0.040 -0.7376 -0.6097 -0.9905
10396TIP3   OH252602   3.808   6.165   3.442 -0.0324 -0.4966 -0.0104
10396TIP3    H152603   3.829   6.208   3.525  1.2632  0.2909 -0.7299
10396TIP3    H252604   3.801   6.072   3.465 -1.6784 -0.0909  1.3313
10397TIP3   OH252605   2.818   5.919   0.675  0.0013  0.4334  0.4671
10397TIP3    H152606   2.740   5.959   0.637 -0.6392 -0.2207  1.0748
10397TIP3    H252607   2.811   5.826   0.653  0.8105  0.4271  0.1921
10398TIP3   OH252608   2.683   2.639  14.960  0.1474 -0.7718  0.3307
10398TIP3    H152609   2.777   2.648  14.944 -0.2126 -0.0076 -1.6932
10398TIP3    H252610   2.655   2.727  14.986 -0.1671 -0.7091 -0.1914
10399TIP3   OH252611   2.136   2.190   1.738  0.1745  0.3426  0.1676
10399TIP3    H152612   2.209   2.130   1.721  0.3401  0.8417 -0.9674
10399TIP3    H252613   2.089   2.195   1.655  0.0582  1.6360  0.2963
10400TIP3   OH252614   0.550   1.948  14.278  0.5839 -0.4228 -0.2507
10400TIP3    H152615   0.486   1.934  14.347  0.5347 -0.1927 -0.2498
10400TIP3    H252616   0.572   1.860  14.248 -0.4178 -0.4735 -0.8782
10401TIP3   OH252617   2.929   0.741  13.307  0.2976  0.1374  0.1934
10401TIP3    H152618   2.954   0.832  13.293  0.0579  0.2372  0.4087
10401TIP3    H252619   2.884   0.716  13.226 -1.0352  0.6990  0.7292
10402TIP3   OH252620   1.486   3.475   0.746  0.3495 -0.1578 -0.7511
10402TIP3    H152621   1.439   3.424   0.680 -0.9738 -0.0153  0.0436
10402TIP3    H252622   1.578   3.455   0.731  0.2144  0.7215 -3.3851
10403TIP3   OH252623   4.144   4.560   3.759 -0.7356 -0.7049 -0.1324
10403TIP3    H152624   4.077   4.557   3.690 -0.3850  0.0766 -0.5269
10403TIP3    H252625   4.097   4.590   3.836 -0.5656  1.5212 -0.8181
10404TIP3   OH252626   1.892   1.250   5.032 -0.6726 -0.0621  0.3346
10404TIP3    H152627   1.875   1.313   5.102 -0.7539 -1.5237  1.7123
10404TIP3    H252628   1.957   1.293   4.976 -0.5501  1.1374  1.3487
10405TIP3   OH252629   0.113   0.657  11.962  0.1405  0.9204  0.4876
10405TIP3    H152630   0.041   0.667  11.899 -0.0894 -1.0903  0.3493
10405TIP3    H252631   0.069   0.639  12.045  0.4781  0.8260  0.6457
10406TIP3   OH252632   1.853   4.945  15.778 -0.1363 -0.1558 -0.0888
10406TIP3    H152633   1.943   4.929  15.809  0.1233  0.6880 -0.3873
10406TIP3    H252634   1.798   4.907  15.846  0.4459 -0.1457  0.4034
10407TIP3   OH252635   3.279   3.350  13.493 -0.5413 -0.3635 -0.2700
10407TIP3    H152636   3.222   3.397  13.555 -0.3487  0.0355 -0.3900
10407TIP3    H252637   3.281   3.407  13.415 -0.6992 -0.8088 -0.6036
10408TIP3   OH252638   5.135   1.331  16.044  0.5848 -0.1272 -0.0879
10408TIP3    H152639   5.134   1.420  16.078 -1.1127 -0.2495  0.2670
10408TIP3    H252640   5.200   1.286  16.097 -0.1998  0.3274  1.3296
10409TIP3   OH252641   3.251   4.289   4.821 -0.5644 -0.1194  0.0931
10409TIP3    H152642   3.195   4.236   4.763  1.3200  0.1318 -2.1018
10409TIP3    H252643   3.196   4.364   4.845 -0.9769  0.5745 -2.6833
10410TIP3   OH252644   0.267   2.673  11.086  0.6159  0.5129 -0.2653
10410TIP3    H152645   0.265   2.769  11.081  1.1234  0.5035 -0.8522
10410TIP3    H252646   0.203   2.651  11.153  0.7758  1.2870  0.1560
10411TIP3   OH252647   1.925   5.723  11.407  0.1044 -0.3237  0.0591
10411TIP3    H152648   1.972   5.651  11.449 -0.0428 -0.3321  0.2093
10411TIP3    H252649   1.980   5.746  11.332  0.6442  0.0483  0.5609
10412TIP3   OH252650   6.625   0.177  11.762  0.2441 -0.5631  0.5173
10412TIP3    H152651   6.558   0.132  11.813 -0.7932  0.2731 -0.0859
10412TIP3    H252652   6.708   0.149  11.802 -0.4977 -0.7269  2.0013
10413TIP3   OH252653   1.913   6.506  14.649  0.0089 -0.0381  0.0569
10413TIP3    H152654   1.912   6.596  14.680  3.6977 -0.0938  0.8713
10413TIP3    H252655   1.940   6.512  14.557 -0.8396 -0.3101 -0.2240
10414TIP3   OH252656   5.295   4.312  13.820 -0.4203  0.0877  0.1572
10414TIP3    H152657   5.302   4.224  13.857 -2.3614 -0.2958 -0.2824
10414TIP3    H252658   5.349   4.310  13.742  0.2366 -0.4382  0.6191
10415TIP3   OH252659   0.439   6.424   3.356  0.2627  0.2896  0.2155
10415TIP3    H152660   0.441   6.519   3.369 -0.6034  0.2193  0.9628
10415TIP3    H252661   0.378   6.411   3.284  0.7275  0.3182 -0.1907
10416TIP3   OH252662   1.629   0.734  15.591 -0.3531  0.4940 -0.5238
10416TIP3    H152663   1.614   0.746  15.684  2.6106 -0.6383  0.2333
10416TIP3    H252664   1.579   0.803  15.549 -2.6445  0.3669  1.7871
10417TIP3   OH252665   0.141   6.677  14.863 -0.0455 -0.1630  0.2780
10417TIP3    H152666   0.059   6.651  14.821 -0.4492 -1.9140  2.0033
10417TIP3    H252667   0.207   6.671  14.794 -1.5030  2.7756 -1.5788
10418TIP3   OH252668   3.622   1.788  14.850 -0.5680  0.5442 -0.2713
10418TIP3    H152669   3.685   1.844  14.895 -0.6704 -0.6185  1.4016
10418TIP3    H252670   3.585   1.844  14.781 -1.6463  2.9880  2.1255
10419TIP3   OH252671   4.279   3.069  15.764 -0.0510 -0.1268 -0.4613
10419TIP3    H152672   4.307   3.001  15.825  0.0357  1.5624  1.4755
10419TIP3    H252673   4.185   3.077  15.777  0.1117  0.9121  0.2116
10420TIP3   OH252674   3.571   0.102   2.865  0.0937 -0.0505  0.0839
10420TIP3    H152675   3.518   0.132   2.939 -0.7759 -0.0306 -0.5376
10420TIP3    H252676   3.603   0.016   2.892 -0.5702 -0.2341  0.3183
10421TIP3   OH252677   5.702   0.960  15.839 -0.2837  0.0317 -0.0179
10421TIP3    H152678   5.768   0.902  15.877 -2.8972 -3.2906 -0.0862
10421TIP3    H252679   5.646   0.985  15.913 -0.1802  1.0862 -0.2803
10422TIP3   OH252680   0.891   3.060   0.066 -0.0788 -0.4148  0.1750
10422TIP3    H152681   0.967   3.104   0.027 -0.5061  0.8545  0.7282
10422TIP3    H252682   0.924   3.024   0.148  0.4181 -1.6963 -0.5483
10423TIP3   OH252683   5.629   1.358  12.042 -0.1222  0.5865 -0.1091
10423TIP3    H152684   5.654   1.288  11.982 -0.3057  0.5843 -0.1843
10423TIP3    H252685   5.703   1.418  12.042  0.8253 -0.5117  1.3525
10424TIP3   OH252686   4.387   6.134   1.150  0.1883  0.2474  0.2340
10424TIP3    H152687   4.311   6.098   1.196  0.4199 -0.1712  0.2975
10424TIP3    H252688   4.452   6.145   1.219  0.5380 -0.3837  0.0187
10425TIP3   OH252689   0.697   1.861  16.759  0.5180  0.3536 -0.4598
10425TIP3    H152690   0.638   1.892  16.690  0.2790  1.5012  0.2305
10425TIP3    H252691   0.752   1.795  16.716 -1.9946 -1.6624 -0.8871
10426TIP3   OH252692   4.069   3.582   3.931  0.0223 -0.1415  0.1868
10426TIP3    H152693   4.097   3.536   4.011  1.1998 -1.4088 -0.9151
10426TIP3    H252694   4.096   3.672   3.945  2.4700 -0.8207  0.2531
10427TIP3   OH252695   2.172   1.853   2.523 -0.6448  0.1476 -0.7668
10427TIP3    H152696   2.103   1.912   2.552 -0.6220 -0.4346  0.5808
10427TIP3    H252697   2.158   1.843   2.429 -1.5982  1.0402 -0.7377
10428TIP3   OH252698   1.798   3.223   1.866 -0.0223 -0.1348  0.3859
10428TIP3    H152699   1.803   3.188   1.777  0.5653 -0.4454  0.5384
10428TIP3    H252700   1.710   3.199   1.895  0.0495 -0.6968  0.1559
10429TIP3   OH252701   6.169   3.898  14.144  0.4519 -0.1071 -0.2017
10429TIP3    H152702   6.147   3.806  14.133 -0.3644  0.1563 -0.9051
10429TIP3    H252703   6.085   3.942  14.155  0.5184  0.9518 -3.0990
10430TIP3   OH252704   4.992   0.454  11.734  0.1151 -0.6527 -0.0503
10430TIP3    H152705   4.987   0.528  11.674  0.2967  1.9859  2.8919
10430TIP3    H252706   5.081   0.459  11.770  0.2777 -2.6300 -0.0769
10431TIP3   OH252707   4.015   0.412  13.518 -0.4159 -0.8620 -0.7703
10431TIP3    H152708   4.101   0.371  13.524 -0.4905 -0.7741  1.4846
10431TIP3    H252709   4.006   0.463  13.599 -2.2352 -0.1575 -1.3596
10432TIP3   OH252710   1.881   5.892   3.397  0.2479 -0.2105 -0.3816
10432TIP3    H152711   1.919   5.953   3.334  1.1884 -1.5195 -1.1107
10432TIP3    H252712   1.811   5.848   3.349 -2.1449  1.9507  0.8543
10433TIP3   OH252713   3.944   0.395  13.247  0.1052  0.0836  0.4445
10433TIP3    H152714   3.861   0.347  13.259 -0.6838  1.2221 -0.3050
10433TIP3    H252715   3.965   0.427  13.335 -0.5383  0.2374  0.5522
10434TIP3   OH252716   0.017   5.278   5.987  0.1842 -0.1220  0.0031
10434TIP3    H152717   0.112   5.284   5.978  0.2969  0.0081  1.2130
10434TIP3    H252718  -0.001   5.302   6.077 -1.1010  0.9354 -0.4928
10435TIP3   OH252719   5.248   5.822  12.383  0.1309  0.5492  0.3599
10435TIP3    H152720   5.188   5.817  12.457  0.2907  0.1569  0.4694
10435TIP3    H252721   5.192   5.842  12.308 -0.1166  0.3451  0.4864
10436TIP3   OH252722   0.557   3.872  16.885 -0.0315 -0.1944 -0.1168
10436TIP3    H152723   0.514   3.931  16.947  1.9088  0.5974  0.5542
10436TIP3    H252724   0.525   3.784  16.909 -0.6040  0.2734  0.8870
10437TIP3   OH252725   3.284   2.512   3.703 -0.0042  0.1186  0.3578
10437TIP3    H152726   3.334   2.533   3.624  0.2099 -1.0835  0.1634
10437TIP3    H252727   3.292   2.417   3.712 -3.1013 -0.3102 -0.2831
10438TIP3   OH252728   1.575   1.987   0.605  0.3463  0.0738  0.5431
10438TIP3    H152729   1.517   1.993   0.680 -1.1108 -0.0446 -0.5317
10438TIP3    H252730   1.530   2.035   0.535  1.0840 -0.8053 -0.5889
10439TIP3   OH252731   4.271   0.748  12.600  0.4342  0.0384 -0.0167
10439TIP3    H152732   4.313   0.678  12.549 -1.0642  0.2896 -1.6899
10439TIP3    H252733   4.340   0.813  12.612  1.0242 -0.3423 -1.1426
10440TIP3   OH252734   5.527   5.153  14.191 -0.3080 -0.3121 -0.5055
10440TIP3    H152735   5.550   5.081  14.250 -1.2625  0.9351  1.5130
10440TIP3    H252736   5.437   5.176  14.215 -0.1572  1.3245 -1.3221
10441TIP3   OH252737   0.896   6.400   5.939  0.0119 -0.3179  0.1169
10441TIP3    H152738   0.984   6.365   5.936 -0.1093 -0.6484  0.3636
10441TIP3    H252739   0.851   6.360   5.865 -0.4620 -1.6146  1.0728
10442TIP3   OH252740   3.321   3.205   5.469  0.3133  0.1693 -0.5558
10442TIP3    H152741   3.393   3.203   5.532  0.8782  0.8297 -1.1729
10442TIP3    H252742   3.332   3.287   5.422  0.6252 -0.8674 -2.3619
10443TIP3   OH252743   5.047   2.719  11.594 -0.9396 -0.0042  0.3927
10443TIP3    H152744   5.078   2.767  11.518  0.3438 -0.6802  0.4571
10443TIP3    H252745   4.986   2.654  11.558  0.4396 -1.0080 -0.2318
10444TIP3   OH252746   6.122   0.813  12.222  0.6338 -0.1149 -0.0171
10444TIP3    H152747   6.092   0.830  12.132  1.4535  2.5658  0.1089
10444TIP3    H252748   6.214   0.842  12.222  0.7379 -0.3491  1.6139
10445TIP3   OH252749   2.423   1.740   1.328 -0.1448  0.7834  0.8461
10445TIP3    H152750   2.403   1.829   1.297  1.4260  0.7602 -0.3989
10445TIP3    H252751   2.341   1.709   1.367 -1.2685  2.1055 -0.3339
10446TIP3   OH252752   3.373   1.300  14.485  0.0459 -0.0012 -0.5965
10446TIP3    H152753   3.422   1.372  14.444 -1.8500  0.1141 -2.9144
10446TIP3    H252754   3.291   1.297  14.435 -0.0305 -3.6442 -0.4709
10447TIP3   OH252755   1.514   6.205   3.039 -0.0749 -0.2373 -0.8632
10447TIP3    H152756   1.478   6.117   3.038 -0.7672  0.0311 -1.9765
10447TIP3    H252757   1.443   6.260   3.073  0.8017 -0.2568  1.1128
10448TIP3   OH252758   3.562   4.755  13.331  0.4093  0.3573  0.2734
10448TIP3    H152759   3.506   4.711  13.267 -0.4728 -0.6200  1.6757
10448TIP3    H252760   3.533   4.846  13.329  0.1114  0.2549 -0.4124
10449TIP3   OH252761   5.511   4.265  14.408 -0.5086 -0.1808 -0.2659
10449TIP3    H152762   5.536   4.344  14.361 -0.8831  0.5589  0.7457
10449TIP3    H252763   5.574   4.199  14.380  1.5607  1.1793  0.9280
10450TIP3   OH252764   3.869   4.539   5.444  0.0004  0.1132 -0.3723
10450TIP3    H152765   3.890   4.589   5.523 -1.0868 -0.7196  0.4875
10450TIP3    H252766   3.950   4.495   5.421  0.5977  1.1454 -0.3222
10451TIP3   OH252767   5.950   0.572  15.145 -0.2252 -0.0268 -0.3440
10451TIP3    H152768   5.889   0.504  15.176  0.1693  0.6063  2.0380
10451TIP3    H252769   5.929   0.649  15.197  1.1154  0.8855 -1.0841
10452TIP3   OH252770   4.043   4.903  12.424 -0.3220 -0.1801 -0.0584
10452TIP3    H152771   4.061   4.997  12.419  0.5950 -0.3680 -0.5496
10452TIP3    H252772   3.984   4.894  12.499  0.2801  0.6957  0.5529
10453TIP3   OH252773   4.011   4.907  11.171  0.4537  0.4475 -0.4621
10453TIP3    H152774   4.022   4.835  11.109  0.5168 -0.6411  0.7755
10453TIP3    H252775   3.920   4.899  11.201  0.6371  0.4913  0.1314
10454TIP3   OH252776   5.895   0.842   3.515  0.2457 -0.7597 -0.0472
10454TIP3    H152777   5.972   0.859   3.569  1.0337 -2.3350 -0.6295
10454TIP3    H252778   5.830   0.808   3.577 -0.2366  1.1279  0.5500
10455TIP3   OH252779   4.703   2.734  11.709 -0.0210 -0.9399  0.1704
10455TIP3    H152780   4.616   2.768  11.688  0.0633  0.1179  1.4149
10455TIP3    H252781   4.755   2.812  11.728  1.4944 -1.4751 -1.4756
10456TIP3   OH252782   2.138   6.314  16.480 -0.6733  0.2556 -0.0509
10456TIP3    H152783   2.171   6.378  16.418 -0.8310 -0.4259 -0.8480
10456TIP3    H252784   2.052   6.347  16.506 -0.5220  0.6414 -0.0445
10457TIP3   OH252785   4.754   5.919  15.445  0.1531 -0.6466  0.2752
10457TIP3    H152786   4.743   6.012  15.463 -1.2402 -0.5055 -1.1059
10457TIP3    H252787   4.847   5.910  15.423 -0.0608  0.8031 -1.4415
10458TIP3   OH252788   1.108   3.495  14.701  0.2998 -0.3450  0.5952
10458TIP3    H152789   1.173   3.425  14.703 -0.0632 -0.7108  0.0129
10458TIP3    H252790   1.153   3.568  14.658  0.6759 -0.2148  1.1953
10459TIP3   OH252791   1.425   4.218   0.361 -0.0797  0.0848 -0.3022
10459TIP3    H152792   1.443   4.133   0.400 -0.9586  0.1432  0.2527
10459TIP3    H252793   1.396   4.272   0.434 -1.2455  0.3546 -0.9482
10460TIP3   OH252794   4.409   2.028   1.250 -0.1093 -0.4103  0.0271
10460TIP3    H152795   4.348   1.956   1.240 -0.0337 -0.8031  2.0570
10460TIP3    H252796   4.357   2.106   1.231 -0.9453 -0.8030  0.6547
10461TIP3   OH252797   4.885   2.508  16.805  0.6418  0.6000  0.3405
10461TIP3    H152798   4.824   2.545  16.741  0.4482  0.4536  0.4380
10461TIP3    H252799   4.935   2.583  16.837 -0.6625  1.0071  1.5202
10462TIP3   OH252800   1.594   6.593  14.318  0.2296  0.0325 -0.4055
10462TIP3    H152801   1.609   6.532  14.245  1.1759 -1.2976  0.8447
10462TIP3    H252802   1.619   6.543  14.396 -1.9716  0.9636  0.9742
10463TIP3   OH252803   3.953   2.575  11.853 -0.1184 -0.0167 -0.1842
10463TIP3    H152804   4.002   2.643  11.805 -0.0997 -0.1054 -0.2909
10463TIP3    H252805   3.919   2.517  11.785 -1.7708  0.9531 -0.2319
10464TIP3   OH252806   3.605   2.006   6.404  0.7013 -0.5540  0.2615
10464TIP3    H152807   3.531   2.014   6.464  1.3388  0.0387  0.9894
10464TIP3    H252808   3.609   1.912   6.384 -0.9214 -0.4750 -0.6947
10465TIP3   OH252809   1.525   0.060  13.429  0.3095 -0.4341 -0.2167
10465TIP3    H152810   1.503   0.130  13.367 -0.0440  0.4779  0.9027
10465TIP3    H252811   1.534   0.104  13.513  3.0109 -1.2902  0.0503
10466TIP3   OH252812   0.374   4.247   6.171  0.2671  0.2175  0.3303
10466TIP3    H152813   0.440   4.271   6.235  0.1190  1.4610  0.0510
10466TIP3    H252814   0.363   4.152   6.181  1.2239  0.1841  1.1846
10467TIP3   OH252815   4.367   1.653  12.550  0.6594  0.0852  0.7086
10467TIP3    H152816   4.329   1.723  12.605 -0.6715 -0.0094 -0.0452
10467TIP3    H252817   4.421   1.602  12.611 -0.2004  0.4083  1.7918
10468TIP3   OH252818   4.286   5.481   3.065  0.1965  0.3027 -0.1155
10468TIP3    H152819   4.267   5.435   2.984 -0.1973 -0.6328  0.4837
10468TIP3    H252820   4.203   5.519   3.092 -0.1896 -1.1306  0.8795
10469TIP3   OH252821   0.254   0.942   2.351 -0.2174  0.0585  0.0802
10469TIP3    H152822   0.330   0.924   2.406 -0.1838  0.6001  0.2168
10469TIP3    H252823   0.182   0.954   2.413 -0.1226  0.9523  0.0333
10470TIP3   OH252824   2.305   5.239  11.272  0.3342 -0.3033 -0.3405
10470TIP3    H152825   2.218   5.222  11.309  0.1304  1.3728  0.0366
10470TIP3    H252826   2.360   5.259  11.348  0.8619 -0.5820 -0.6427
10471TIP3   OH252827   0.401   4.413  12.532  0.0591 -0.4741 -0.1135
10471TIP3    H152828   0.418   4.504  12.509 -0.3818 -0.3353  0.0961
10471TIP3    H252829   0.307   4.402  12.520  0.1211 -0.9219 -0.2054
10472TIP3   OH252830   0.752   4.186   4.552  0.1441 -0.3185  0.5801
10472TIP3    H152831   0.729   4.268   4.594  1.6528  0.1763  0.5293
10472TIP3    H252832   0.843   4.199   4.523 -0.2210 -1.3081 -1.1506
10473TIP3   OH252833   0.741   6.215  11.640  0.0564  0.1561  0.5381
10473TIP3    H152834   0.747   6.193  11.547 -2.3185  1.6494 -0.0474
10473TIP3    H252835   0.743   6.130  11.685 -0.1023 -0.6654 -0.9528
10474TIP3   OH252836   1.885   2.221  16.168  0.0241  0.7090  0.2720
10474TIP3    H152837   1.941   2.153  16.205  0.0994  1.3900  1.4607
10474TIP3    H252838   1.892   2.209  16.074 -1.8976 -2.5075  0.4154
10475TIP3   OH252839   3.213   5.878   3.776  0.3269 -0.0195 -0.4026
10475TIP3    H152840   3.203   5.929   3.857  3.8198 -0.2794  0.3616
10475TIP3    H252841   3.190   5.939   3.706  0.3666  1.2480  0.6461
10476TIP3   OH252842   5.078   1.947  12.639 -0.3134  0.1464 -0.6396
10476TIP3    H152843   5.063   1.880  12.571 -3.2355  0.9540 -0.9413
10476TIP3    H252844   5.139   2.009  12.599  2.4257 -2.1727 -0.3798
10477TIP3   OH252845   0.648   3.932  13.359  0.8982 -0.6133  0.4533
10477TIP3    H152846   0.639   3.854  13.304  0.4992 -0.8989  0.9146
10477TIP3    H252847   0.570   3.931  13.415  2.0438 -1.1840  2.1078
10478TIP3   OH252848   4.440   6.327  15.895 -0.4077  0.3903 -0.5289
10478TIP3    H152849   4.495   6.256  15.861 -0.0355  1.2382 -1.7805
10478TIP3    H252850   4.362   6.283  15.928  1.3008 -0.9496  2.0940
10479TIP3   OH252851   0.105   1.920   1.533  0.4427  0.0849  0.7463
10479TIP3    H152852   0.121   1.835   1.491  1.1350 -0.4505  2.0389
10479TIP3    H252853   0.094   1.900   1.625  0.6319  1.4136  1.0799
10480TIP3   OH252854   1.664   4.131   4.924 -0.0581 -0.2493  0.0399
10480TIP3    H152855   1.754   4.144   4.894 -0.2420 -1.6556 -1.2408
10480TIP3    H252856   1.611   4.185   4.866 -0.0718  0.4923  0.7245
10481TIP3   OH252857   6.274   5.802  16.351 -0.1214 -0.1404  0.4793
10481TIP3    H152858   6.247   5.891  16.326 -0.8709 -0.4639  0.1049
10481TIP3    H252859   6.244   5.747  16.278 -0.8599 -0.8828  1.3278
10482TIP3   OH252860   3.205   1.753   2.102  0.5222  0.0240 -0.1166
10482TIP3    H152861   3.112   1.742   2.120  0.7258 -0.6122  0.6528
10482TIP3    H252862   3.215   1.732   2.009 -0.0834 -0.0002 -0.1759
10483TIP3   OH252863   6.737   2.874   0.639  0.6360 -0.6144  0.2118
10483TIP3    H152864   6.645   2.865   0.615  0.2649  1.7030  0.5539
10483TIP3    H252865   6.781   2.803   0.592 -1.2764 -1.6977 -0.0587
10484TIP3   OH252866   4.407   2.371  13.902 -0.5864  0.3420  0.0322
10484TIP3    H152867   4.444   2.459  13.912  0.4857 -0.0742 -0.2643
10484TIP3    H252868   4.355   2.358  13.982 -2.8189  2.1934 -0.9835
10485TIP3   OH252869   0.558   5.573  16.319  0.3277  0.2345  0.5724
10485TIP3    H152870   0.539   5.656  16.276  0.3600 -0.1488 -0.2045
10485TIP3    H252871   0.650   5.557  16.300  0.6307  0.5791  1.7033
10486TIP3   OH252872   6.074   2.606   2.956 -0.3737  0.2195 -0.2577
10486TIP3    H152873   6.116   2.523   2.981  0.9462  0.9485  0.0245
10486TIP3    H252874   6.067   2.602   2.861  0.7018  0.2274 -0.3521
10487TIP3   OH252875   6.195   3.454   5.377 -0.3813 -0.1123 -0.3702
10487TIP3    H152876   6.183   3.381   5.438 -2.3149  0.2400 -0.2720
10487TIP3    H252877   6.179   3.532   5.429 -0.2115  0.2900 -0.9080
10488TIP3   OH252878   2.475   3.568   2.359  0.0626 -0.4712 -0.3222
10488TIP3    H152879   2.487   3.473   2.363 -0.2517 -0.5231 -0.5891
10488TIP3    H252880   2.390   3.580   2.317  0.8198 -0.0346 -1.8165
10489TIP3   OH252881   1.660   1.690   2.282  0.0575  0.3874 -0.1619
10489TIP3    H152882   1.624   1.604   2.263 -1.0397  0.2303  2.2042
10489TIP3    H252883   1.589   1.736   2.328  0.7685  2.3971 -0.9452
10490TIP3   OH252884   3.345   5.382  14.151  0.3727  0.3030 -0.3928
10490TIP3    H152885   3.329   5.307  14.095  1.1020  1.4038 -2.1506
10490TIP3    H252886   3.306   5.358  14.235 -0.2070 -1.6467 -1.1715
10491TIP3   OH252887   4.132   2.381  16.426  0.0172  0.0995 -0.4831
10491TIP3    H152888   4.157   2.289  16.432  1.9042  0.5602 -0.8198
10491TIP3    H252889   4.148   2.405  16.335 -2.7442  0.1987 -1.0364
10492TIP3   OH252890   3.738   2.912  15.135  0.0870 -0.3462  0.1006
10492TIP3    H152891   3.795   2.942  15.064 -0.8606  2.8062  0.5532
10492TIP3    H252892   3.799   2.886  15.204  0.9889 -0.5413 -0.7354
10493TIP3   OH252893   0.483   1.772   6.150 -0.1820  0.1943  0.0660
10493TIP3    H152894   0.428   1.841   6.113  1.4524  0.7066 -1.5845
10493TIP3    H252895   0.471   1.697   6.091  0.8910  0.3322 -0.3541
10494TIP3   OH252896   1.006   4.021  13.349  0.2879  0.6375  0.3448
10494TIP3    H152897   0.930   4.069  13.316 -1.0727 -1.5290  0.0956
10494TIP3    H252898   1.078   4.083  13.345 -0.8263  1.9055 -2.2913
10495TIP3   OH252899   0.787   6.265   6.567  0.0229 -0.4113 -0.2146
10495TIP3    H152900   0.834   6.186   6.596  1.1270  0.5967  0.8328
10495TIP3    H252901   0.831   6.290   6.486  0.6072 -0.0801  0.1996
10496TIP3   OH252902   0.191   4.466  13.584  0.0777  0.5645 -0.6754
10496TIP3    H152903   0.206   4.468  13.678 -2.1112 -2.6354 -0.0831
10496TIP3    H252904   0.262   4.517  13.547  0.8582  2.1797  2.6899
10497TIP3   OH252905   0.417   0.839  16.170 -0.3491 -0.2208  0.0460
10497TIP3    H152906   0.391   0.893  16.095 -0.1345 -1.0369 -0.6242
10497TIP3    H252907   0.445   0.903  16.236  0.4795  0.4869 -0.9551
10498TIP3   OH252908   0.637   0.743  16.447 -0.1390  0.1770  0.7734
10498TIP3    H152909   0.594   0.694  16.517 -0.9584  0.6067  0.5762
10498TIP3    H252910   0.573   0.809  16.420 -0.3840 -0.8288 -1.3011
10499TIP3   OH252911   6.404   6.688  12.648 -0.4310  0.2772 -0.7093
10499TIP3    H152912   6.340   6.760  12.649 -0.7824  0.0052 -1.9270
10499TIP3    H252913   6.365   6.622  12.592 -0.0658 -0.8551  0.3227
10500TIP3   OH252914   6.065   5.443  11.388 -0.4269 -0.1716  0.1261
10500TIP3    H152915   6.051   5.492  11.307 -0.1767  0.5821  0.5279
10500TIP3    H252916   5.983   5.452  11.436 -0.9046 -1.3798 -0.4208
10501TIP3   OH252917   1.114   2.914  13.634  0.3818 -0.1702 -0.0029
10501TIP3    H152918   1.150   2.983  13.578 -0.4905  0.9097  0.7235
10501TIP3    H252919   1.023   2.905  13.606 -0.2199  0.7593  1.5570
10502TIP3   OH252920   2.534   3.116  13.150 -0.1863  0.0621  0.4269
10502TIP3    H152921   2.573   3.143  13.068 -0.5882 -1.4295 -0.2904
10502TIP3    H252922   2.596   3.053  13.187 -1.4573 -1.7281 -0.3441
10503TIP3   OH252923   3.737   3.949   2.521 -0.4458 -0.0956 -0.2374
10503TIP3    H152924   3.755   4.042   2.530  0.3225 -0.1913 -0.7008
10503TIP3    H252925   3.683   3.942   2.442 -2.3114  0.1504  0.9430
10504TIP3   OH252926   0.402   6.731  11.793  0.0148  0.2794  0.1229
10504TIP3    H152927   0.466   6.662  11.814  0.8479  1.2570  0.9552
10504TIP3    H252928   0.338   6.726  11.864 -0.1572  0.0952 -0.0444
10505TIP3   OH252929   6.422   2.656   0.676 -0.2134  0.1592  0.0557
10505TIP3    H152930   6.405   2.585   0.614  1.0826 -0.7197  0.6547
10505TIP3    H252931   6.435   2.733   0.620 -2.2781  0.1003 -0.5700
10506TIP3   OH252932   5.264   6.767   1.448  0.1433 -0.0807 -0.3173
10506TIP3    H152933   5.255   6.688   1.394  0.3464 -0.4126  0.1305
10506TIP3    H252934   5.327   6.743   1.515 -0.3565  0.2226  0.2694
10507TIP3   OH252935   2.045   6.628  11.162  0.2918  0.4646 -0.2120
10507TIP3    H152936   2.098   6.571  11.218  0.6415 -0.4908 -1.4800
10507TIP3    H252937   2.017   6.572  11.090  0.6376  1.8838 -1.5132
10508TIP3   OH252938   6.069   2.851  12.644  0.1152  0.0031 -0.1090
10508TIP3    H152939   6.149   2.799  12.655  1.1333  1.3138 -0.9109
10508TIP3    H252940   6.058   2.857  12.549 -2.1943 -1.9190 -0.0627
10509TIP3   OH252941   6.463   6.230  12.371 -0.4227 -0.1407  0.1684
10509TIP3    H152942   6.396   6.252  12.437  0.0785 -0.5559  0.8221
10509TIP3    H252943   6.465   6.307  12.314 -1.1624  0.0546  0.3866
10510TIP3   OH252944   2.677   4.438   5.519  0.5194 -0.0163  0.1239
10510TIP3    H152945   2.726   4.490   5.456  0.3088 -0.6548 -0.5686
10510TIP3    H252946   2.678   4.491   5.599  1.1779  0.5844 -0.2741
10511TIP3   OH252947   3.336   2.038   5.959  0.8964 -0.2370 -0.4205
10511TIP3    H152948   3.429   2.019   5.972  0.7890 -0.7021 -0.3402
10511TIP3    H252949   3.291   1.955   5.975  0.1182  0.6605  3.0095
10512TIP3   OH252950   6.629   3.006   0.870 -0.5694 -0.2364  0.6306
10512TIP3    H152951   6.651   2.925   0.915 -1.1119 -0.1783  1.0149
10512TIP3    H252952   6.650   2.990   0.778  0.0744 -0.5308  0.8294
10513TIP3   OH252953   1.833   1.691   2.065 -0.0088 -0.6448  0.2329
10513TIP3    H152954   1.763   1.693   2.130  0.4093  0.9711  0.6740
10513TIP3    H252955   1.787   1.685   1.981 -0.5415 -3.0367  0.6305
10514TIP3   OH252956   6.782   6.228  16.275  0.2268 -0.3547  0.1117
10514TIP3    H152957   6.783   6.292  16.204  0.9815  1.3534  1.5660
10514TIP3    H252958   6.800   6.280  16.354 -0.2290 -2.2150  1.5165
10515TIP3   OH252959   4.827   4.426   2.367 -0.3042 -0.4499 -0.0456
10515TIP3    H152960   4.799   4.340   2.337  0.7783 -1.2642  1.1737
10515TIP3    H252961   4.913   4.439   2.328 -1.3334  1.0866 -2.0010
10516TIP3   OH252962   0.275   5.912  15.770 -0.1802 -0.4244  0.2982
10516TIP3    H152963   0.323   5.963  15.836 -1.1046  1.9238 -0.7124
10516TIP3    H252964   0.293   5.957  15.687 -5.3408  1.8921  0.0059
10517TIP3   OH252965   6.173   4.349  15.548 -0.0478 -0.4579 -0.2681
10517TIP3    H152966   6.117   4.271  15.546  0.7614 -1.0922  0.6783
10517TIP3    H252967   6.113   4.421  15.568 -0.6433 -0.9958 -0.0873
10518TIP3   OH252968   3.568   6.667   2.283 -0.3902 -0.3003  0.1132
10518TIP3    H152969   3.634   6.704   2.224  0.3072 -2.4183 -0.5263
10518TIP3    H252970   3.590   6.704   2.368  1.3177 -0.5393 -0.1807
10519TIP3   OH252971   0.900   0.076  16.035  0.2275 -0.1142  0.2457
10519TIP3    H152972   0.884   0.041  16.123 -1.8145 -2.6737 -1.0257
10519TIP3    H252973   0.823   0.129  16.016  0.3159 -0.1723 -0.2754
10520TIP3   OH252974   3.025   1.379  12.664 -0.0155 -0.2345 -0.1286
10520TIP3    H152975   3.027   1.309  12.730 -1.2024 -0.0259  0.1550
10520TIP3    H252976   3.057   1.337  12.584 -0.9600 -1.1827 -0.0335
10521TIP3   OH252977   3.023   3.568  15.304 -0.0683 -0.1723 -0.7933
10521TIP3    H152978   2.952   3.542  15.245 -1.8428  0.4258  0.9662
10521TIP3    H252979   3.021   3.664  15.303  0.4728 -0.1487 -0.4357
10522TIP3   OH252980   5.449   0.647  13.483 -0.0818  0.1182  0.3628
10522TIP3    H152981   5.445   0.736  13.449 -3.0107 -0.6170 -1.4812
10522TIP3    H252982   5.488   0.596  13.413  1.5229 -0.1486  1.3867
10523TIP3   OH252983   5.465   1.921  15.894 -0.0175 -0.1737  0.1234
10523TIP3    H152984   5.428   1.902  15.808  1.1601 -0.1592 -0.4085
10523TIP3    H252985   5.393   1.905  15.955 -1.2489  0.9900 -0.9482
10524TIP3   OH252986   4.545   0.919   0.734  0.2440 -0.2854 -0.0959
10524TIP3    H152987   4.514   0.991   0.789 -1.0435 -0.9473  0.0925
10524TIP3    H252988   4.585   0.857   0.795  0.1655 -0.3256 -0.0843
10525TIP3   OH252989   3.481   0.939  14.433 -0.7970  0.5252  0.2097
10525TIP3    H152990   3.549   1.003  14.456  0.6021 -0.4424 -1.0898
10525TIP3    H252991   3.445   0.972  14.350 -0.5513  0.0047 -0.1050
10526TIP3   OH252992   0.810   5.916  14.811 -0.1691 -0.7734  0.0773
10526TIP3    H152993   0.773   5.996  14.850 -0.3265 -0.3158 -0.9667
10526TIP3    H252994   0.736   5.875  14.766  0.3023 -0.5060 -0.9740
10527TIP3   OH252995   5.056   2.641  15.883  0.2062  0.0828 -0.1458
10527TIP3    H152996   5.120   2.653  15.812  0.0419  0.7127 -0.1920
10527TIP3    H252997   5.106   2.598  15.952  0.4064 -0.4045 -0.5836
10528TIP3   OH252998   6.328   3.789  11.859 -0.2098 -0.1343  0.7315
10528TIP3    H152999   6.366   3.845  11.927  1.1375  1.0528 -0.8930
10528TIP3    H253000   6.304   3.850  11.789 -0.2619 -1.4409 -0.4262
10529TIP3   OH253001   1.048   0.212  14.070 -0.1921 -0.2178 -0.6271
10529TIP3    H153002   0.988   0.139  14.054  1.2396 -2.2009  1.9939
10529TIP3    H253003   1.124   0.193  14.014 -0.2095 -0.2481 -0.6404
10530TIP3   OH253004   1.268   3.073   5.775  0.4344  0.2665  0.2649
10530TIP3    H153005   1.363   3.079   5.766  0.5257  0.6241  1.3773
10530TIP3    H253006   1.248   3.122   5.854 -0.9279  2.1978 -1.1820
10531TIP3   OH253007   5.191   3.972   2.431 -0.5726 -0.4739  0.1692
10531TIP3    H153008   5.148   4.045   2.387 -1.9974 -0.1383  1.9774
10531TIP3    H253009   5.214   3.911   2.361  0.2124  1.4447 -1.3430
10532TIP3   OH253010   1.283   6.391  11.850 -0.6191 -0.1956  0.6049
10532TIP3    H153011   1.207   6.341  11.820 -0.2612 -0.1574 -0.3863
10532TIP3    H253012   1.254   6.483  11.844 -0.6507 -0.1998  0.6869
10533TIP3   OH253013   5.612   5.304  14.491  0.0556  0.2944 -0.1106
10533TIP3    H153014   5.616   5.343  14.578 -2.8351 -0.2270  0.3541
10533TIP3    H253015   5.642   5.214  14.504  1.6267  0.7793 -0.1331
10534TIP3   OH253016   5.833   1.260  16.934  0.2226  0.1808  0.5261
10534TIP3    H153017   5.760   1.252  16.873 -0.4056 -0.2198  1.3063
10534TIP3    H253018   5.797   1.230  17.018  1.0582  0.7381  1.0946
10535TIP3   OH253019   2.762   2.489  11.516 -0.1614  0.0218  0.3562
10535TIP3    H153020   2.772   2.398  11.544  2.3356 -0.1136 -0.7298
10535TIP3    H253021   2.701   2.485  11.442 -0.0409 -0.7889  0.2949
10536TIP3   OH253022   6.328   0.888  11.821 -0.2941  0.0798 -0.6066
10536TIP3    H153023   6.385   0.918  11.892 -1.0620 -1.1425  0.5844
10536TIP3    H253024   6.370   0.808  11.790 -0.4242  0.1403 -0.9379
10537TIP3   OH253025   3.056   4.602  12.134 -0.3953 -0.2676  1.2499
10537TIP3    H153026   3.036   4.535  12.200  0.1951 -0.1209  1.5806
10537TIP3    H253027   3.112   4.665  12.180  1.9057 -1.3128  0.0256
10538TIP3   OH253028   2.593   2.502   2.680  0.2987  0.1425 -0.2466
10538TIP3    H153029   2.526   2.563   2.650  1.3401  0.0801 -3.0270
10538TIP3    H253030   2.675   2.539   2.648  1.1679 -1.7090 -0.3055
10539TIP3   OH253031   0.230   3.280  15.247 -0.7496  0.1260  0.1337
10539TIP3    H153032   0.186   3.359  15.215 -0.8726 -1.0379 -2.9453
10539TIP3    H253033   0.324   3.299  15.239 -0.7724  0.2096  0.0695
10540TIP3   OH253034   4.093   2.768  11.730 -0.1690  0.0485 -0.1712
10540TIP3    H153035   4.144   2.715  11.669  0.6167 -0.3764  0.8088
10540TIP3    H253036   4.141   2.851  11.736  0.2458 -0.2328  0.5103
10541TIP3   OH253037   2.938   4.621  11.688  0.4315 -0.2852 -0.0435
10541TIP3    H153038   2.847   4.602  11.665  0.5809  0.1973 -1.0960
10541TIP3    H253039   2.936   4.639  11.782 -0.6896  0.4564 -0.1936
10542TIP3   OH253040   6.483   3.042   0.043 -0.4276 -0.4615  0.2463
10542TIP3    H153041   6.453   2.958   0.009  0.2267 -1.1078  1.2390
10542TIP3    H253042   6.574   3.049   0.013 -0.7864  0.3945 -0.7235
10543TIP3   OH253043   1.279   0.089   2.443 -0.4069  0.3130 -0.1474
10543TIP3    H153044   1.318   0.013   2.399 -1.7151 -0.0157 -0.7798
10543TIP3    H253045   1.200   0.055   2.485  0.4427  0.7609  1.9485
10544TIP3   OH253046   4.900   1.522   0.981 -0.2033  0.0360 -0.9277
10544TIP3    H153047   4.905   1.614   1.004  0.1775 -0.5441  1.5915
10544TIP3    H253048   4.890   1.476   1.065  0.0663 -2.2427 -2.0505
10545TIP3   OH253049   4.121   3.290   4.300  0.1383 -0.2605  0.2273
10545TIP3    H153050   4.199   3.244   4.329  0.8793  1.0009  0.3085
10545TIP3    H253051   4.094   3.243   4.221  1.0931 -0.5859  0.0782
10546TIP3   OH253052   2.527   3.158   3.306 -1.0519  0.7277  0.0933
10546TIP3    H153053   2.460   3.094   3.329 -1.1458  1.5540  2.3149
10546TIP3    H253054   2.580   3.166   3.385  1.1324  0.7945 -1.3001
10547TIP3   OH253055   2.551   4.646  13.119 -0.3967 -0.2144 -0.3617
10547TIP3    H153056   2.601   4.708  13.066  0.2813 -2.2031 -2.1635
10547TIP3    H253057   2.466   4.639  13.075 -0.6787 -0.1338  0.1630
10548TIP3   OH253058   4.395   5.445  12.794  0.2091  0.2329 -0.0309
10548TIP3    H153059   4.360   5.423  12.707 -1.9777 -1.0965  1.0997
10548TIP3    H253060   4.490   5.445  12.782 -0.0252  0.5178 -2.5020
10549TIP3   OH253061   5.781   2.459   2.545 -0.4425  0.0066 -0.1714
10549TIP3    H153062   5.752   2.524   2.610 -1.9458  0.9556 -1.6935
10549TIP3    H253063   5.699   2.423   2.510  0.2742  0.0799 -2.0474
10550TIP3   OH253064   0.219   6.705  12.727  0.1669 -0.1736  0.5179
10550TIP3    H153065   0.127   6.691  12.751 -0.9046 -1.0210 -3.4482
10550TIP3    H253066   0.225   6.800  12.713 -0.3435 -0.1947  0.0943
10551TIP3   OH253067   1.811   6.251  10.647  0.1173 -0.1877  0.6297
10551TIP3    H153068   1.732   6.271  10.597  0.1326 -1.5269  0.0039
10551TIP3    H253069   1.875   6.317  10.620  0.2663 -1.1048 -1.5327
10552TIP3   OH253070   4.029   4.318   3.144 -0.4290 -0.2849 -0.6143
10552TIP3    H153071   3.969   4.384   3.179 -0.9111 -0.1076 -1.7240
10552TIP3    H253072   4.096   4.308   3.211  0.4011  2.3044 -0.9580
10553TIP3   OH253073   3.803   0.087  11.409  0.1730 -0.0779  0.4117
10553TIP3    H153074   3.803   0.025  11.336  2.1347  1.7877 -1.3159
10553TIP3    H253075   3.873   0.148  11.388 -0.6159  1.8127  2.8385
10554TIP3   OH253076   1.860   2.366  15.533 -0.2359  0.5699 -0.1596
10554TIP3    H153077   1.875   2.297  15.468  0.8733  0.6397  0.0101
10554TIP3    H253078   1.945   2.410  15.543 -0.2312  0.2429  1.6923
10555TIP3   OH253079   2.489   5.131  13.350 -0.0943 -0.7886  0.2095
10555TIP3    H153080   2.445   5.153  13.432  2.8075 -0.0652  1.7181
10555TIP3    H253081   2.539   5.052  13.370  0.7947 -0.5154 -0.8286
10556TIP3   OH253082   4.416   2.388   1.034  0.5159  0.1044 -0.0292
10556TIP3    H153083   4.472   2.422   1.103  0.3136 -1.8614  1.1678
10556TIP3    H253084   4.354   2.330   1.079  0.0355 -0.8340 -1.7916
10557TIP3   OH253085   1.561   3.776  15.304 -0.3045  0.0429 -0.4594
10557TIP3    H153086   1.489   3.796  15.364  1.1071  2.5661  0.5149
10557TIP3    H253087   1.536   3.818  15.221 -0.3504  0.1453 -0.3938
10558TIP3   OH253088   5.907   0.577   0.787 -0.2365  0.3138 -0.4397
10558TIP3    H153089   5.959   0.578   0.707  0.7773 -0.2035  0.1866
10558TIP3    H253090   5.957   0.521   0.847 -1.8695 -0.7805 -0.0407
10559TIP3   OH253091   5.997   3.170  16.445  0.2185  0.5649 -1.0044
10559TIP3    H153092   5.999   3.192  16.538 -1.9703 -0.7246 -0.5737
10559TIP3    H253093   5.965   3.080  16.442  0.5127  0.4699 -2.9987
10560TIP3   OH253094   2.442   5.333   5.317  0.0069 -0.0671 -0.2822
10560TIP3    H153095   2.456   5.325   5.223  2.3407 -0.9687  0.0902
10560TIP3    H253096   2.527   5.359   5.352 -1.1901  1.8665  1.4514
10561TIP3   OH253097   2.505   5.913  12.613 -0.3407  0.5799 -0.2800
10561TIP3    H153098   2.582   5.970  12.621  0.6312 -0.5737 -1.0146
10561TIP3    H253099   2.531   5.832  12.655 -1.4963  0.4580  0.2296
10562TIP3   OH253100   2.692   3.684   4.665 -0.0751 -0.5964 -0.5044
10562TIP3    H153101   2.733   3.603   4.634 -0.8562 -1.6414  1.0743
10562TIP3    H253102   2.687   3.674   4.760  0.0152  1.4226 -0.2511
10563TIP3   OH253103   2.692   1.612   2.453  0.4374 -0.1560  1.0039
10563TIP3    H153104   2.775   1.657   2.435  0.5470 -0.3637  0.9842
10563TIP3    H253105   2.653   1.661   2.525  0.1994  0.4177  0.4887
10564TIP3   OH253106   4.225   6.697  14.823 -0.0475  0.2082 -0.3408
10564TIP3    H153107   4.290   6.665  14.885  0.2561  3.3743  1.2281
10564TIP3    H253108   4.268   6.693  14.738  1.1874 -0.2523  0.2799
10565TIP3   OH253109   1.282   1.316   3.436 -0.6716  0.7646  0.0694
10565TIP3    H153110   1.195   1.278   3.442 -1.0313  1.5605 -0.0231
10565TIP3    H253111   1.273   1.387   3.373 -0.6361  2.6434  2.0614
10566TIP3   OH253112   1.190   3.870   5.515 -0.3001 -0.0355 -0.2469
10566TIP3    H153113   1.220   3.879   5.606 -0.4137  1.4073 -0.3375
10566TIP3    H253114   1.094   3.869   5.522 -0.3260  0.7012 -0.3840
10567TIP3   OH253115   3.036   6.026   2.581  0.2624  0.1324  0.0326
10567TIP3    H153116   3.125   6.004   2.609  0.4624 -0.0359 -0.7190
10567TIP3    H253117   3.035   6.011   2.487 -0.1234  1.5927 -0.2323
10568TIP3   OH253118   3.920   4.923   1.999  0.7568 -0.1628  0.2162
10568TIP3    H153119   3.904   4.878   1.916  3.5735 -0.2975 -0.3680
10568TIP3    H253120   3.860   4.998   1.999 -1.7784 -2.0591 -0.2465
10569TIP3   OH253121   0.156   5.045   3.396  0.3985 -0.4002  0.5569
10569TIP3    H153122   0.166   5.139   3.380 -0.5854 -0.2414  0.7835
10569TIP3    H253123   0.093   5.040   3.468 -0.5144 -1.2523 -0.2763
10570TIP3   OH253124   3.192   0.361   3.868 -0.3039 -0.0902 -0.0689
10570TIP3    H153125   3.201   0.442   3.919  0.4054 -1.2481  1.7467
10570TIP3    H253126   3.278   0.320   3.872 -0.8857 -1.3778 -0.1848
10571TIP3   OH253127   4.137   4.872   1.808  0.0701  0.2285 -0.1750
10571TIP3    H153128   4.075   4.922   1.861 -2.0171 -1.7057 -0.6607
10571TIP3    H253129   4.144   4.922   1.726 -0.6563  0.6067 -0.0154
10572TIP3   OH253130   1.126   5.241   2.572  0.3647 -0.2808 -1.1365
10572TIP3    H153131   1.032   5.223   2.573  0.1965  0.3911 -2.1745
10572TIP3    H253132   1.167   5.162   2.606 -0.6146 -0.2494  0.1792
10573TIP3   OH253133   3.202   4.579  15.471 -0.3398  0.0755 -0.2854
10573TIP3    H153134   3.147   4.573  15.393  0.0392  0.9672 -0.6411
10573TIP3    H253135   3.175   4.661  15.512  0.1199  0.0800  0.0106
10574TIP3   OH253136   0.985   5.888  13.850 -0.6685  0.1069 -0.4764
10574TIP3    H153137   0.900   5.849  13.871 -0.9745 -0.7328 -2.9494
10574TIP3    H253138   0.964   5.962  13.794  0.2306 -0.7036 -1.9331
10575TIP3   OH253139   3.850   6.740   4.215 -0.3546 -0.5945  0.2203
10575TIP3    H153140   3.850   6.652   4.178  0.9639  0.0069 -1.3292
10575TIP3    H253141   3.766   6.778   4.189 -0.6388 -1.1478  0.3177
10576TIP3   OH253142   3.656   2.715   5.659  0.0851 -0.7611  0.2644
10576TIP3    H153143   3.576   2.719   5.711  0.7266  2.1075  1.1939
10576TIP3    H253144   3.719   2.668   5.714 -0.1580 -0.5141  0.7593
10577TIP3   OH253145   4.152   2.654   1.286  0.0645 -0.6066 -0.5208
10577TIP3    H153146   4.077   2.688   1.335 -0.1354  0.9296 -1.8041
10577TIP3    H253147   4.161   2.564   1.315 -2.0206 -0.6939 -0.0149
10578TIP3   OH253148   6.537   4.872  16.138 -0.1676  0.1815 -0.2330
10578TIP3    H153149   6.489   4.821  16.074  0.5178  0.0564 -0.6612
10578TIP3    H253150   6.527   4.824  16.220 -1.6844  0.7476 -0.0674
10579TIP3   OH253151   0.855   4.816  10.606  0.4974  0.6435 -0.1844
10579TIP3    H153152   0.870   4.850  10.518  1.9161 -0.1612 -0.2774
10579TIP3    H253153   0.932   4.841  10.656  0.1447  0.2684  0.5722
10580TIP3   OH253154   0.829   5.333   2.791 -0.2650  0.3813  0.2879
10580TIP3    H153155   0.815   5.398   2.859 -2.6349 -0.6845  0.9276
10580TIP3    H253156   0.869   5.259   2.836 -0.7605  0.1160  0.3023
10581TIP3   OH253157   6.465   2.914  15.922 -0.2007 -0.7226 -0.0028
10581TIP3    H153158   6.469   2.881  15.833  0.2600 -1.3491  0.2455
10581TIP3    H253159   6.430   2.841  15.973 -0.4287 -0.3808  0.3347
10582TIP3   OH253160   0.425   5.310   4.392  0.4511 -0.3168  0.1117
10582TIP3    H153161   0.460   5.252   4.459  1.0666 -1.3411 -1.0616
10582TIP3    H253162   0.340   5.272   4.368  0.7905 -0.6772 -0.5569
10583TIP3   OH253163   0.219   0.425  12.441 -0.4759 -0.0025  0.1882
10583TIP3    H153164   0.243   0.333  12.426 -0.2942 -0.3023  2.1393
10583TIP3    H253165   0.161   0.423  12.516  1.4205  1.6609  1.8159
10584TIP3   OH253166   4.333   4.042   3.430 -0.1174  0.0940 -0.0547
10584TIP3    H153167   4.250   4.016   3.389  0.0226 -0.7654  0.1825
10584TIP3    H253168   4.307   4.087   3.510 -0.3848  1.4630 -0.8723
10585TIP3   OH253169   2.583   0.873   2.611  0.0941  0.0640 -0.1675
10585TIP3    H153170   2.490   0.877   2.590  0.3497  1.7356 -1.2343
10585TIP3    H253171   2.595   0.939   2.680  0.2947 -1.0539  0.8992
10586TIP3   OH253172   3.706   5.610   2.702 -0.5090  0.1188 -0.0410
10586TIP3    H153173   3.768   5.678   2.725 -0.5438  0.1017  0.1042
10586TIP3    H253174   3.760   5.533   2.682 -0.4090  0.5097 -1.3328
10587TIP3   OH253175   3.359   3.767   4.610 -0.0740 -0.0275 -0.7660
10587TIP3    H153176   3.386   3.690   4.659 -0.5506  0.6977  0.6805
10587TIP3    H253177   3.438   3.821   4.605 -0.4237  0.6743  0.7452
10588TIP3   OH253178   0.111   6.696   0.334 -0.3753  0.0131  0.1013
10588TIP3    H153179   0.050   6.703   0.407 -0.0296 -0.4347  0.4394
10588TIP3    H253180   0.194   6.669   0.374 -0.7193 -2.4518 -0.6700
10589TIP3   OH253181   2.270   1.238   5.524  0.3645 -0.3294  0.2837
10589TIP3    H153182   2.325   1.297   5.473 -1.3527  0.7047 -0.4741
10589TIP3    H253183   2.298   1.150   5.497  2.0841  0.1233  0.4722
10590TIP3   OH253184   4.316   1.191   4.175  0.7533 -0.6609  0.1299
10590TIP3    H153185   4.341   1.122   4.114 -0.3152  0.1486 -1.2960
10590TIP3    H253186   4.282   1.261   4.119  0.3589  0.3954  1.6291
10591TIP3   OH253187   3.506   4.333  16.314 -0.3949  0.3526  0.4951
10591TIP3    H153188   3.485   4.251  16.270  0.1208  0.4793  0.0114
10591TIP3    H253189   3.591   4.358  16.280 -1.4433  2.1720 -0.9897
10592TIP3   OH253190   1.079   0.934   1.261  0.1394  0.4387 -0.1262
10592TIP3    H153191   1.028   0.864   1.302 -0.3715 -0.0507 -1.5490
10592TIP3    H253192   1.068   0.921   1.167  3.0298  0.2010 -0.5456
10593TIP3   OH253193   1.255   5.804  15.708 -0.4592 -0.0403 -0.1678
10593TIP3    H153194   1.225   5.857  15.634 -0.6785  0.6822  0.4260
10593TIP3    H253195   1.297   5.866  15.767  0.7943 -0.7901 -0.2285
10594TIP3   OH253196   1.961   3.214   1.235 -0.0822  0.0978  0.3607
10594TIP3    H153197   1.968   3.264   1.154 -2.0169  0.7940  0.5483
10594TIP3    H253198   1.964   3.280   1.304 -2.6628  0.0504  0.6165
10595TIP3   OH253199   5.453   3.852  13.849  0.1760 -0.6155 -0.4702
10595TIP3    H153200   5.369   3.898  13.851 -0.8546 -2.2139  3.4497
10595TIP3    H253201   5.517   3.917  13.877 -0.7302 -0.6272  1.8266
10596TIP3   OH253202   3.992   6.228  11.276  0.2349  0.1562  0.7621
10596TIP3    H153203   3.951   6.250  11.192  2.0510  0.3448 -0.1391
10596TIP3    H253204   4.085   6.244  11.261  0.3694  2.9819  3.7117
10597TIP3   OH253205   3.787   0.579  11.734  0.0179  1.2631  0.1874
10597TIP3    H153206   3.867   0.546  11.775 -1.2513 -0.2168  1.6050
10597TIP3    H253207   3.808   0.588  11.641  1.4239 -0.3928  0.3135
10598TIP3   OH253208   4.351   3.770  12.396  0.2024 -0.0036  0.4369
10598TIP3    H153209   4.432   3.748  12.441  0.0956  0.7637  1.0124
10598TIP3    H253210   4.303   3.687  12.392  0.0699 -0.0269  2.0372
10599TIP3   OH253211   2.040   2.323  16.400  0.1053 -0.8730 -0.0206
10599TIP3    H153212   2.003   2.382  16.334 -0.2160 -2.0227 -0.8894
10599TIP3    H253213   1.970   2.260  16.417  0.9989 -1.9538 -0.2945
10600TIP3   OH253214   2.748   2.943  12.041  0.0765  0.2458  0.3993
10600TIP3    H153215   2.656   2.932  12.061 -0.1464  0.1697 -0.6089
10600TIP3    H253216   2.765   3.036  12.055 -0.4734  0.5133 -0.6018
10601TIP3   OH253217   1.620   3.850  13.758 -0.1883  0.5832  0.4410
10601TIP3    H153218   1.710   3.829  13.785  0.1765  0.0726 -1.0541
10601TIP3    H253219   1.586   3.904  13.829  1.2948  0.7890  1.0428
10602TIP3   OH253220   1.286   1.089   1.285  0.3295  0.1789  0.0452
10602TIP3    H153221   1.356   1.028   1.310  0.4838  0.8485  1.3470
10602TIP3    H253222   1.206   1.037   1.288  0.4766 -0.0089  0.9954
10603TIP3   OH253223   2.208   3.038   3.198  0.3480  0.0517  0.1918
10603TIP3    H153224   2.175   3.004   3.115 -1.4966 -0.3408  1.0385
10603TIP3    H253225   2.266   2.970   3.231  0.5695 -0.0842 -0.4727
10604TIP3   OH253226   2.867   2.507   0.413  0.2835  0.3679 -0.9206
10604TIP3    H153227   2.850   2.454   0.335 -0.1536 -0.8695 -0.0052
10604TIP3    H253228   2.842   2.596   0.387 -2.0310 -0.3980 -1.4861
10605TIP3   OH253229   2.564   5.086   1.970  0.3911 -0.2779 -0.1699
10605TIP3    H153230   2.636   5.147   1.986 -0.3661  0.9329 -1.1523
10605TIP3    H253231   2.517   5.123   1.895 -1.0642 -1.1986  0.2363
10606TIP3   OH253232   5.894   2.135  11.870 -0.0863  0.1468  0.6541
10606TIP3    H153233   5.891   2.124  11.775  0.6767 -0.0020  0.6354
10606TIP3    H253234   5.981   2.174  11.886 -0.1904  0.1247  1.2913
10607TIP3   OH253235   3.307   5.068  11.886 -0.3655 -0.6954 -0.3858
10607TIP3    H153236   3.268   5.135  11.942 -1.6336 -2.3104  0.7545
10607TIP3    H253237   3.271   4.986  11.919  0.5039 -1.8812 -2.2581
10608TIP3   OH253238   5.631   2.978   5.604  0.0395 -0.2339  0.0640
10608TIP3    H153239   5.700   3.042   5.614  0.3991 -0.4846 -0.7704
10608TIP3    H253240   5.676   2.893   5.603 -0.3679 -0.4600  0.5019
10609TIP3   OH253241   1.318   2.718  15.410  0.0621 -0.2122  0.8497
10609TIP3    H153242   1.266   2.794  15.438 -1.1305 -0.8158  0.3649
10609TIP3    H253243   1.262   2.643  15.431 -0.1443 -0.7841 -1.5416
10610TIP3   OH253244   0.487   4.687   0.061 -0.6412  0.1576 -0.1631
10610TIP3    H153245   0.416   4.695   0.125 -0.3250  0.6910  0.1250
10610TIP3    H253246   0.509   4.594   0.062  1.1433  0.5026  2.4694
10611TIP3   OH253247   5.671   0.919   0.077  0.2348  0.5272  0.6156
10611TIP3    H153248   5.751   0.867   0.078 -0.0775  0.0402  0.4794
10611TIP3    H253249   5.668   0.957  -0.010  0.2252  0.4028  0.5623
10612TIP3   OH253250   5.975   5.009   1.995 -0.0302 -0.9856  0.5886
10612TIP3    H153251   5.891   5.035   1.957  1.1451  0.5782 -1.1198
10612TIP3    H253252   5.976   5.051   2.081 -0.6685 -0.3251  0.2848
10613TIP3   OH253253   1.248   4.414   5.838 -0.0070 -0.3398 -0.1284
10613TIP3    H153254   1.202   4.446   5.915 -1.5963  1.4405 -1.7131
10613TIP3    H253255   1.316   4.479   5.821  0.5146 -0.8644 -0.0946
10614TIP3   OH253256   4.385   5.649  13.827 -0.0140 -0.2187  0.5019
10614TIP3    H153257   4.306   5.614  13.869 -0.2224  0.9370  1.1247
10614TIP3    H253258   4.354   5.681  13.742 -0.5334  1.4082  1.2526
10615TIP3   OH253259   6.394   2.946   2.537  0.4557  0.4646 -0.2457
10615TIP3    H153260   6.362   3.031   2.567 -0.8692  0.0304 -0.3836
10615TIP3    H253261   6.462   2.922   2.600 -1.0728  0.3589  1.4160
10616TIP3   OH253262   0.053   0.412   2.638  0.2249  0.1732 -0.1024
10616TIP3    H153263   0.037   0.318   2.645  2.7400 -0.4511 -1.6506
10616TIP3    H253264   0.006   0.439   2.558 -2.1372  0.7399  1.3686
10617TIP3   OH253265   6.672   3.341   5.782 -0.1049  0.0338 -0.3925
10617TIP3    H153266   6.577   3.339   5.793 -0.2191 -1.0424 -1.3319
10617TIP3    H253267   6.707   3.303   5.862 -0.5425 -0.8091 -0.5903
10618TIP3   OH253268   0.128   3.994  12.981 -0.1710  0.9963 -0.5509
10618TIP3    H153269   0.173   3.913  12.955 -0.8317  0.3155  0.3828
10618TIP3    H253270   0.145   4.001  13.075 -2.8392  0.1367  0.0939
10619TIP3   OH253271   4.175   1.872   5.547 -0.3465 -0.0632 -0.3302
10619TIP3    H153272   4.259   1.864   5.503  0.1626 -0.2162  0.6346
10619TIP3    H253273   4.156   1.966   5.546 -0.6906 -0.1291 -1.4678
10620TIP3   OH253274   2.719   6.127  11.019 -0.0777 -0.0767 -0.5192
10620TIP3    H153275   2.684   6.039  11.003 -2.8786  0.7256  0.6596
10620TIP3    H253276   2.642   6.182  11.029  1.6019  2.5762 -1.2408
10621TIP3   OH253277   5.146   2.646  12.934 -0.0875  0.3341 -0.0070
10621TIP3    H153278   5.215   2.601  12.885 -0.7053  0.0868 -0.6863
10621TIP3    H253279   5.189   2.681  13.011  0.6685 -0.3434 -0.1093
10622TIP3   OH253280   6.573   1.115  11.739  0.2101 -0.1661 -0.1042
10622TIP3    H153281   6.649   1.075  11.696 -0.6900 -1.2992 -0.6846
10622TIP3    H253282   6.542   1.048  11.800  0.4632  0.7968  1.1272
10623TIP3   OH253283   4.245   1.431   3.729 -0.2644 -0.0030  0.0331
10623TIP3    H153284   4.233   1.514   3.775 -0.0770  1.0471 -1.6958
10623TIP3    H253285   4.336   1.433   3.701 -0.1400 -1.0114  0.3402
10624TIP3   OH253286   6.558   4.416   0.095 -0.6049  0.0865  0.5056
10624TIP3    H153287   6.538   4.433   0.187  0.2246 -0.9934  0.9145
10624TIP3    H253288   6.627   4.350   0.098  0.8740  1.5023 -0.8660
10625TIP3   OH253289   4.684   2.829   6.225  0.2685 -0.2506 -0.1083
10625TIP3    H153290   4.712   2.741   6.199  2.5325  0.6388 -0.9785
10625TIP3    H253291   4.758   2.885   6.201 -0.9375  1.8404  0.8141
10626TIP3   OH253292   3.113   0.992   2.867 -0.3301 -0.8480 -0.4211
10626TIP3    H153293   3.051   1.025   2.802  0.5978  3.4367  0.5686
10626TIP3    H253294   3.196   0.987   2.820 -0.1086  0.0852 -0.1489
10627TIP3   OH253295   5.139   6.268  13.372 -0.2121 -0.3098  0.3722
10627TIP3    H153296   5.125   6.318  13.292 -0.6861 -1.2032 -0.1244
10627TIP3    H253297   5.119   6.329  13.442 -1.1304  0.0994 -0.2228
10628TIP3   OH253298   3.406   1.289  13.131 -0.4659 -0.1019  0.3395
10628TIP3    H153299   3.382   1.368  13.083  0.3847  0.4008  0.6972
10628TIP3    H253300   3.500   1.279  13.115 -0.4725 -0.7813  0.6761
10629TIP3   OH253301   6.453   6.505  15.410 -0.3078  0.0454  0.1750
10629TIP3    H153302   6.407   6.572  15.461  0.6874  1.0303 -0.1647
10629TIP3    H253303   6.475   6.437  15.473 -0.8648  0.2947  0.6481
10630TIP3   OH253304   0.860   2.076   3.309  0.6431  0.5521  0.3938
10630TIP3    H153305   0.770   2.094   3.283  0.6148 -0.6081 -0.4058
10630TIP3    H253306   0.859   1.983   3.333  1.4267  0.7598  1.2731
10631TIP3   OH253307   4.924   2.123   1.930 -0.3356  0.5857  0.0072
10631TIP3    H153308   4.891   2.071   1.857 -1.5880 -0.1029  1.0343
10631TIP3    H253309   4.999   2.073   1.963 -0.2957  0.4660 -0.2592
10632TIP3   OH253310   1.912   5.794   3.012 -0.7530  0.1282  0.2678
10632TIP3    H153311   1.856   5.865   2.980 -0.2951  0.6886  0.6818
10632TIP3    H253312   1.892   5.720   2.955 -0.1609  1.0046 -1.1149
10633TIP3   OH253313   0.239   5.307  16.563  0.1824  0.1485  0.3961
10633TIP3    H153314   0.178   5.353  16.622  0.7922 -0.3575  1.4495
10633TIP3    H253315   0.183   5.268  16.497 -0.5026  0.9506  0.4770
10634TIP3   OH253316   5.243   0.209  15.384  0.1295  0.1524  0.4151
10634TIP3    H153317   5.170   0.271  15.386 -0.3375 -0.4118  1.0724
10634TIP3    H253318   5.233   0.156  15.463 -1.2083 -2.7071 -1.4670
10635TIP3   OH253319   3.464   1.073  12.142 -0.0527 -0.1344 -0.3093
10635TIP3    H153320   3.521   0.996  12.135  2.1765  1.3868 -0.0346
10635TIP3    H253321   3.511   1.133  12.200 -1.0540  1.9704 -1.5496
10636TIP3   OH253322   6.058   3.740  14.696 -0.0047 -0.3198  0.4347
10636TIP3    H153323   6.087   3.743  14.787  0.2775  2.0183  0.3194
10636TIP3    H253324   5.965   3.762  14.701  0.3472  1.3597  0.0691
10637TIP3   OH253325   0.712   2.058   2.220  0.3180 -0.0683 -0.0876
10637TIP3    H153326   0.806   2.050   2.234 -0.0783 -3.1902  1.7346
10637TIP3    H253327   0.673   2.027   2.302 -2.3526  1.8736 -0.4637
10638TIP3   OH253328   4.659   1.285  12.744 -0.3426 -0.1096 -0.5571
10638TIP3    H153329   4.579   1.243  12.712 -1.1096  1.1469 -0.3352
10638TIP3    H253330   4.714   1.212  12.774 -1.4935 -0.9702 -0.4874
10639TIP3   OH253331   0.427   6.072   5.127  0.2380 -0.2167  0.2771
10639TIP3    H153332   0.443   6.084   5.220  0.6422  0.4151  0.1328
10639TIP3    H253333   0.370   5.995   5.122  1.2804 -1.0649  0.9619
10640TIP3   OH253334   4.939   0.504   4.299  0.4142  0.3662  0.1394
10640TIP3    H153335   4.996   0.501   4.376  0.7064 -0.2692 -0.0942
10640TIP3    H253336   4.875   0.435   4.314 -1.2524  2.0478  1.1085
10641TIP3   OH253337   4.312   1.012   4.748 -0.3797  0.1479  0.1591
10641TIP3    H153338   4.220   0.989   4.758 -0.4779  0.3327 -0.2928
10641TIP3    H253339   4.315   1.064   4.668  0.0035  0.8065  0.5905
10642TIP3   OH253340   3.804   0.962  16.027  0.1267  0.6673  0.6327
10642TIP3    H153341   3.793   1.051  15.995 -0.8916  0.1945 -0.4228
10642TIP3    H253342   3.877   0.967  16.089  1.1584  1.9149 -0.6296
10643TIP3   OH253343   6.353   4.052  10.307 -0.1487  1.1473 -0.0943
10643TIP3    H153344   6.277   3.997  10.286  0.5907  0.7754 -1.9593
10643TIP3    H253345   6.423   3.989  10.327 -0.1460  1.4806  0.9892
10644TIP3   OH253346   0.341   1.579  16.864  0.0797  0.1268 -0.5599
10644TIP3    H153347   0.248   1.562  16.876  0.3998 -1.6648 -0.3541
10644TIP3    H253348   0.364   1.532  16.784  1.5670 -2.8617  1.4609
10645TIP3   OH253349   2.336   1.799   4.458  0.5453  0.4689 -0.1368
10645TIP3    H153350   2.329   1.705   4.478  0.2488  0.9833  2.5497
10645TIP3    H253351   2.394   1.803   4.382  1.6334 -1.8143  0.4762
10646TIP3   OH253352   6.137   3.920   5.848  0.1309  0.0438  0.0204
10646TIP3    H153353   6.179   3.839   5.878  0.6442  0.1897 -0.3118
10646TIP3    H253354   6.187   3.990   5.891 -0.7542  0.1752  0.8806
10647TIP3   OH253355   4.748   4.187  14.702 -0.3740 -0.4935 -0.1747
10647TIP3    H153356   4.804   4.136  14.761 -0.4071 -0.4155 -0.0752
10647TIP3    H253357   4.682   4.226  14.759  1.0867  1.6861  0.1465
10648TIP3   OH253358   1.201   0.220  13.831  0.4459  0.1841 -0.1514
10648TIP3    H153359   1.181   0.144  13.777  3.6900 -0.7852 -0.1284
10648TIP3    H253360   1.273   0.264  13.786  0.1225  2.0239  0.9989
10649TIP3   OH253361   0.097   2.736  16.690  1.1124  0.4910  0.0968
10649TIP3    H153362   0.112   2.780  16.606  0.1089  0.5261 -0.0746
10649TIP3    H253363   0.071   2.647  16.666 -0.8500  0.9667  0.2705
10650TIP3   OH253364   4.852   4.311   3.836 -0.1936  0.4384  0.4817
10650TIP3    H153365   4.762   4.279   3.844 -0.3142  0.9658  1.3377
10650TIP3    H253366   4.862   4.329   3.742 -0.4736 -1.0249  0.1473
10651TIP3   OH253367   6.071   6.324   5.232 -0.0977  0.3412 -0.3783
10651TIP3    H153368   6.067   6.233   5.204 -1.6542  0.1294  0.4074
10651TIP3    H253369   6.130   6.323   5.308  1.4277  0.3561 -1.5090
10652TIP3   OH253370   5.586   3.138   2.396 -0.2914  0.2692 -0.2895
10652TIP3    H153371   5.648   3.208   2.378 -1.0018  1.4098  1.5106
10652TIP3    H253372   5.637   3.070   2.439 -0.2175  1.1174  1.0026
10653TIP3   OH253373   2.888   1.212   0.294 -0.1743 -0.4264  0.5468
10653TIP3    H153374   2.915   1.168   0.375  0.2937 -2.0411 -0.4413
10653TIP3    H253375   2.823   1.152   0.255 -1.6945  1.1505  0.5546
10654TIP3   OH253376   1.532   5.417   6.229 -0.0247  0.3332  0.0685
10654TIP3    H153377   1.513   5.344   6.170  1.3166  0.2410 -0.2724
10654TIP3    H253378   1.461   5.479   6.215 -0.5588 -0.3965 -0.4810
10655TIP3   OH253379   4.835   1.115  11.314  0.3938 -0.0592 -0.3924
10655TIP3    H153380   4.900   1.093  11.380 -1.1721 -2.4242  0.5114
10655TIP3    H253381   4.840   1.043  11.251 -0.9863 -0.0201 -0.5712
10656TIP3   OH253382   2.726   3.367   4.959  0.0143 -0.1259  0.3026
10656TIP3    H153383   2.714   3.304   5.030  0.1628  0.1027  0.5267
10656TIP3    H253384   2.800   3.332   4.909 -1.1711 -1.2419 -0.7627
10657TIP3   OH253385   4.374   5.436  13.625 -0.0452  0.4092  0.0934
10657TIP3    H153386   4.310   5.484  13.573  1.7478  0.8598 -1.8205
10657TIP3    H253387   4.445   5.417  13.564  1.5793 -0.2281  2.0812
10658TIP3   OH253388   6.221   1.859  15.881 -0.4540  0.2755 -0.5915
10658TIP3    H153389   6.135   1.885  15.914  0.1396  1.9121 -0.2143
10658TIP3    H253390   6.262   1.942  15.855  1.3567 -0.3465  0.1407
10659TIP3   OH253391   5.443   6.237   2.914  0.0771 -0.1426  0.0805
10659TIP3    H153392   5.382   6.178   2.958  0.4637 -0.7665 -0.2171
10659TIP3    H253393   5.388   6.292   2.858 -0.1551 -1.0840 -0.6196
10660TIP3   OH253394   1.667   5.099   0.267  0.0432 -0.2951 -0.1887
10660TIP3    H153395   1.637   5.176   0.317 -0.4583  0.3326 -1.4243
10660TIP3    H253396   1.610   5.028   0.297  1.2294 -0.4889  1.7773
10661TIP3   OH253397   5.782   1.884   0.927 -0.0122  0.1085  0.5770
10661TIP3    H153398   5.779   1.968   0.880  0.8172  0.1714  0.6168
10661TIP3    H253399   5.855   1.894   0.988  1.0778 -1.1740 -0.4575
10662TIP3   OH253400   6.171   0.269   1.048  0.1131 -0.8145 -0.1328
10662TIP3    H153401   6.179   0.212   0.972  1.0006 -1.2784  0.2897
10662TIP3    H253402   6.216   0.222   1.119  2.0553  0.9267 -0.0827
10663TIP3   OH253403   0.417   3.259   0.885  0.4079  0.0303 -0.1342
10663TIP3    H153404   0.394   3.268   0.792 -2.7312  0.5383  0.6056
10663TIP3    H253405   0.362   3.188   0.917 -0.4875  1.5300  1.8676
10664TIP3   OH253406   1.943   4.344   5.503  0.1722 -0.2362  0.3357
10664TIP3    H153407   1.868   4.383   5.546 -0.9173  0.2324 -1.8697
10664TIP3    H253408   2.006   4.415   5.494 -0.0749 -0.0475  0.1048
10665TIP3   OH253409   4.394   1.661  14.502 -0.5125 -0.1945 -0.8830
10665TIP3    H153410   4.324   1.725  14.483 -1.1036 -0.6387 -0.2151
10665TIP3    H253411   4.473   1.715  14.513 -0.5590  0.2568 -2.4506
10666TIP3   OH253412   6.664   2.401  12.982 -0.7428 -0.2097  0.7359
10666TIP3    H153413   6.661   2.475  12.921  0.4110  2.0316  3.2009
10666TIP3    H253414   6.590   2.414  13.040  0.2399 -0.1726  2.0268
10667TIP3   OH253415   4.653   5.907  12.935  0.0137  0.1991 -0.0476
10667TIP3    H153416   4.676   5.892  12.844 -0.8222  1.1743 -0.4353
10667TIP3    H253417   4.570   5.954  12.932 -0.1712  0.0027  1.2241
10668TIP3   OH253418   5.933   6.618  12.822  0.3063  0.3524  0.0037
10668TIP3    H153419   5.939   6.653  12.911 -0.4992 -0.8367  0.5486
10668TIP3    H253420   5.971   6.531  12.828  4.5282  1.8188 -1.8538
10669TIP3   OH253421   2.751   1.655  15.671 -0.0679  0.5601  0.8730
10669TIP3    H153422   2.660   1.687  15.672 -1.1540 -2.0113 -1.6299
10669TIP3    H253423   2.788   1.689  15.590 -0.1607 -1.5544 -0.1236
10670TIP3   OH253424   3.289   4.581  13.542  0.2287  0.0309 -0.4971
10670TIP3    H153425   3.266   4.674  13.543  1.5225  0.3753 -0.4562
10670TIP3    H253426   3.384   4.580  13.556  0.3345 -1.2648 -1.1730
10671TIP3   OH253427   1.955   5.261   1.587 -0.6632 -0.6691 -0.0003
10671TIP3    H153428   1.962   5.339   1.533 -1.0731  0.3926  1.4024
10671TIP3    H253429   1.980   5.188   1.530 -1.1907  0.3762 -1.6048
10672TIP3   OH253430   4.910   6.426  15.941 -0.0406  0.3202  0.0293
10672TIP3    H153431   4.852   6.500  15.925 -0.8931 -0.0053  1.4371
10672TIP3    H253432   4.938   6.437  16.032  2.2165  0.5242 -0.6264
10673TIP3   OH253433   0.017   3.813   2.621 -0.1440  0.0444 -0.0068
10673TIP3    H153434   0.104   3.852   2.617 -0.5237  1.3044  2.2098
10673TIP3    H253435   0.031   3.725   2.656  0.1777  0.5891  1.2647
10674TIP3   OH253436   4.269   6.685  11.349 -0.4706  0.3577 -0.1927
10674TIP3    H153437   4.179   6.664  11.373 -0.4775  0.5570 -0.0355
10674TIP3    H253438   4.268   6.780  11.335  0.0585  0.6206  1.3582
10675TIP3   OH253439   5.739   4.200  11.201 -0.2506  0.0905  0.2326
10675TIP3    H153440   5.745   4.140  11.276 -0.0926 -1.6381 -1.1047
10675TIP3    H253441   5.762   4.146  11.126 -0.2519  1.8304 -1.0618
10676TIP3   OH253442   2.705   3.353  12.286 -0.4840  0.5207 -0.3939
10676TIP3    H153443   2.687   3.446  12.277 -1.5954  0.5846  1.8417
10676TIP3    H253444   2.783   3.348  12.341 -1.4634  0.1696  1.0221
10677TIP3   OH253445   2.525   1.088   0.406  0.3620 -0.3090  0.0801
10677TIP3    H153446   2.574   1.142   0.468  0.2483  0.7043 -0.6968
10677TIP3    H253447   2.440   1.131   0.399  1.2902  1.3070 -2.9359
10678TIP3   OH253448   5.330   0.883   2.360 -0.0104  0.5283  0.3640
10678TIP3    H153449   5.298   0.794   2.376 -1.4944  0.8465 -0.6095
10678TIP3    H253450   5.251   0.934   2.344  0.8894  1.7953 -0.2224
10679TIP3   OH253451   3.214   3.116  13.374  0.0242  0.1191 -0.1426
10679TIP3    H153452   3.257   3.054  13.433 -2.0418 -1.0579  0.2306
10679TIP3    H253453   3.215   3.199  13.421  0.3874 -0.2805  0.5664
10680TIP3   OH253454   3.286   4.001  14.668  0.2068  0.3899 -0.0176
10680TIP3    H153455   3.222   4.004  14.739  0.5767  3.0459  0.3009
10680TIP3    H253456   3.331   3.917  14.680 -0.2374  0.4234  2.4215
10681TIP3   OH253457   6.001   4.865  12.194  0.6170  0.0054  0.3206
10681TIP3    H153458   6.008   4.906  12.281 -0.0439  0.3920  0.2007
10681TIP3    H253459   5.948   4.786  12.209  0.6877 -0.0453  0.3048
10682TIP3   OH253460   3.483   5.332  12.858  0.8150 -0.1067 -0.5262
10682TIP3    H153461   3.578   5.323  12.854  0.9157  0.9158 -0.8786
10682TIP3    H253462   3.468   5.427  12.852 -0.2389 -0.2773 -0.7678
10683TIP3   OH253463   6.381   4.182  15.430  0.0207  0.2659 -0.0565
10683TIP3    H153464   6.438   4.225  15.495  0.2216 -2.3807  1.6926
10683TIP3    H253465   6.294   4.218  15.447  0.4745  1.3992 -0.0182
10684TIP3   OH253466   3.059   5.286   3.975 -0.4229  0.5655  0.0837
10684TIP3    H153467   2.975   5.290   4.021 -0.6714 -1.8681 -0.0661
10684TIP3    H253468   3.036   5.270   3.884  0.1758 -1.6063  0.2651
10685TIP3   OH253469   0.093   1.459  14.864  0.1054  0.5587  0.0801
10685TIP3    H153470   0.108   1.436  14.773  0.3636  0.1879  0.2139
10685TIP3    H253471   0.083   1.376  14.910  2.1027  0.6249  0.7410
10686TIP3   OH253472   5.392   6.323   5.118 -0.0318  0.4039  0.2326
10686TIP3    H153473   5.424   6.345   5.206  0.1966 -0.9570  0.5234
10686TIP3    H253474   5.323   6.386   5.101 -0.1050  0.6699  1.4171
10687TIP3   OH253475   3.199   2.728   1.200 -0.9158 -0.0753  0.4976
10687TIP3    H153476   3.155   2.647   1.227  1.5504 -0.7463  3.0553
10687TIP3    H253477   3.279   2.698   1.157 -0.3740  0.9994  0.7330
10688TIP3   OH253478   5.696   5.363  13.878 -0.4573 -0.1348 -0.0805
10688TIP3    H153479   5.782   5.357  13.918 -1.0562  1.3635  1.5685
10688TIP3    H253480   5.710   5.418  13.801  0.1316 -0.2509 -0.0596
10689TIP3   OH253481   1.983   6.170   6.595  0.0010  0.2696  0.2653
10689TIP3    H153482   2.069   6.186   6.634 -0.1260  2.1531 -0.1502
10689TIP3    H253483   1.986   6.215   6.511 -1.2723  0.0542  0.0885
10690TIP3   OH253484   4.972   2.121  14.537 -0.3737 -0.3045  0.2061
10690TIP3    H153485   5.011   2.142  14.622  0.0323  2.0254 -0.4831
10690TIP3    H253486   5.047   2.105  14.480 -0.6077 -0.6352 -0.0116
10691TIP3   OH253487   4.737   5.999   3.124  0.2065  0.8888  0.1748
10691TIP3    H153488   4.757   6.006   3.030 -0.4127  1.8535  0.1015
10691TIP3    H253489   4.711   5.907   3.136  0.7736  0.6309 -0.4950
10692TIP3   OH253490   3.497   2.127   0.347  0.0884  0.3387  0.2090
10692TIP3    H153491   3.510   2.175   0.429  1.6414  0.8113 -0.2787
10692TIP3    H253492   3.543   2.044   0.360 -2.1252 -0.8839  0.8445
10693TIP3   OH253493   0.451   0.402  14.717  0.3641 -0.2217  0.4883
10693TIP3    H153494   0.427   0.466  14.650 -0.3271 -0.0672  0.8703
10693TIP3    H253495   0.393   0.422  14.791 -0.1075 -1.4931  0.4993
10694TIP3   OH253496   4.256   3.255  11.916 -0.0326 -0.1233 -0.5158
10694TIP3    H153497   4.233   3.270  12.007 -1.2844  0.1644 -0.8672
10694TIP3    H253498   4.344   3.216  11.920 -0.8170 -1.9023  0.9139
10695TIP3   OH253499   3.808   1.541   1.083  0.2230  0.0088  1.0643
10695TIP3    H153500   3.752   1.576   1.014  1.0271  1.4566  1.1100
10695TIP3    H253501   3.822   1.449   1.058 -1.1931 -0.0577  0.4450
10696TIP3   OH253502   1.592   2.209   2.534  0.3931 -0.9607 -0.4081
10696TIP3    H153503   1.552   2.292   2.562  1.2270 -0.2963 -1.1212
10696TIP3    H253504   1.575   2.148   2.606 -1.7433 -0.6715 -0.6098
10697TIP3   OH253505   0.378   0.356  15.781  0.1632  0.3665  0.7384
10697TIP3    H153506   0.400   0.398  15.864 -0.5479  0.9831  0.6247
10697TIP3    H253507   0.363   0.265  15.804  1.7885  0.1163  0.9782
10698TIP3   OH253508   0.363   0.341   2.093 -0.1863  0.2982  0.6965
10698TIP3    H153509   0.306   0.418   2.087 -0.4111  0.1633  1.1378
10698TIP3    H253510   0.332   0.293   2.169  0.5372  0.2405  0.9631
10699TIP3   OH253511   6.711   4.802   5.064 -0.5504  0.4571  0.3593
10699TIP3    H153512   6.794   4.778   5.105 -0.3247 -0.5638 -0.6431
10699TIP3    H253513   6.645   4.757   5.116 -0.4132  0.5997  0.6604
10700TIP3   OH253514   3.546   4.345  11.918 -0.5438  0.1823 -0.4137
10700TIP3    H153515   3.633   4.386  11.915 -0.1142 -0.7586 -1.9045
10700TIP3    H253516   3.564   4.251  11.914 -1.6338 -0.0159 -0.8390
10701TIP3   OH253517   6.413   5.092  11.868 -0.0882 -0.7345  0.3704
10701TIP3    H153518   6.332   5.114  11.915  0.0686  0.5988  0.0296
10701TIP3    H253519   6.389   5.017  11.813 -1.1789 -0.1549  0.0335
10702TIP3   OH253520   5.730   5.666  12.933 -0.0450  0.4695 -0.0088
10702TIP3    H153521   5.638   5.647  12.913  0.2546 -1.6216  0.3189
10702TIP3    H253522   5.773   5.668  12.847 -0.2386  0.4581 -0.1059
10703TIP3   OH253523   6.443   1.333   0.935 -0.0424  0.0143  0.2461
10703TIP3    H153524   6.435   1.293   1.022 -0.2177 -0.6363 -0.0662
10703TIP3    H253525   6.526   1.299   0.901  0.4721  0.9772  0.5158
10704TIP3   OH253526   1.684   0.814   5.011  0.3152  0.4492 -0.2240
10704TIP3    H153527   1.739   0.816   5.090 -1.6772  2.3344  1.2546
10704TIP3    H253528   1.708   0.893   4.964 -0.0345  0.4601 -0.3816
10705TIP3   OH253529   3.674   2.924  15.928 -0.6595  0.0169 -0.8482
10705TIP3    H153530   3.675   2.901  15.835  0.6611  1.5635 -1.2609
10705TIP3    H253531   3.653   3.017  15.930  0.3124  0.2464  0.3190
10706TIP3   OH253532   4.593   3.495  12.213  0.0174  0.3557 -0.5898
10706TIP3    H153533   4.662   3.524  12.152  1.5081 -0.7226  0.4967
10706TIP3    H253534   4.576   3.571  12.268 -0.7704  1.0922 -1.8112
10707TIP3   OH253535   3.298   1.891   1.365 -0.6173  0.0249  0.0446
10707TIP3    H153536   3.274   1.886   1.457 -0.4463  0.9392  0.1508
10707TIP3    H253537   3.367   1.825   1.354  0.2630  0.7722  0.8794
10708TIP3   OH253538   6.729   0.233   4.508 -0.0202  0.2864 -0.2746
10708TIP3    H153539   6.783   0.236   4.429  0.3367 -1.6180 -0.1533
10708TIP3    H253540   6.655   0.177   4.484 -0.0068 -0.1599  0.6728
10709TIP3   OH253541   4.792   2.505  11.178 -0.1503 -0.2547  0.6245
10709TIP3    H153542   4.885   2.517  11.193  0.3687 -2.7119 -0.0686
10709TIP3    H253543   4.786   2.418  11.137 -2.7409 -0.1846  0.7007
10710TIP3   OH253544   1.203   0.981   3.227  0.1499  0.6077 -0.2054
10710TIP3    H153545   1.219   0.946   3.140  1.0171  0.5026 -0.0096
10710TIP3    H253546   1.241   1.069   3.225 -0.1838  0.7585 -0.0533
10711TIP3   OH253547   6.021   0.865  10.507  0.0685 -0.1057  0.4746
10711TIP3    H153548   6.104   0.872  10.554 -0.1037 -1.0127  0.9368
10711TIP3    H253549   6.037   0.800  10.439 -0.4064 -0.6866  0.9048
10712TIP3   OH253550   5.204   6.357   3.208 -0.5571 -0.1724 -0.9112
10712TIP3    H153551   5.220   6.401   3.291 -1.4653 -0.3453 -0.6385
10712TIP3    H253552   5.281   6.301   3.195 -0.3768 -0.0888 -0.2300
10713TIP3   OH253553   4.930   6.743  16.874 -0.0915 -0.1135  0.5166
10713TIP3    H153554   4.851   6.790  16.901 -0.1152 -0.1139  0.4494
10713TIP3    H253555   4.907   6.650  16.882 -0.2282 -0.1167  0.1356
10714TIP3   OH253556   3.553   4.749  12.486 -0.1947  0.2629  0.3156
10714TIP3    H153557   3.509   4.825  12.524  1.2130 -0.7088  4.5696
10714TIP3    H253558   3.483   4.685  12.472 -0.8149  0.3689  2.4669
10715TIP3   OH253559   5.126   1.757  14.313  0.3458  0.0611  0.3576
10715TIP3    H153560   5.155   1.681  14.263  1.2142  0.3520  0.3858
10715TIP3    H253561   5.040   1.779  14.277  0.3912 -0.5224 -0.1116
10716TIP3   OH253562   2.995   4.878  12.390 -0.5614 -0.7879 -0.0339
10716TIP3    H153563   2.983   4.972  12.401  0.0208 -0.8469  1.4057
10716TIP3    H253564   2.956   4.840  12.469 -0.2179 -1.6985 -0.2954
10717TIP3   OH253565   0.883   0.206  11.024  0.0020  0.2673 -0.0702
10717TIP3    H153566   0.923   0.170  11.103  0.5894  2.6186  0.7922
10717TIP3    H253567   0.957   0.244  10.975 -0.6333  0.9221 -0.5505
10718TIP3   OH253568   3.611   3.465  12.176 -0.8882  0.0303 -0.2929
10718TIP3    H153569   3.587   3.419  12.257  0.2695 -1.2442 -0.6442
10718TIP3    H253570   3.684   3.415  12.141 -1.9131  0.0482 -2.6007
10719TIP3   OH253571   2.709   5.544  15.610 -0.1182  0.3963 -0.4343
10719TIP3    H153572   2.767   5.493  15.666  0.8600  1.4602 -0.4402
10719TIP3    H253573   2.698   5.491  15.531  0.5712  0.0227 -0.2840
10720TIP3   OH253574   6.361   0.661  14.051 -0.4537  0.3122 -0.5052
10720TIP3    H153575   6.440   0.631  14.007 -0.9455  0.3511 -1.4425
10720TIP3    H253576   6.316   0.581  14.078 -1.0658  0.2199 -1.7436
10721TIP3   OH253577   4.014   0.053  13.184  0.2827  0.0970 -0.1765
10721TIP3    H153578   4.037   0.146  13.180 -0.4444  0.2329 -2.8067
10721TIP3    H253579   4.097   0.007  13.186  0.6888  0.7580 -1.3447
10722TIP3   OH253580   3.884   1.583   5.537 -0.1783 -0.8768  0.2824
10722TIP3    H153581   3.892   1.488   5.529 -0.1728 -0.9956  1.5052
10722TIP3    H253582   3.792   1.598   5.558 -0.4853 -0.4861 -1.1799
10723TIP3   OH253583   6.089   4.480   0.787 -0.3939  0.3350  0.2776
10723TIP3    H153584   6.065   4.567   0.820 -1.2220  0.8147 -1.4992
10723TIP3    H253585   6.170   4.493   0.739 -0.7239  0.1959 -0.3203
10724TIP3   OH253586   0.013   1.649  11.121 -0.5042  0.0310  0.5665
10724TIP3    H153587   0.051   1.703  11.052 -0.1035 -2.1254 -1.0190
10724TIP3    H253588  -0.014   1.711  11.188  1.5912  2.0340 -0.2901
10725TIP3   OH253589   5.599   3.309   4.841  0.0276  0.1766  0.1717
10725TIP3    H153590   5.646   3.265   4.912  0.7895  1.4007  0.4583
10725TIP3    H253591   5.629   3.264   4.761 -2.2426 -2.4608  0.6703
10726TIP3   OH253592   5.488   3.732  15.853  0.5639  0.2356  0.3422
10726TIP3    H153593   5.466   3.719  15.945  1.9676  0.5427  0.7510
10726TIP3    H253594   5.406   3.717  15.806  0.0660 -1.0261  1.5389
10727TIP3   OH253595   4.574   2.120  13.845  0.5081  0.6364 -0.4992
10727TIP3    H153596   4.495   2.156  13.804  0.0756 -1.7058 -1.9374
10727TIP3    H253597   4.624   2.083  13.772  0.7874 -1.7593  0.8033
10728TIP3   OH253598   2.368   3.224   1.342  0.0328 -0.3260  0.6980
10728TIP3    H153599   2.427   3.215   1.416  1.6801  0.8933 -0.3961
10728TIP3    H253600   2.395   3.155   1.281 -0.2249 -0.2885  0.5376
10729TIP3   OH253601   1.308   5.756   2.869 -0.4306 -0.0501  0.3236
10729TIP3    H153602   1.354   5.698   2.809 -0.2832 -0.5159  0.8724
10729TIP3    H253603   1.218   5.758   2.837 -0.3295 -0.2136  0.0291
10730TIP3   OH253604   6.272   2.080  16.733  0.1512 -0.1520  0.2994
10730TIP3    H153605   6.294   2.105  16.643  0.4179 -0.5445  0.2545
10730TIP3    H253606   6.355   2.050  16.770  0.2505  0.8819  0.9785
10731TIP3   OH253607   0.343   2.764  16.827 -0.6474  0.1106  0.6075
10731TIP3    H153608   0.262   2.749  16.778 -0.1448  0.1092 -0.2335
10731TIP3    H253609   0.393   2.825  16.774 -0.8856  1.6175  2.0231
10732TIP3   OH253610   2.248   2.289  15.624 -0.2336  0.0031 -0.4867
10732TIP3    H153611   2.188   2.303  15.551 -0.0902 -1.7839 -0.9923
10732TIP3    H253612   2.332   2.322  15.592  0.2416 -2.3187 -1.8802
10733TIP3   OH253613   3.168   1.709   0.295 -0.1033 -0.4654 -0.3428
10733TIP3    H153614   3.090   1.715   0.239 -1.3073 -2.0313  1.0670
10733TIP3    H253615   3.174   1.795   0.337 -1.3187 -0.4300 -0.1912
10734TIP3   OH253616   4.318   4.300   6.084 -0.2942  0.5421 -0.1683
10734TIP3    H153617   4.412   4.287   6.069 -0.3878 -0.4100  0.0151
10734TIP3    H253618   4.306   4.395   6.078  0.4504  0.5857 -1.5391
10735TIP3   OH253619   3.856   0.315  14.607  0.5073  0.1283 -0.2900
10735TIP3    H153620   3.766   0.284  14.597  0.0147  1.4338 -0.0067
10735TIP3    H253621   3.905   0.269  14.538 -0.0828 -1.6141  0.3923
10736TIP3   OH253622   2.065   0.347   0.782  0.6284  0.1927  0.1880
10736TIP3    H153623   2.115   0.280   0.735  1.7069 -0.3963  2.0574
10736TIP3    H253624   2.106   0.430   0.759  0.5956  0.0026 -0.5608
10737TIP3   OH253625   4.472   1.813  14.841  0.0921  0.6002  0.7227
10737TIP3    H153626   4.532   1.844  14.775 -2.3400  1.6274 -1.1704
10737TIP3    H253627   4.466   1.884  14.904  0.0304  0.9524  0.3215
10738TIP3   OH253628   0.299   3.904   3.394 -0.2621 -0.2719 -0.3979
10738TIP3    H153629   0.331   3.926   3.482 -2.2954  0.1154  0.2944
10738TIP3    H253630   0.374   3.862   3.351  0.9472  0.0319  1.3195
10739TIP3   OH253631   2.564   4.612  16.431 -0.1787 -0.5427  0.2665
10739TIP3    H153632   2.593   4.702  16.420 -2.7425  0.1838 -1.6795
10739TIP3    H253633   2.494   4.618  16.496 -0.0703 -1.2200  0.4478
10740TIP3   OH253634   2.681   2.126  10.943 -0.5142 -0.4741  0.5747
10740TIP3    H153635   2.696   2.061  11.012  2.2188 -2.6283 -1.7863
10740TIP3    H253636   2.654   2.076  10.867  1.6784  1.0579 -1.3651
10741TIP3   OH253637   5.570   5.040  15.037  0.7145  0.1879 -0.4206
10741TIP3    H153638   5.561   5.066  15.129  2.0630  0.6153 -0.3892
10741TIP3    H253639   5.481   5.018  15.010  0.1995  0.6459  0.8110
10742TIP3   OH253640   0.722   2.832  13.169  0.1351  0.1060  0.3788
10742TIP3    H153641   0.761   2.911  13.206 -0.4396  0.5162  0.1348
10742TIP3    H253642   0.630   2.836  13.196  0.3050 -0.9601  1.1419
10743TIP3   OH253643   2.538   6.182   2.306  0.4411  0.0690 -0.1109
10743TIP3    H153644   2.581   6.117   2.250 -0.3533 -0.9316  0.3923
10743TIP3    H253645   2.584   6.264   2.288 -0.1338 -0.0734 -2.6404
10744TIP3   OH253646   4.773   3.862  12.145  0.5178 -0.1496 -0.1851
10744TIP3    H153647   4.766   3.914  12.065  0.0223  1.1317  0.6646
10744TIP3    H253648   4.761   3.771  12.116 -0.8911  0.3857 -1.3966
10745TIP3   OH253649   3.561   6.134  15.090  0.2118  0.6994  0.0491
10745TIP3    H153650   3.569   6.222  15.053  0.3470  1.1523  1.1012
10745TIP3    H253651   3.644   6.120  15.136  1.3790 -1.1258 -2.3596
10746TIP3   OH253652   4.203   2.549  14.957  0.5075 -0.5296 -0.1687
10746TIP3    H153653   4.217   2.565  14.863  1.6437 -0.1540  0.0507
10746TIP3    H253654   4.129   2.605  14.980  1.2354  0.6039 -0.5093
10747TIP3   OH253655   0.289   1.948  16.782  0.1647 -0.2831  0.5717
10747TIP3    H153656   0.311   1.876  16.842 -0.9011  0.1143  1.4721
10747TIP3    H253657   0.371   1.995  16.769  0.4305 -0.4182  1.6784
10748TIP3   OH253658   1.854   2.737   1.496 -0.3167  0.2015  0.1064
10748TIP3    H153659   1.876   2.826   1.468  0.9848  0.8066  2.7979
10748TIP3    H253660   1.827   2.747   1.587 -0.2295 -2.1694  0.4343
10749TIP3   OH253661   3.414   2.471  11.484  0.9814 -0.2984 -0.1678
10749TIP3    H153662   3.424   2.499  11.393  0.6749  1.7383  0.3910
10749TIP3    H253663   3.490   2.508  11.529  0.7660 -0.7208  0.5566
10750TIP3   OH253664   4.360   3.779   5.250  0.2881  0.5735 -0.3580
10750TIP3    H153665   4.336   3.830   5.327 -0.7489  2.2453 -1.7048
10750TIP3    H253666   4.453   3.760   5.262  0.8584  3.2006  0.0591
10751TIP3   OH253667   6.119   6.336  12.882 -0.6808 -0.1195 -0.3794
10751TIP3    H153668   6.189   6.401  12.877  2.2401 -2.8076  1.3503
10751TIP3    H253669   6.127   6.299  12.970 -2.3192 -2.6054 -1.1626
10752TIP3   OH253670   6.651   5.292   1.063 -0.1532  0.6779  0.2835
10752TIP3    H153671   6.741   5.317   1.041  0.1143 -0.0487  0.5247
10752TIP3    H253672   6.657   5.200   1.088 -0.8346  0.8281  1.0600
10753TIP3   OH253673   3.448   0.645  16.646 -0.1706 -0.1720 -0.0391
10753TIP3    H153674   3.482   0.557  16.659  0.2129  0.0299  0.3385
10753TIP3    H253675   3.497   0.699  16.708  0.3297  0.4851 -0.9897
10754TIP3   OH253676   2.027   4.062  11.280 -0.1655  0.2128 -0.2885
10754TIP3    H153677   2.001   4.148  11.313  0.9529 -0.1842  1.8415
10754TIP3    H253678   2.079   4.024  11.351  2.2801 -0.8671 -2.4841
10755TIP3   OH253679   6.770   4.030  11.746 -1.0527  0.2443 -0.2100
10755TIP3    H153680   6.861   4.053  11.761 -1.1239 -0.1266  0.9107
10755TIP3    H253681   6.764   4.016  11.652  0.0122  0.3993 -0.3140
10756TIP3   OH253682   5.346   0.667  12.785 -0.2453  0.0078 -0.3963
10756TIP3    H153683   5.368   0.755  12.753 -2.7120  1.7720  2.2886
10756TIP3    H253684   5.305   0.625  12.710 -0.5088  1.7908 -1.3236
10757TIP3   OH253685   0.019   2.652   3.072 -0.3873 -0.1918 -0.1227
10757TIP3    H153686   0.079   2.606   3.130 -1.1892 -1.0817  0.0291
10757TIP3    H253687  -0.061   2.601   3.075 -1.3145  1.2128  0.0177
10758TIP3   OH253688   6.539   6.542   4.656  0.0901 -0.6263  0.1836
10758TIP3    H153689   6.479   6.617   4.658  0.3229 -0.4460  1.0916
10758TIP3    H253690   6.521   6.499   4.573 -0.6179 -0.0229  0.0098
10759TIP3   OH253691   4.454   1.480   4.416 -0.2098  0.0485  0.6562
10759TIP3    H153692   4.500   1.538   4.477  1.6215 -0.2860 -0.3544
10759TIP3    H253693   4.500   1.491   4.333 -0.1415 -2.4710  0.3085
10760TIP3   OH253694   0.028   2.084   4.060  0.5226  0.5013  0.1575
10760TIP3    H153695  -0.021   2.076   3.978  0.6796  0.5813  0.0542
10760TIP3    H253696   0.115   2.049   4.039  0.0750 -1.0225  0.7380
10761TIP3   OH253697   1.503   0.846   3.126  0.2902  0.4401  0.5949
10761TIP3    H153698   1.442   0.873   3.057  0.5762 -0.8052 -0.1829
10761TIP3    H253699   1.587   0.838   3.081  0.5674  0.0336  1.1739
10762TIP3   OH253700   5.895   5.834  13.582  0.2724  0.0673  0.0657
10762TIP3    H153701   5.884   5.887  13.661  0.6280  1.2577 -0.6485
10762TIP3    H253702   5.968   5.776  13.602 -0.1146 -0.1506  0.8710
10763TIP3   OH253703   2.735   3.926   6.707  0.0631 -0.3312 -0.3011
10763TIP3    H153704   2.659   3.887   6.749  0.7925  0.1518  1.5875
10763TIP3    H253705   2.776   3.854   6.660 -0.3949 -1.0961  0.4424
10764TIP3   OH253706   3.665   5.028  16.841  0.2047 -0.5457  0.3381
10764TIP3    H153707   3.645   4.944  16.802  0.6786 -1.0950  1.2360
10764TIP3    H253708   3.610   5.033  16.919 -0.2553  0.2435 -0.0218
10765TIP3   OH253709   6.505   1.356   1.665 -0.4502 -0.2300  1.0419
10765TIP3    H153710   6.599   1.344   1.672 -0.2406  0.4041 -0.3820
10765TIP3    H253711   6.467   1.273   1.696  0.5277 -0.2961  2.1375
10766TIP3   OH253712   6.400   1.461   3.906 -0.1517  0.3223  0.1955
10766TIP3    H153713   6.466   1.516   3.864  0.4367  0.2694  1.0354
10766TIP3    H253714   6.417   1.470   4.000 -1.4242  0.4170  0.4354
10767TIP3   OH253715   2.956   4.450  13.878 -0.0604 -0.4226  0.1616
10767TIP3    H153716   2.965   4.360  13.907 -0.3710 -0.7344 -0.7062
10767TIP3    H253717   2.894   4.489  13.940 -0.7638 -1.1006 -0.1134
10768TIP3   OH253718   2.448   4.115  13.695  0.0339  0.3160  0.7311
10768TIP3    H153719   2.449   4.123  13.790  2.7141 -0.3776  0.8513
10768TIP3    H253720   2.509   4.184  13.665 -0.1376 -0.0064 -0.4191
10769TIP3   OH253721   0.700   3.115  11.262  0.2535 -0.3428 -0.2851
10769TIP3    H153722   0.715   3.090  11.353  0.1782  0.1257 -0.1424
10769TIP3    H253723   0.786   3.138  11.228 -0.1172  3.4664  0.8634
10770TIP3   OH253724   0.338   6.417  12.553  0.4695  0.3130  0.2858
10770TIP3    H153725   0.275   6.487  12.535  0.6847  0.4155 -0.0872
10770TIP3    H253726   0.326   6.354  12.483 -0.9002 -0.8859  1.5353
10771TIP3   OH253727   4.585   5.569   5.169 -0.4785  0.2920  0.0384
10771TIP3    H153728   4.591   5.660   5.139  0.5642  0.6111  1.1620
10771TIP3    H253729   4.673   5.534   5.158 -0.5136 -0.1268  1.0220
10772TIP3   OH253730   6.178   4.659  16.467 -0.3852  0.8671 -0.3993
10772TIP3    H153731   6.204   4.573  16.436 -0.0471  0.2583  1.4343
10772TIP3    H253732   6.087   4.669  16.439 -0.7594 -0.5427  0.2352
10773TIP3   OH253733   5.386   2.396  13.107  0.3692  0.4232 -0.0159
10773TIP3    H153734   5.326   2.366  13.038  1.0600  0.6893 -0.7440
10773TIP3    H253735   5.402   2.318  13.160 -1.6049  0.6277  0.9543
10774TIP3   OH253736   0.867   6.670  15.911  0.2036 -0.1516 -1.1267
10774TIP3    H153737   0.773   6.676  15.891 -0.1328 -0.1739  0.2733
10774TIP3    H253738   0.893   6.759  15.933  0.9819  0.1928 -3.2834
10775TIP3   OH253739   1.647   2.572  14.422  0.3935 -0.3437 -0.1079
10775TIP3    H153740   1.615   2.565  14.512  0.2580 -1.8824 -0.2568
10775TIP3    H253741   1.732   2.616  14.430 -0.0442  0.3978  0.6557
10776TIP3   OH253742   0.779   3.557  14.720 -0.4096  0.6001  0.0232
10776TIP3    H153743   0.826   3.541  14.802 -2.2465 -0.7434  0.8967
10776TIP3    H253744   0.832   3.515  14.653 -0.1258 -0.4982  0.9112
10777TIP3   OH253745   5.201   2.905  12.843  0.3605 -0.1726 -0.1153
10777TIP3    H153746   5.294   2.907  12.821  0.5471  0.4628  0.6862
10777TIP3    H253747   5.173   2.816  12.820  0.7431  0.1525 -1.9854
10778TIP3   OH253748   2.279   4.185   0.965  0.0414  0.4869 -0.2938
10778TIP3    H153749   2.189   4.154   0.960 -0.2031  0.7737  1.5215
10778TIP3    H253750   2.272   4.281   0.967  0.5230  0.5750 -1.9181
10779TIP3   OH253751   3.030   6.355   4.195  0.2989  0.3836  0.1059
10779TIP3    H153752   3.112   6.308   4.177  0.6753  0.5008  1.4185
10779TIP3    H253753   3.043   6.442   4.158  0.6492  0.3130  0.0616
10780TIP3   OH253754   3.719   0.723  11.201  0.4848 -0.1639 -0.2839
10780TIP3    H153755   3.627   0.703  11.217  0.2657  0.7549 -0.3174
10780TIP3    H253756   3.735   0.691  11.112 -0.8582  2.8899 -1.7788
10781TIP3   OH253757   6.614   4.523  14.443  0.3466  0.1469  0.0163
10781TIP3    H153758   6.703   4.491  14.455 -0.2065 -0.6559  2.6149
10781TIP3    H253759   6.565   4.448  14.410  0.2476  0.0460  0.3938
10782TIP3   OH253760   0.418   3.671  15.906  0.0571  0.4739  0.4321
10782TIP3    H153761   0.374   3.706  15.828  0.5787  1.2169  0.4730
10782TIP3    H253762   0.509   3.660  15.879  0.0349 -0.2524  0.6224
10783TIP3   OH253763   4.564   1.509   1.101 -0.8867  0.0163  0.4048
10783TIP3    H153764   4.474   1.506   1.133 -0.9622 -0.0952  0.1827
10783TIP3    H253765   4.561   1.572   1.028 -0.5985  0.7156  0.9823
10784TIP3   OH253766   6.156   6.196   6.458 -0.0911 -0.0008  0.1545
10784TIP3    H153767   6.239   6.167   6.497 -1.3252  0.0707  3.0538
10784TIP3    H253768   6.168   6.290   6.444  0.7192 -0.2038 -0.5941
10785TIP3   OH253769   2.007   5.790  10.141  0.1249  0.0562  0.5369
10785TIP3    H153770   2.100   5.790  10.116 -0.2513  1.6537 -1.0030
10785TIP3    H253771   1.990   5.879  10.169 -1.4671  0.4197 -1.3895
10786TIP3   OH253772   1.001   5.284  16.016  0.3451  0.0611  0.3812
10786TIP3    H153773   0.983   5.377  16.034  1.9219  0.2822  0.9338
10786TIP3    H253774   0.986   5.275  15.922  0.2785  0.8960  0.2995
10787TIP3   OH253775   0.320   2.915  11.161  1.1108  0.2047  0.6672
10787TIP3    H153776   0.340   3.008  11.163  0.5913  0.3909 -1.0226
10787TIP3    H253777   0.380   2.876  11.225  3.1090  1.3951 -0.3805
10788TIP3   OH253778   0.415   3.515   2.234 -0.9128  0.3930  0.5536
10788TIP3    H153779   0.495   3.507   2.286 -0.3959 -1.0550 -0.3898
10788TIP3    H253780   0.441   3.573   2.161 -0.9333  0.5038  0.6347
10789TIP3   OH253781   0.016   2.091   1.933  0.4282 -0.5244  0.0032
10789TIP3    H153782   0.106   2.103   1.904  0.3634  1.0896  0.3784
10789TIP3    H253783   0.014   2.001   1.968  2.1522 -0.2525  0.9039
10790TIP3   OH253784   5.466   0.470  15.035  0.3716  0.2007 -0.1067
10790TIP3    H153785   5.477   0.377  15.054 -0.1388 -0.3526 -2.2137
10790TIP3    H253786   5.373   0.487  15.054  0.5492  0.3891  0.6244
10791TIP3   OH253787   6.638   0.642  10.458 -0.6410  0.1810  0.4788
10791TIP3    H153788   6.617   0.621  10.549  1.6101 -0.9192  0.8203
10791TIP3    H253789   6.717   0.695  10.463 -0.5907  0.2711 -0.8325
10792TIP3   OH253790   1.002   3.746   6.546  0.8529 -0.1374  0.0305
10792TIP3    H153791   1.085   3.702   6.532  1.2611  0.5413  0.2947
10792TIP3    H253792   1.007   3.825   6.493 -0.7728 -1.4419 -2.2948
10793TIP3   OH253793   3.455   4.490  11.684  0.3253  0.3707 -0.4627
10793TIP3    H153794   3.511   4.433  11.736  0.7835  1.2582  0.0579
10793TIP3    H253795   3.392   4.432  11.642  0.0074 -0.3949  1.0077
10794TIP3   OH253796   1.003   3.348  16.772 -0.4383  0.4723  0.2968
10794TIP3    H153797   1.035   3.377  16.857  0.2118 -0.3038  0.3252
10794TIP3    H253798   1.037   3.413  16.710  1.7109 -0.6100  0.2474
10795TIP3   OH253799   3.575   4.958  16.516  0.0947  0.2544 -0.2468
10795TIP3    H153800   3.602   4.906  16.592 -0.6238  0.5263  0.2005
10795TIP3    H253801   3.494   4.918  16.486 -0.3822  1.0141  0.0024
10796TIP3   OH253802   2.470   4.367   5.098 -0.0230 -0.9527 -0.1778
10796TIP3    H153803   2.448   4.418   5.176  2.3397  0.4496 -0.3182
10796TIP3    H253804   2.401   4.387   5.035 -0.7971 -0.3760  0.8342
10797TIP3   OH253805   1.614   0.883   1.743  0.5917  0.1521  0.7354
10797TIP3    H153806   1.639   0.932   1.821 -0.6692  1.0523  0.5915
10797TIP3    H253807   1.581   0.799   1.776  0.4443  0.3697  1.1305
10798TIP3   OH253808   0.698   2.352  11.909 -0.2488 -0.1976 -0.3107
10798TIP3    H153809   0.734   2.263  11.901 -0.6243 -0.5211  1.2600
10798TIP3    H253810   0.682   2.379  11.819  0.5130 -1.4549 -0.8625
10799TIP3   OH253811   1.989   2.344   0.349 -0.5652 -0.1847  0.0074
10799TIP3    H153812   2.080   2.357   0.374  0.1590  0.2020 -2.6142
10799TIP3    H253813   1.949   2.431   0.354 -0.3499 -0.0586 -0.4763
10800TIP3   OH253814   2.366   2.035  11.090 -0.1330 -0.3236  0.2501
10800TIP3    H153815   2.387   2.128  11.091  0.8274 -0.5196 -0.2996
10800TIP3    H253816   2.374   2.006  11.181 -0.9092  0.2191  0.5011
10801TIP3   OH253817   6.461   4.197  13.218 -0.5247 -0.5088  0.3998
10801TIP3    H153818   6.552   4.194  13.247 -0.2204 -0.7845 -0.5413
10801TIP3    H253819   6.430   4.283  13.245  0.0261 -0.3933  0.6784
10802TIP3   OH253820   1.689   3.109   5.183  0.1224  0.6467  0.8173
10802TIP3    H153821   1.777   3.132   5.214 -0.4579  2.2107  1.4634
10802TIP3    H253822   1.643   3.080   5.262 -0.3008  1.0729  0.7324
10803TIP3   OH253823   6.048   0.057   5.861  0.8419  0.1298 -0.2778
10803TIP3    H153824   6.111   0.029   5.795  1.8770  0.5187  0.5147
10803TIP3    H253825   6.101   0.074   5.939 -0.5745 -2.5067  1.3986
10804TIP3   OH253826   0.657   0.761  10.726 -0.2068  0.8375  0.4509
10804TIP3    H153827   0.615   0.744  10.642  1.1589 -0.3587 -0.0293
10804TIP3    H253828   0.733   0.815  10.704  1.0313 -0.7443  0.6677
10805TIP3   OH253829   5.616   1.533  15.604  0.5684 -0.0782  0.0838
10805TIP3    H153830   5.528   1.499  15.588  0.8546 -0.8185  0.0190
10805TIP3    H253831   5.667   1.503  15.528  0.5751  1.5070 -0.5723
10806TIP3   OH253832   3.984   3.737  16.059 -0.3034  0.6028  0.4162
10806TIP3    H153833   3.996   3.786  15.977  4.1120  0.0978  0.4904
10806TIP3    H253834   3.987   3.645  16.032  4.3409  0.3100  1.0842
10807TIP3   OH253835   5.179   6.125  15.958  0.0875 -0.2403 -0.3767
10807TIP3    H153836   5.241   6.169  16.017 -0.2831 -0.1312 -0.0681
10807TIP3    H253837   5.219   6.040  15.940 -0.2655 -0.6808  0.8322
10808TIP3   OH253838   1.101   1.672   3.133  0.1059  0.0977 -0.1279
10808TIP3    H153839   1.132   1.742   3.191  0.0206 -0.9435  1.2177
10808TIP3    H253840   1.006   1.681   3.133  0.1709  1.0867 -1.4254
10809TIP3   OH253841   0.494   2.875   2.877  0.6784 -0.2946  0.0784
10809TIP3    H153842   0.411   2.838   2.907  0.9300 -0.7230  0.2756
10809TIP3    H253843   0.537   2.904   2.958  0.6874 -0.0047 -0.0307
10810TIP3   OH253844   6.125   2.560  16.933 -0.4004  1.0926  0.1092
10810TIP3    H153845   6.216   2.576  16.959  0.0299  0.8644 -1.2031
10810TIP3    H253846   6.095   2.644  16.897 -1.1524  1.5511  1.6898
10811TIP3   OH253847   2.526   6.747  12.968 -0.2089 -0.3799  0.0689
10811TIP3    H153848   2.434   6.723  12.954 -0.7634  0.5914  1.7564
10811TIP3    H253849   2.551   6.701  13.048  0.4065  0.2720  0.2652
10812TIP3   OH253850   3.737   2.189  13.683 -0.4035  0.7288 -0.2540
10812TIP3    H153851   3.817   2.140  13.664 -1.1200  0.2887 -2.3448
10812TIP3    H253852   3.767   2.280  13.695  0.5262  0.3829  0.1339
10813TIP3   OH253853   5.912   2.244   0.266 -0.2772 -0.2107  0.1530
10813TIP3    H153854   5.989   2.204   0.306 -0.3189  0.9913  1.5044
10813TIP3    H253855   5.946   2.319   0.218 -0.4342 -0.6423 -0.6535
10814TIP3   OH253856   4.301   5.702  15.529 -0.0271 -0.2402 -0.0523
10814TIP3    H153857   4.392   5.678  15.511 -0.0670 -0.2781 -0.2057
10814TIP3    H253858   4.300   5.726  15.622  0.2286  0.1919 -0.1612
10815TIP3   OH253859   3.307   6.604   4.358  0.1071  0.0354  0.1896
10815TIP3    H153860   3.268   6.653   4.285  0.1852  0.0347  0.1466
10815TIP3    H253861   3.361   6.537   4.316 -1.2253 -1.1117  0.2326
10816TIP3   OH253862   2.357   1.271  11.799  0.3134  0.3343  0.2029
10816TIP3    H153863   2.419   1.226  11.857 -0.3171 -1.7381 -0.6441
10816TIP3    H253864   2.374   1.364  11.813  0.8034 -0.0911  3.0435
10817TIP3   OH253865   2.057   6.471   5.615  0.1131  0.7927 -0.4322
10817TIP3    H153866   2.136   6.419   5.596 -0.4526  0.2154 -1.2778
10817TIP3    H253867   2.044   6.460   5.709  0.8866  0.6665 -0.3288
10818TIP3   OH253868   4.932   5.650   3.827 -0.0656 -0.9539  0.1797
10818TIP3    H153869   4.875   5.608   3.892 -0.6888 -0.8772 -0.3141
10818TIP3    H253870   4.906   5.742   3.829 -0.3409 -1.0183 -0.4482
10819TIP3   OH253871   4.334   0.073   2.514  0.2072  0.4269  0.9151
10819TIP3    H153872   4.272   0.121   2.570  0.4704  0.7650  0.9224
10819TIP3    H253873   4.364   0.000   2.569 -0.7892 -0.2179  0.6318
10820TIP3   OH253874   0.403   3.875   1.172  0.9646  0.4788  0.2095
10820TIP3    H153875   0.385   3.787   1.207  1.9864 -0.5601 -1.7579
10820TIP3    H253876   0.457   3.917   1.240 -0.5595  0.0978  1.7351
10821TIP3   OH253877   1.630   0.669   0.725 -0.1220 -0.4164  0.0490
10821TIP3    H153878   1.718   0.673   0.762 -1.0887  0.4829  2.4263
10821TIP3    H253879   1.597   0.583   0.751 -0.7055  0.1106  1.1167
10822TIP3   OH253880   6.764   6.113   1.175 -0.2517  0.7614  1.0227
10822TIP3    H153881   6.726   6.117   1.087 -0.6647  1.6196  1.2301
10822TIP3    H253882   6.754   6.021   1.201  2.9017 -0.3687 -1.1275
10823TIP3   OH253883   0.569   4.958  14.368 -0.5521 -0.6065  0.7727
10823TIP3    H153884   0.651   4.911  14.383 -0.6321 -1.3965 -0.9976
10823TIP3    H253885   0.521   4.903  14.306 -1.6472  0.7133  0.4004
10824TIP3   OH253886   1.605   0.021  16.433  0.6126  0.1380 -0.1672
10824TIP3    H153887   1.584   0.004  16.525 -0.6375 -0.3341 -0.5182
10824TIP3    H253888   1.677  -0.040  16.414 -0.7110 -1.5048 -0.1240
10825TIP3   OH253889   5.904   3.357   1.113  1.4778 -0.9082  0.0924
10825TIP3    H153890   5.849   3.279   1.102  0.8937 -0.6622  1.1639
10825TIP3    H253891   5.847   3.421   1.157  1.9938  0.0826 -0.6334
10826TIP3   OH253892   4.841   4.560  14.755 -0.1056 -0.1603 -0.1928
10826TIP3    H153893   4.891   4.546  14.675  0.2488 -2.4167  0.3525
10826TIP3    H253894   4.893   4.519  14.824  0.0199  2.4987  1.4001
10827TIP3   OH253895   3.942   1.242  11.153 -0.2279 -0.1290  0.4835
10827TIP3    H153896   3.933   1.295  11.074 -0.2580 -0.0678  0.5281
10827TIP3    H253897   3.931   1.152  11.123 -0.9394 -0.0578  0.5361
10828TIP3   OH253898   0.306   0.244  11.095 -0.4342  0.2286 -0.4750
10828TIP3    H153899   0.376   0.209  11.150  0.1495  0.1697 -1.2346
10828TIP3    H253900   0.352   0.294  11.027 -1.2319  3.4168  1.1286
10829TIP3   OH253901   5.464   3.490   2.024 -0.6758  0.4868  0.5322
10829TIP3    H153902   5.500   3.555   2.084 -1.4282  0.6114  0.8608
10829TIP3    H253903   5.429   3.421   2.081 -0.0580 -0.1177  0.1947
10830TIP3   OH253904   2.622   5.992   5.584  0.1708 -0.3714  0.2943
10830TIP3    H153905   2.585   6.054   5.521 -1.3616 -1.3050  0.2341
10830TIP3    H253906   2.579   5.908   5.564  2.0135 -1.4241  0.5152
10831TIP3   OH253907   3.124   0.643  11.559  0.6037  0.1453 -0.9986
10831TIP3    H153908   3.129   0.550  11.584 -0.0237  0.1553 -0.8288
10831TIP3    H253909   3.197   0.684  11.605  0.6159 -0.1828 -0.7237
10832TIP3   OH253910   6.621   4.811  12.196 -0.5986  0.0363  0.1350
10832TIP3    H153911   6.661   4.854  12.120  1.6786  0.0232  1.2181
10832TIP3    H253912   6.645   4.867  12.270 -0.8350 -1.0971  1.1070
10833TIP3   OH253913   1.279   1.487  16.349  0.2205 -0.1850  0.1223
10833TIP3    H153914   1.328   1.517  16.426 -0.6164  0.0062  0.5979
10833TIP3    H253915   1.230   1.411  16.380 -0.4818  0.1718 -0.0751
10834TIP3   OH253916   3.126   3.719   3.888  0.1511 -0.2560 -0.1477
10834TIP3    H153917   3.146   3.660   3.815 -1.4702 -0.3286 -0.5772
10834TIP3    H253918   3.201   3.710   3.947  1.5114 -0.1894 -1.7886
10835TIP3   OH253919   4.806   6.309  12.681 -0.1195  0.0276  0.3242
10835TIP3    H153920   4.836   6.399  12.671  0.3986 -0.0240  1.3835
10835TIP3    H253921   4.877   6.256  12.645 -0.1174  0.0133  0.3508
10836TIP3   OH253922   6.710   0.319   6.905 -0.6393  0.0126  1.3426
10836TIP3    H153923   6.781   0.382   6.921 -2.2685  2.5418 -0.6331
10836TIP3    H253924   6.728   0.284   6.818 -3.0744  2.7932 -0.4703
10837TIP3   OH253925   3.343   2.692   4.985 -0.1705  0.1903  0.0423
10837TIP3    H153926   3.301   2.623   4.933 -2.3077  0.3231  1.4253
10837TIP3    H253927   3.429   2.657   5.007 -0.8560 -1.6476 -0.0589
10838TIP3   OH253928   2.640   4.524  13.387  0.6056  0.0277  0.1124
10838TIP3    H153929   2.640   4.512  13.292 -2.0365 -0.0715  0.0481
10838TIP3    H253930   2.708   4.590  13.403  1.0099  0.1482 -1.8461
10839TIP3   OH253931   2.329   5.482   0.998  0.1350 -0.3647 -0.5660
10839TIP3    H153932   2.321   5.510   1.089  0.4541 -2.0801  0.0382
10839TIP3    H253933   2.379   5.551   0.955  0.8117  0.0123  0.7907
10840TIP3   OH253934   0.515   0.932   1.788 -0.7118  0.3907  0.6494
10840TIP3    H153935   0.487   0.942   1.697  0.3590 -1.0448  0.1337
10840TIP3    H253936   0.595   0.880   1.783  0.0712  1.3428  2.3339
10841TIP3   OH253937   4.894   4.831   3.719 -0.3713 -0.2756  0.0867
10841TIP3    H153938   4.948   4.752   3.714  0.3831  0.2130  0.4733
10841TIP3    H253939   4.947   4.894   3.767 -1.9132 -0.3235  1.9607
10842TIP3   OH253940   1.735   4.167   0.318  0.2156 -0.2290  0.6770
10842TIP3    H153941   1.752   4.166   0.412  0.2549 -2.0278  0.6972
10842TIP3    H253942   1.644   4.137   0.310  0.4183 -0.7363  0.1347
10843TIP3   OH253943   0.810   1.043   5.611 -0.2850  0.0233 -0.2419
10843TIP3    H153944   0.728   1.085   5.636 -0.1798  0.6305 -0.8839
10843TIP3    H253945   0.874   1.076   5.674  0.2937  2.6929 -2.0397
10844TIP3   OH253946   1.562   0.559   1.358 -0.2800  0.3030 -0.1207
10844TIP3    H153947   1.560   0.649   1.325 -0.7313  0.1698 -0.4718
10844TIP3    H253948   1.586   0.568   1.450  1.3383  0.6560 -0.5451
10845TIP3   OH253949   5.498   4.810  10.746 -0.2989  0.1378  0.2521
10845TIP3    H153950   5.436   4.774  10.683 -3.1000  3.7023  0.6570
10845TIP3    H253951   5.462   4.786  10.831  0.1785  0.3171  0.5096
10846TIP3   OH253952   0.824   5.834   2.817  0.2311  0.2444 -0.0644
10846TIP3    H153953   0.785   5.849   2.730 -1.4653  0.3114  0.6559
10846TIP3    H253954   0.761   5.776   2.861  1.3525 -0.2562  0.9245
10847TIP3   OH253955   2.671   3.578   0.406  0.3235 -0.4071  0.2940
10847TIP3    H153956   2.591   3.618   0.440  0.5988  0.3690  0.0349
10847TIP3    H253957   2.675   3.493   0.451  0.0266  0.0783  1.2705
10848TIP3   OH253958   0.802   5.924   5.097  0.2208 -0.1076  0.4316
10848TIP3    H153959   0.875   5.904   5.155  1.9826 -0.4552 -1.7681
10848TIP3    H253960   0.759   5.840   5.083  0.8429 -0.3555 -0.0662
10849TIP3   OH253961   0.287   6.290  16.324 -0.2496 -0.3531 -0.0265
10849TIP3    H153962   0.350   6.304  16.394 -1.0173  0.0452  0.6050
10849TIP3    H253963   0.205   6.326  16.358 -0.7848 -0.7264 -0.8806
10850TIP3   OH253964   0.727   0.321   0.920 -0.5667 -0.2646  0.1508
10850TIP3    H153965   0.770   0.380   0.983  1.0756  0.2957 -1.4253
10850TIP3    H253966   0.752   0.234   0.949  0.6959  0.0117 -0.0445
10851TIP3   OH253967   5.033   0.238  15.810  0.4123 -0.3554 -0.2186
10851TIP3    H153968   5.005   0.215  15.721 -0.9876  0.1496  0.0565
10851TIP3    H253969   5.050   0.332  15.807  0.4731 -0.3589  0.0065
10852TIP3   OH253970   3.940   1.826  16.674  0.4892  0.9178  0.0127
10852TIP3    H153971   4.011   1.788  16.624  0.8357 -0.0769  1.2211
10852TIP3    H253972   3.864   1.772  16.653  0.6856  0.3566  0.7071
10853TIP3   OH253973   2.376   1.507  16.906  0.1713  0.5968  0.9658
10853TIP3    H153974   2.411   1.461  16.983  0.0393 -0.2027  0.5619
10853TIP3    H253975   2.303   1.452  16.877 -0.5279  1.5103  0.9601
10854TIP3   OH253976   0.362   2.935   2.234  0.5904  0.4841  1.3554
10854TIP3    H153977   0.294   3.003   2.234 -0.9742 -1.0075  2.1836
10854TIP3    H253978   0.354   2.893   2.320 -0.2701 -2.4073 -0.0262
10855TIP3   OH253979   2.589   3.013   2.274  0.0617 -0.3043  0.0144
10855TIP3    H153980   2.583   2.949   2.204 -0.0791 -0.8932  0.5504
10855TIP3    H253981   2.528   2.981   2.341  0.5856 -0.0553  0.6257
10856TIP3   OH253982   4.837   4.023  14.898  0.4887 -0.5439 -0.8208
10856TIP3    H153983   4.797   3.999  14.982 -0.5701 -0.7650 -1.3716
10856TIP3    H253984   4.930   4.003  14.909  0.8954  1.9790  1.2443
10857TIP3   OH253985   1.738   5.169   1.934  0.8008  0.0163  0.1186
10857TIP3    H153986   1.725   5.074   1.931  0.7287  0.0435 -0.7076
10857TIP3    H253987   1.669   5.201   1.991  0.0929 -0.3146 -0.5373
10858TIP3   OH253988   1.846   4.727   3.084 -0.0791 -0.0918  0.2792
10858TIP3    H153989   1.770   4.670   3.070 -0.2428  0.1431  0.2019
10858TIP3    H253990   1.900   4.714   3.006 -0.6483  0.6823 -0.2555
10859TIP3   OH253991   0.297   1.690  13.713 -0.4497  0.0909  0.1551
10859TIP3    H153992   0.332   1.618  13.660 -0.0767  0.3438  0.0544
10859TIP3    H253993   0.287   1.762  13.652 -2.7009 -0.4395 -0.1652
10860TIP3   OH253994   1.790   5.788   1.252  0.1348 -0.4955  0.5360
10860TIP3    H153995   1.785   5.734   1.172  0.0399 -0.1766  0.3275
10860TIP3    H253996   1.699   5.804   1.276  0.0883  1.7070 -0.8466
10861TIP3   OH253997   3.562   3.761  14.676 -0.7239  0.4991 -0.8393
10861TIP3    H153998   3.526   3.717  14.598 -0.6884  0.9713 -1.1278
10861TIP3    H253999   3.614   3.833  14.641 -2.0123  1.7096 -0.3580
10862TIP3   OH254000   3.822   5.800   2.472  0.6730 -0.0623  0.1723
10862TIP3    H154001   3.738   5.758   2.454  0.8995  0.2843 -2.0589
10862TIP3    H254002   3.839   5.783   2.564 -3.2356  2.3457  1.5919
10863TIP3   OH254003   2.740   5.471   4.612 -0.4746  1.1419  0.4753
10863TIP3    H154004   2.681   5.398   4.590 -2.1577  2.2971  0.9652
10863TIP3    H254005   2.772   5.502   4.527  1.1755 -0.8281  0.3021
10864TIP3   OH254006   6.090   5.294  13.910 -0.2723  0.6140 -0.7840
10864TIP3    H154007   6.025   5.327  13.972 -0.7493  1.6348 -1.7802
10864TIP3    H254008   6.167   5.349  13.926  0.8405 -1.3743  1.2235
10865TIP3   OH254009   4.634   4.472  12.180  0.1173 -0.2579 -0.2313
10865TIP3    H154010   4.641   4.471  12.085  0.3039 -0.2602 -0.2171
10865TIP3    H254011   4.540   4.476  12.197  0.1041  0.7571 -0.4318
10866TIP3   OH254012   1.516   5.525   4.530  0.2344 -0.2210 -0.5741
10866TIP3    H154013   1.444   5.572   4.487 -0.2851 -0.8350 -0.3829
10866TIP3    H254014   1.474   5.476   4.601  0.8627 -0.4635 -0.3642
10867TIP3   OH254015   4.097   4.379  13.881 -0.2630  0.6634 -0.5429
10867TIP3    H154016   4.011   4.337  13.879  0.6401 -1.3194 -0.5928
10867TIP3    H254017   4.084   4.460  13.930 -2.1098  0.3312 -0.4212
10868TIP3   OH254018   4.483   6.341   4.491  0.2849 -0.2619  0.3316
10868TIP3    H154019   4.409   6.401   4.488  1.2641  1.0242  0.8310
10868TIP3    H254020   4.533   6.360   4.411  0.7970 -0.1388  0.6748
10869TIP3   OH254021   6.690   6.095  14.496  0.6269 -0.1519 -0.0127
10869TIP3    H154022   6.653   6.182  14.508  0.7177 -0.0364 -0.5448
10869TIP3    H254023   6.749   6.083  14.571 -0.3166 -0.2584  0.7232
10870TIP3   OH254024   2.564   6.036   1.253 -0.3963 -0.0660  0.1359
10870TIP3    H154025   2.572   5.951   1.297 -2.4177  0.2294  1.2140
10870TIP3    H254026   2.650   6.077   1.265  0.3834 -1.6454  0.2351
10871TIP3   OH254027   0.215   0.574  13.340 -0.0484  0.5492  0.4649
10871TIP3    H154028   0.163   0.649  13.369  0.3446  1.5968 -1.3866
10871TIP3    H254029   0.304   0.596  13.368  0.1131  0.9330 -0.3225
10872TIP3   OH254030   2.394   0.115   3.431  0.2480  0.2838  0.3194
10872TIP3    H154031   2.337   0.157   3.495  0.0604  0.0136  0.3330
10872TIP3    H254032   2.428   0.037   3.476 -0.1012 -0.0569  0.0026
10873TIP3   OH254033   1.885   5.084  13.060  0.0550 -0.0046  0.4730
10873TIP3    H154034   1.955   5.149  13.069  0.2423  0.0550 -1.0708
10873TIP3    H254035   1.811   5.133  13.026 -0.0106 -0.4690 -0.0764
10874TIP3   OH254036   0.072   2.146   0.551  0.3117 -0.2242  0.5941
10874TIP3    H154037   0.058   2.060   0.590 -2.6444  0.0649  0.4121
10874TIP3    H254038   0.158   2.173   0.584  0.0041 -1.9253  3.1430
10875TIP3   OH254039   4.849   6.738  11.342 -0.1572 -0.2831  0.2852
10875TIP3    H154040   4.880   6.816  11.296 -1.4960  0.4128  0.5164
10875TIP3    H254041   4.916   6.672  11.324  0.6818  0.7258 -0.4491
10876TIP3   OH254042   3.803   3.224   0.380  0.3412 -0.4287 -0.4640
10876TIP3    H154043   3.840   3.234   0.468  0.4720  1.1577 -0.6736
10876TIP3    H254044   3.862   3.274   0.323 -1.9203  2.0966 -0.8379
10877TIP3   OH254045   0.003   0.652   4.460  0.2732 -0.1151 -0.2373
10877TIP3    H154046   0.052   0.716   4.407  0.8007 -0.6667 -0.4314
10877TIP3    H254047   0.065   0.580   4.472  0.5582  0.4408  2.0430
10878TIP3   OH254048   3.470   1.101  15.010  0.0097 -0.2707 -0.4307
10878TIP3    H154049   3.525   1.176  14.988  2.1528 -1.5750  0.1450
10878TIP3    H254050   3.382   1.137  15.020  0.9007  2.0770 -0.5110
10879TIP3   OH254051   5.484   2.400   1.822 -0.2764 -0.0431  0.0005
10879TIP3    H154052   5.572   2.382   1.855  0.3976  0.5433 -1.3982
10879TIP3    H254053   5.474   2.341   1.747 -0.6227  0.6869 -0.5410
10880TIP3   OH254054   2.309   4.522  12.810  0.0169 -0.2320 -0.6055
10880TIP3    H154055   2.300   4.564  12.895 -2.3523  0.1336 -0.9677
10880TIP3    H254056   2.394   4.477  12.814  0.1176  0.0561  1.7983
10881TIP3   OH254057   2.308   5.508  10.281 -0.3727 -1.0580  0.0315
10881TIP3    H154058   2.215   5.490  10.271 -0.3170 -0.7064 -1.4092
10881TIP3    H254059   2.312   5.599  10.310 -0.4809 -1.3265  0.9279
10882TIP3   OH254060   6.206   3.987  11.706  0.3443  0.5452  0.0836
10882TIP3    H154061   6.161   3.928  11.645 -1.0137  1.4747  0.1679
10882TIP3    H254062   6.257   4.045  11.650 -0.2942  0.8970 -0.1410
10883TIP3   OH254063   3.746   2.827   4.866  0.0034 -0.0428 -0.2429
10883TIP3    H154064   3.708   2.773   4.936  0.2016  0.6520  0.4109
10883TIP3    H254065   3.816   2.877   4.909 -0.5780  1.1986 -0.6899
10884TIP3   OH254066   2.938   6.197  14.866  0.4601 -0.1771 -0.2650
10884TIP3    H154067   2.873   6.267  14.865  0.2196 -0.3452  1.3809
10884TIP3    H254068   2.893   6.123  14.825  0.2054  0.1840 -0.6528
10885TIP3   OH254069   3.381   3.068  11.022  0.0227 -0.2134 -0.1654
10885TIP3    H154070   3.399   3.160  11.000  0.8364 -0.3184  0.0156
10885TIP3    H254071   3.327   3.037  10.949 -0.2920  0.4139 -0.2130
10886TIP3   OH254072   3.134   5.604  10.164 -0.8565  0.5428  0.2983
10886TIP3    H154073   3.198   5.539  10.135 -0.9687  0.6241 -0.1481
10886TIP3    H254074   3.067   5.554  10.210 -0.7649  0.3852  0.2600
10887TIP3   OH254075   2.072   3.859  14.015  0.3961  0.5352 -0.0179
10887TIP3    H154076   2.098   3.817  14.096 -0.4359  0.2554  0.1168
10887TIP3    H254077   1.997   3.807  13.984  0.2942  1.0271 -0.6244
10888TIP3   OH254078   3.313   3.550  15.868  0.6609 -0.2281 -0.0690
10888TIP3    H154079   3.249   3.525  15.801  0.1611 -1.8634  0.9807
10888TIP3    H254080   3.320   3.645  15.859 -2.7730  0.1973  0.4901
10889TIP3   OH254081   0.319   1.479  15.944 -0.4268  0.2866 -0.2297
10889TIP3    H154082   0.395   1.537  15.951 -0.6965  1.1984 -3.3279
10889TIP3    H254083   0.353   1.398  15.906 -0.3450 -1.1110  2.5519
10890TIP3   OH254084   4.485   4.744  14.038  0.0237 -0.5580 -0.0029
10890TIP3    H154085   4.545   4.725  14.110  2.2362 -1.5784 -1.9666
10890TIP3    H254086   4.435   4.820  14.067  2.4964  0.5548  1.6828
10891TIP3   OH254087   3.526   5.285  15.564 -0.4330  0.2279 -0.7081
10891TIP3    H154088   3.445   5.335  15.560  0.4166  1.6279 -0.7884
10891TIP3    H254089   3.500   5.201  15.603 -1.9573  0.5422 -1.0007
10892TIP3   OH254090   1.633   4.672  13.342  0.2998 -0.5210  0.4556
10892TIP3    H154091   1.574   4.614  13.293  0.5731  0.5104 -1.1819
10892TIP3    H254092   1.713   4.621  13.352  0.4582 -0.5513 -0.7686
10893TIP3   OH254093   3.009   1.556  13.566  0.0528  0.3411 -0.4602
10893TIP3    H154094   3.091   1.536  13.610 -0.7902 -0.6769  0.7296
10893TIP3    H254095   3.030   1.628  13.506  2.1102 -0.8236 -1.2414
10894TIP3   OH254096   4.449   6.303  16.899 -0.4175  0.0701 -0.6338
10894TIP3    H154097   4.417   6.381  16.944  1.2616 -0.1115  1.0138
10894TIP3    H254098   4.422   6.230  16.955  1.0152 -0.2218 -0.2763
10895TIP3   OH254099   4.843   5.914   0.659 -0.5801  0.1407 -0.1267
10895TIP3    H154100   4.911   5.914   0.593  1.6779 -2.3504  1.9756
10895TIP3    H254101   4.826   6.007   0.677  1.0736  0.8215 -1.8251
10896TIP3   OH254102   4.946   0.992   1.592 -0.5433 -0.0993  0.4723
10896TIP3    H154103   4.882   0.937   1.637 -0.3542  0.0704  0.9567
10896TIP3    H254104   4.897   1.032   1.521 -0.4757 -1.5801 -0.4511
10897TIP3   OH254105   0.591   2.208   1.979  0.6518  0.2665 -0.6272
10897TIP3    H154106   0.668   2.187   2.032 -0.2420 -0.4702  0.4175
10897TIP3    H254107   0.610   2.170   1.894  0.6211 -1.6917  0.1974
10898TIP3   OH254108   0.911   1.662  16.717  0.2777 -0.5288  0.0841
10898TIP3    H154109   0.855   1.587  16.695 -2.0453  0.6883  1.5263
10898TIP3    H254110   0.982   1.624  16.769 -1.1199 -1.7073  1.2164
10899TIP3   OH254111   6.214   2.090  15.096  0.0260  0.1989 -0.4422
10899TIP3    H154112   6.164   2.078  15.015 -0.5629 -1.7766  0.1531
10899TIP3    H254113   6.148   2.099  15.165  0.5229  1.4748 -0.0993
10900TIP3   OH254114   3.244   2.755  14.080  0.0261 -0.2328 -0.0122
10900TIP3    H154115   3.236   2.663  14.106 -0.8050 -0.1727 -0.0259
10900TIP3    H254116   3.334   2.763  14.049  0.4509 -0.7724  1.0339
10901TIP3   OH254117   2.063   6.002  13.242  0.4542 -0.0362  0.4973
10901TIP3    H154118   2.008   5.980  13.317  0.9392  0.5139  1.0219
10901TIP3    H254119   2.140   6.044  13.280 -0.1748  2.0630 -0.4124
10902TIP3   OH254120   2.951   5.651   2.387  0.7791 -0.0653 -0.3461
10902TIP3    H154121   2.994   5.659   2.472  0.5367 -0.6278 -0.1624
10902TIP3    H254122   2.892   5.726   2.382 -0.8402 -1.1683  0.9666
10903TIP3   OH254123   3.536   5.865  12.626 -0.6589  0.4807 -0.1313
10903TIP3    H154124   3.474   5.887  12.695 -0.8698  0.4033 -0.2968
10903TIP3    H254125   3.489   5.804  12.569 -0.0424 -0.5252  0.4030
10904TIP3   OH254126   3.129   2.893   4.318 -0.0336  0.1636  0.3793
10904TIP3    H154127   3.224   2.901   4.312 -0.1575  1.0149 -0.6941
10904TIP3    H254128   3.103   2.849   4.238 -0.4872 -0.7622  1.0200
10905TIP3   OH254129   3.425   1.098   5.731  0.6433  0.1847  0.2285
10905TIP3    H154130   3.410   1.153   5.654 -1.0454 -0.0128  0.3650
10905TIP3    H254131   3.505   1.050   5.712  0.5214  0.5094 -1.1964
10906TIP3   OH254132   2.225   4.900  13.472  0.5631  0.2074 -0.1291
10906TIP3    H154133   2.132   4.881  13.461  0.1404  2.5879 -1.1794
10906TIP3    H254134   2.270   4.831  13.421 -0.5569 -1.1392  0.6328
10907TIP3   OH254135   3.043   6.104   6.251  0.1256 -0.0594  0.0115
10907TIP3    H154136   3.020   6.058   6.332 -1.8116  0.0501 -0.4211
10907TIP3    H254137   2.986   6.181   6.251  0.4426  0.1933 -1.2105
10908TIP3   OH254138   4.324   2.102   1.663  0.4066  0.5704  0.1793
10908TIP3    H154139   4.382   2.176   1.678  1.1311 -0.0654  0.6010
10908TIP3    H254140   4.306   2.068   1.751  1.6644 -0.9238 -0.0996
10909TIP3   OH254141   6.468   1.446  12.996 -0.3189 -0.8493 -0.0797
10909TIP3    H154142   6.430   1.360  12.978 -0.1300 -1.1040  0.7263
10909TIP3    H254143   6.549   1.447  12.945 -1.7810  0.0492 -2.5581
10910TIP3   OH254144   5.529   4.106   1.254 -0.0030 -0.1859 -0.2939
10910TIP3    H154145   5.481   4.069   1.180  2.3872 -1.8627 -1.1489
10910TIP3    H254146   5.582   4.176   1.216  0.9912 -0.8421 -0.1725
10911TIP3   OH254147   0.609   0.478   5.719  0.3816 -0.1713 -0.0031
10911TIP3    H154148   0.656   0.506   5.640 -1.7284  1.4584 -0.8121
10911TIP3    H254149   0.613   0.554   5.777 -0.8812 -0.1118  0.0339
10912TIP3   OH254150   5.351   3.710   0.813 -0.3617  0.4691 -0.1389
10912TIP3    H154151   5.292   3.711   0.737 -1.3724  4.0066  0.4947
10912TIP3    H254152   5.437   3.691   0.776 -1.1222  0.1790 -1.8730
10913TIP3   OH254153   1.170   0.353   0.180  0.1185  0.0304 -0.7612
10913TIP3    H154154   1.212   0.420   0.126  1.0850 -0.4315 -0.5942
10913TIP3    H254155   1.242   0.307   0.222 -0.5928  0.5868  1.2049
10914TIP3   OH254156   1.738   1.805   4.171  0.6361  0.0481 -0.2739
10914TIP3    H154157   1.770   1.895   4.181  1.2452 -0.0865 -0.9309
10914TIP3    H254158   1.816   1.750   4.182  0.8139 -0.2574 -2.5830
10915TIP3   OH254159   3.547   4.024   0.382 -0.1814 -0.2284  0.2753
10915TIP3    H154160   3.591   4.023   0.467  0.0064  1.9744  0.2567
10915TIP3    H254161   3.602   4.080   0.327 -1.4522  0.1494 -0.6435
10916TIP3   OH254162   4.425   2.927   0.913 -0.0806 -0.3999  0.1755
10916TIP3    H154163   4.434   2.890   0.826 -2.6913 -0.3702 -0.2093
10916TIP3    H254164   4.411   2.852   0.970 -0.7232 -0.3010  0.1584
10917TIP3   OH254165   2.860   2.439   1.565 -0.1184 -0.1039 -0.6496
10917TIP3    H154166   2.849   2.404   1.653 -0.5475  3.0063  0.6784
10917TIP3    H254167   2.771   2.446   1.531 -0.0828  0.0931 -0.7053
10918TIP3   OH254168   6.790   2.052   4.330  0.5314  0.2533 -1.1648
10918TIP3    H154169   6.813   1.961   4.349 -0.3181  0.0240 -1.1865
10918TIP3    H254170   6.823   2.067   4.241  2.6063  0.6633 -0.3774
10919TIP3   OH254171   4.777   1.975  14.422  0.1609  0.7519  0.4585
10919TIP3    H154172   4.815   1.970  14.335 -0.0001  2.1499  0.2935
10919TIP3    H254173   4.833   2.036  14.470  0.6488 -0.5159  1.5656
10920TIP3   OH254174   0.736   6.517  13.469  0.4217  0.3343 -0.1094
10920TIP3    H154175   0.783   6.435  13.480 -0.7219 -0.4177 -0.5721
10920TIP3    H254176   0.767   6.573  13.540  0.3543 -0.9188  0.9330
10921TIP3   OH254177   1.238   0.431   2.182 -0.6684 -0.2567 -0.1370
10921TIP3    H154178   1.273   0.515   2.213 -0.3623 -0.1298 -0.8181
10921TIP3    H254179   1.298   0.366   2.219 -0.2280 -0.0964 -0.5488
10922TIP3   OH254180   3.385   2.849  16.042  0.0242 -0.1600 -0.3059
10922TIP3    H154181   3.346   2.776  16.091 -0.4780 -0.5585 -1.2868
10922TIP3    H254182   3.414   2.910  16.110 -0.6534 -0.7056  0.4918
10923TIP3   OH254183   2.480   3.427  15.418  0.2082  0.6145  0.3356
10923TIP3    H154184   2.415   3.381  15.472  1.1319 -1.9603 -0.5972
10923TIP3    H254185   2.468   3.519  15.440 -2.7792  0.1182  1.2304
10924TIP3   OH254186   0.211   4.390  14.571  0.2197 -0.3642 -0.0061
10924TIP3    H154187   0.287   4.397  14.513 -0.6749  1.1497 -1.0626
10924TIP3    H254188   0.247   4.357  14.653  2.9733  4.3806  1.1252
10925TIP3   OH254189   2.635   3.174  12.881 -0.0754 -0.1210 -0.0294
10925TIP3    H154190   2.645   3.269  12.888  0.0464 -0.0625 -0.9324
10925TIP3    H254191   2.642   3.156  12.788 -0.8001 -0.9423  0.0651
10926TIP3   OH254192   6.476   5.148   2.264  0.2515  0.4825  0.0104
10926TIP3    H154193   6.449   5.108   2.347  1.5307 -1.2337 -0.3464
10926TIP3    H254194   6.422   5.104   2.198 -0.4680  1.5503 -0.1521
10927TIP3   OH254195   4.476   2.620  16.004 -0.1752 -0.5376 -0.1732
10927TIP3    H154196   4.474   2.682  15.931  0.3460  0.8221  0.9032
10927TIP3    H254197   4.563   2.631  16.043 -0.2737 -1.5658  0.3815
10928TIP3   OH254198   6.376   4.712  11.984  0.0908  0.2035 -0.3696
10928TIP3    H154199   6.387   4.773  11.911  0.8295  1.5717  0.8151
10928TIP3    H254200   6.465   4.694  12.014 -0.1390 -1.3198 -0.5561
10929TIP3   OH254201   5.799   5.231   6.378 -0.6423  0.3672  0.4266
10929TIP3    H154202   5.728   5.240   6.442 -0.0391 -0.1843  1.2060
10929TIP3    H254203   5.815   5.320   6.347 -1.5454  0.5209  0.3845
10930TIP3   OH254204   5.109   1.427   5.907  0.3063 -0.6431 -0.1829
10930TIP3    H154205   5.076   1.504   5.953 -0.0422  0.3348 -2.0134
10930TIP3    H254206   5.158   1.379   5.974 -0.2960  0.6466  1.2359
10931TIP3   OH254207   5.306   0.808  13.033  0.5618 -0.2353  0.0745
10931TIP3    H154208   5.245   0.779  13.100 -0.5141  1.2791 -0.1846
10931TIP3    H254209   5.302   0.740  12.966 -1.0886 -0.0447 -0.0653
10932TIP3   OH254210   5.096   0.629  16.812 -0.2238  0.1667  0.8170
10932TIP3    H154211   5.125   0.591  16.729 -1.9862  2.0370 -0.7752
10932TIP3    H254212   5.148   0.709  16.821 -0.1381  0.0425  1.4489
10933TIP3   OH254213   3.163   2.269   3.911  0.4067 -0.5431  0.1788
10933TIP3    H154214   3.096   2.203   3.892  0.3736 -0.3280 -0.4681
10933TIP3    H254215   3.112   2.347   3.935  0.4427 -0.6925  0.7476
10934TIP3   OH254216   4.245   4.237  15.589  0.4112  0.4499  0.2477
10934TIP3    H154217   4.161   4.273  15.561 -0.2195 -1.2733 -0.2173
10934TIP3    H254218   4.295   4.313  15.620 -0.0780  1.9992 -2.4633
10935TIP3   OH254219   4.046   3.670   3.335 -0.6617 -0.3108 -0.7356
10935TIP3    H154220   4.045   3.691   3.429 -1.6804  0.5700 -0.9280
10935TIP3    H254221   4.136   3.642   3.319 -0.4869 -0.5689  0.5216
10936TIP3   OH254222   0.461   0.295   2.643  0.1342  0.2668 -1.2820
10936TIP3    H154223   0.551   0.285   2.673 -0.7159 -1.7965  0.9784
10936TIP3    H254224   0.427   0.370   2.693 -0.7682 -2.1174  2.0848
10937TIP3   OH254225   3.720   4.442   4.916 -0.1146 -0.0131 -0.2604
10937TIP3    H154226   3.708   4.535   4.896 -1.2378 -0.3969 -1.5209
10937TIP3    H254227   3.734   4.439   5.011 -1.7584  1.3085  0.0635
10938TIP3   OH254228   0.464   0.542   0.844  0.2356  0.1755 -0.8790
10938TIP3    H154229   0.384   0.582   0.811  0.2482  0.4096 -0.6306
10938TIP3    H254230   0.438   0.501   0.927  0.9406  2.6391  0.6604
10939TIP3   OH254231   2.104   5.541   5.032 -0.1238  0.1408  0.1903
10939TIP3    H154232   2.080   5.631   5.055  0.9381  0.3642  0.4774
10939TIP3    H254233   2.114   5.497   5.116 -1.4813 -0.5019  0.0475
10940TIP3   OH254234   4.510   3.354  14.451 -0.2720  0.4423  0.9673
10940TIP3    H154235   4.468   3.394  14.528  0.3082  0.9929  1.0081
10940TIP3    H254236   4.564   3.424  14.414  0.6023 -0.2455  0.9063
10941TIP3   OH254237   3.910   5.243  10.970 -0.1855  0.3919 -0.0667
10941TIP3    H154238   3.964   5.276  10.898  0.7241  0.2918  0.5580
10941TIP3    H254239   3.856   5.175  10.931  0.1210  0.5109 -0.7062
10942TIP3   OH254240   5.651   3.091  14.979 -0.0967  0.3362  0.2030
10942TIP3    H154241   5.598   3.147  15.036  0.7481 -0.0454  1.4116
10942TIP3    H254242   5.608   3.006  14.983 -0.0075  0.2965  0.3039
10943TIP3   OH254243   3.501   5.596   1.667 -0.4319  0.1750  0.3978
10943TIP3    H154244   3.577   5.542   1.644 -0.0034  0.5596  0.8944
10943TIP3    H254245   3.439   5.535   1.705  1.2122  0.3721  3.8265
10944TIP3   OH254246   6.177   0.990   2.233 -0.3437 -0.3817 -0.1678
10944TIP3    H154247   6.087   1.006   2.204 -0.1166  0.4083 -0.4686
10944TIP3    H254248   6.171   0.910   2.286 -0.7767 -1.8628 -2.3391
10945TIP3   OH254249   1.096   2.720  13.258  0.4529 -0.3809 -0.7167
10945TIP3    H154250   1.103   2.815  13.256  2.0986 -0.4635 -0.2926
10945TIP3    H254251   1.023   2.702  13.316 -0.0198  0.6183 -0.9791
10946TIP3   OH254252   5.330   4.450  15.491  0.3516 -0.3423 -0.2209
10946TIP3    H154253   5.410   4.438  15.541 -0.3569 -0.8542  0.8329
10946TIP3    H254254   5.291   4.530  15.526  1.1802  0.8280 -1.8532
10947TIP3   OH254255   5.523   6.365  14.452 -0.0118  0.3631  0.3755
10947TIP3    H154256   5.499   6.314  14.374  0.2367  0.8832 -0.0455
10947TIP3    H254257   5.600   6.415  14.425 -0.7526  1.6023  0.5104
10948TIP3   OH254258   3.595   2.615  12.380  0.4673 -0.4906 -0.1445
10948TIP3    H154259   3.642   2.665  12.313  4.3330 -1.3081  1.6937
10948TIP3    H254260   3.546   2.549  12.331 -0.1621  1.4278 -2.2768
10949TIP3   OH254261   0.270   0.292   3.770  0.3234 -0.0270  0.2194
10949TIP3    H154262   0.267   0.199   3.794  0.3494 -0.3935 -1.1271
10949TIP3    H254263   0.340   0.328   3.824 -0.5557 -0.4880  1.7223
10950TIP3   OH254264   3.656   2.643  16.037 -0.6071 -0.7047 -0.2572
10950TIP3    H154265   3.632   2.644  16.130  3.0427 -0.6979  0.8178
10950TIP3    H254266   3.668   2.736  16.015  1.0038 -0.8160  0.0507
10951TIP3   OH254267   4.474   2.911   5.763 -0.7044  0.1867 -0.1518
10951TIP3    H154268   4.426   2.875   5.688 -1.7064 -1.7321  1.3371
10951TIP3    H254269   4.559   2.867   5.761 -0.4643  0.6545 -0.5305
10952TIP3   OH254270   0.524   5.782  14.177 -0.3803  0.1852 -0.0418
10952TIP3    H154271   0.570   5.715  14.229 -1.5863 -0.6226  0.0081
10952TIP3    H254272   0.550   5.865  14.218 -0.3407 -0.3610  1.0881
10953TIP3   OH254273   5.265   2.432  14.730 -0.0143 -0.7820  0.4820
10953TIP3    H154274   5.314   2.351  14.744  3.4613  1.3067  1.5045
10953TIP3    H254275   5.279   2.483  14.809 -1.2471  1.2510 -0.5244
10954TIP3   OH254276   1.803   3.447   4.456 -0.0858 -0.4947 -0.5203
10954TIP3    H154277   1.875   3.394   4.490 -0.1509 -0.3590 -0.1706
10954TIP3    H254278   1.828   3.537   4.475  0.1558 -0.3790 -1.3665
10955TIP3   OH254279   3.327   2.230   0.144 -0.6176 -0.1479 -0.0145
10955TIP3    H154280   3.297   2.144   0.113  0.3706 -0.0799 -1.2771
10955TIP3    H254281   3.399   2.210   0.204 -0.8496 -0.2129  0.2452
10956TIP3   OH254282   1.707   3.635   4.673 -0.4120 -0.0870  0.5567
10956TIP3    H154283   1.782   3.650   4.616 -1.3132 -0.6503 -0.8372
10956TIP3    H254284   1.711   3.541   4.694 -0.7907 -0.1465  0.3739
10957TIP3   OH254285   0.822   5.574  16.275  0.0147  0.1677 -0.2281
10957TIP3    H154286   0.829   5.587  16.180  1.5669 -0.1127 -0.1857
10957TIP3    H254287   0.857   5.486  16.289 -0.4463  0.1072  0.5777
10958TIP3   OH254288   3.436   2.618  13.302  0.6358  0.1971  0.7513
10958TIP3    H154289   3.438   2.523  13.312  3.0738  0.1251  0.1568
10958TIP3    H254290   3.345   2.637  13.279  0.7053 -2.3736 -2.4388
10959TIP3   OH254291   2.324   6.031  13.712  0.6959 -0.3985  0.3950
10959TIP3    H154292   2.290   6.102  13.657  2.5598 -0.1384 -0.4962
10959TIP3    H254293   2.284   5.952  13.677  1.0824 -0.1208 -0.6861
10960TIP3   OH254294   2.395   2.624  11.166  0.1976 -0.4284  0.0297
10960TIP3    H154295   2.330   2.566  11.125  0.2293 -2.8781  3.0635
10960TIP3    H254296   2.352   2.709  11.173 -1.2728 -1.0330 -1.2903
10961TIP3   OH254297   4.522   0.147   2.885  0.0893 -0.3637 -0.0267
10961TIP3    H154298   4.543   0.054   2.887 -0.3202 -0.5416 -1.9574
10961TIP3    H254299   4.605   0.190   2.865 -0.2025 -0.5905 -1.9310
10962TIP3   OH254300   0.154   4.177   5.147  0.0388  0.0967 -0.0001
10962TIP3    H154301   0.230   4.230   5.171  0.0609  0.1734 -0.2349
10962TIP3    H254302   0.084   4.240   5.133  0.5144  0.2447 -2.0533
10963TIP3   OH254303   6.517   3.052  13.401 -0.3052  0.4758 -0.5263
10963TIP3    H154304   6.567   3.116  13.452 -1.6099  0.4987  0.8017
10963TIP3    H254305   6.554   2.967  13.425  0.1031  0.5945 -0.7350
10964TIP3   OH254306   5.591   0.811   2.869 -0.5754  0.2951  0.0365
10964TIP3    H154307   5.546   0.768   2.796 -1.4122  0.5231  0.4016
10964TIP3    H254308   5.679   0.773   2.869 -1.3861 -1.7019  0.5686
10965TIP3   OH254309   3.041   6.217  11.669  0.0517 -0.1915  0.0524
10965TIP3    H154310   2.952   6.251  11.679  0.1353  0.2480 -0.6055
10965TIP3    H254311   3.082   6.232  11.755 -0.3432  0.1039  0.1928
10966TIP3   OH254312   3.298   3.510  15.287  0.2696 -0.7604 -0.4758
10966TIP3    H154313   3.207   3.537  15.299  0.3268  0.2486 -1.9763
10966TIP3    H254314   3.299   3.468  15.201  1.4553  0.5797 -1.1736
10967TIP3   OH254315   4.106   3.276   4.593 -0.2964  0.6348  0.3364
10967TIP3    H154316   4.119   3.287   4.499  0.2256 -0.4113  0.2769
10967TIP3    H254317   4.098   3.182   4.606 -1.2412  0.8193  1.2406
10968TIP3   OH254318   5.768   5.169  12.711  0.0800  0.2465  0.3838
10968TIP3    H154319   5.718   5.204  12.785  1.0603  0.7393  0.8320
10968TIP3    H254320   5.782   5.077  12.733  0.5903  0.4542  0.9417
10969TIP3   OH254321   1.414   0.401   1.862 -0.3497 -0.3504 -0.4617
10969TIP3    H154322   1.443   0.487   1.831  0.1094 -0.4487 -0.3038
10969TIP3    H254323   1.321   0.399   1.840 -1.0006  1.1972  1.7860
10970TIP3   OH254324   5.913   6.530   3.649 -0.8556 -0.1138  0.3068
10970TIP3    H154325   5.945   6.461   3.591 -0.1651  0.4513  0.0032
10970TIP3    H254326   5.847   6.577   3.597 -0.3223  0.3187  0.0144
10971TIP3   OH254327   1.515   2.102  12.938 -0.0334 -0.2018  0.3235
10971TIP3    H154328   1.600   2.103  12.981  1.5114  1.7074 -2.4020
10971TIP3    H254329   1.464   2.169  12.983  0.3443 -0.4843  1.1797
10972TIP3   OH254330   1.990   4.442   1.090 -0.6416  0.5877 -0.1787
10972TIP3    H154331   1.970   4.362   1.140  0.2060 -0.2764 -1.1812
10972TIP3    H254332   1.954   4.513   1.144 -1.8688 -0.4887  0.4963
10973TIP3   OH254333   6.492   0.415  11.035  0.4166  0.2989 -0.0687
10973TIP3    H154334   6.451   0.489  10.991  0.1615  1.4530  1.9792
10973TIP3    H254335   6.575   0.403  10.990 -0.0826  1.0317 -1.2203
10974TIP3   OH254336   3.435   3.983   4.820 -0.4938  0.3913 -0.3402
10974TIP3    H154337   3.465   4.069   4.849 -2.1467  0.6852  0.6214
10974TIP3    H254338   3.421   3.994   4.725  0.3802  0.8455 -0.4252
10975TIP3   OH254339   6.780   1.510  16.516 -0.5344  0.7614 -0.1791
10975TIP3    H154340   6.777   1.503  16.612 -0.5970 -1.5870 -0.3060
10975TIP3    H254341   6.702   1.464  16.486  0.1918  0.2628 -1.3871
10976TIP3   OH254342   4.552   2.078  16.897 -0.0287  0.2482  0.2768
10976TIP3    H154343   4.603   2.158  16.884 -2.1200  1.8662  1.1836
10976TIP3    H254344   4.493   2.075  16.821 -0.3328 -0.1040  0.5243
10977TIP3   OH254345   3.084   5.421  14.694 -0.1835  0.1991  0.5500
10977TIP3    H154346   3.011   5.370  14.660 -0.4198  0.0761  1.2276
10977TIP3    H254347   3.117   5.370  14.768  0.6881  0.1798  0.1606
10978TIP3   OH254348   1.336   6.451  16.009  0.0610  0.1676 -0.3444
10978TIP3    H154349   1.261   6.492  16.052  1.4843  3.8965 -1.0181
10978TIP3    H254350   1.346   6.366  16.052 -2.6631  0.8256  1.8490
10979TIP3   OH254351   2.388   6.298   5.128  0.1716  0.0084 -0.0983
10979TIP3    H154352   2.370   6.206   5.149  0.5337  0.0141  0.2532
10979TIP3    H254353   2.429   6.295   5.042 -0.5754 -0.0857 -0.4578
10980TIP3   OH254354   2.527   0.336   4.572 -0.1297 -0.6032  0.1969
10980TIP3    H154355   2.509   0.258   4.625 -1.9951  0.0159  0.5643
10980TIP3    H254356   2.463   0.400   4.602  2.2178  1.5796  0.8390
10981TIP3   OH254357   3.180   1.864  12.614  0.0490 -0.5970 -0.1101
10981TIP3    H154358   3.135   1.855  12.698 -0.9687  1.4873 -0.3881
10981TIP3    H254359   3.189   1.958  12.601  1.8299 -0.9006 -1.5110
10982TIP3   OH254360   1.673   4.069   6.756  0.0676  0.4885  0.1089
10982TIP3    H154361   1.652   4.106   6.670  1.3455  0.2093 -0.3377
10982TIP3    H254362   1.713   3.984   6.736 -0.7000 -0.1030  1.0371
10983TIP3   OH254363   6.128   0.732  12.894  0.4692  0.0305 -0.5882
10983TIP3    H154364   6.183   0.809  12.885  0.4948 -0.0171 -0.8702
10983TIP3    H254365   6.060   0.743  12.827  0.0274  0.1771 -0.1202
10984TIP3   OH254366   2.115   1.140   3.275 -0.4203  0.3751  0.3905
10984TIP3    H154367   2.154   1.197   3.209  1.3147  0.7101  1.6403
10984TIP3    H254368   2.071   1.200   3.336  0.3136  0.3015  1.0065
10985TIP3   OH254369   1.256   2.153   1.723  0.2123 -0.2235 -0.2392
10985TIP3    H154370   1.168   2.180   1.696  0.4276 -0.5523 -1.3045
10985TIP3    H254371   1.306   2.148   1.642  0.8966 -1.2060  0.2217
10986TIP3   OH254372   6.552   3.503  11.017 -0.1250  0.3594  0.3468
10986TIP3    H154373   6.493   3.440  10.975  1.0564  0.5158 -1.6640
10986TIP3    H254374   6.574   3.462  11.101 -0.4357 -1.2699 -0.3182
10987TIP3   OH254375   6.183   4.914  10.557  0.0668 -0.4327 -0.1416
10987TIP3    H154376   6.097   4.944  10.528  0.0120 -2.1692 -2.0750
10987TIP3    H254377   6.164   4.846  10.622  0.1098  1.1858  1.6401
10988TIP3   OH254378   3.752   6.354   5.696 -0.2494 -0.2815  0.0201
10988TIP3    H154379   3.658   6.369   5.700 -0.7295 -2.7424 -0.1062
10988TIP3    H254380   3.764   6.298   5.619  0.9801 -1.7358  1.2020
10989TIP3   OH254381   4.084   3.894   2.902  0.0204  0.0487 -0.2087
10989TIP3    H154382   4.141   3.879   2.827 -0.0025 -1.3060  0.0222
10989TIP3    H254383   4.133   3.860   2.977 -0.1222  1.0216  0.3473
10990TIP3   OH254384   0.399   5.412  15.364 -0.0478 -0.0219 -0.5870
10990TIP3    H154385   0.491   5.430  15.384  0.9050 -2.6293 -2.1865
10990TIP3    H254386   0.393   5.421  15.269 -1.6003  0.5138 -0.4811
10991TIP3   OH254387   6.143   3.805   0.452  0.2461 -0.2659 -0.2421
10991TIP3    H154388   6.213   3.854   0.408 -0.8116  0.8837 -0.6826
10991TIP3    H254389   6.148   3.835   0.543  0.9733 -0.9577 -0.0428
10992TIP3   OH254390   2.157   1.350  16.844 -0.7270 -0.0666  0.4065
10992TIP3    H154391   2.103   1.370  16.921  0.8619 -0.0726  1.5826
10992TIP3    H254392   2.130   1.262  16.818  0.0814 -0.9271  2.2533
10993TIP3   OH254393   0.172   2.422  14.093  0.2465 -0.2785  0.2000
10993TIP3    H154394   0.086   2.443  14.128 -0.8608 -0.1203 -2.3587
10993TIP3    H254395   0.171   2.327  14.081  0.9542 -0.4513  1.3158
10994TIP3   OH254396   6.182   2.833  14.859  0.1172  0.4671 -0.1127
10994TIP3    H154397   6.236   2.755  14.866  0.0958  0.3133 -1.5078
10994TIP3    H254398   6.097   2.807  14.895  0.4887  0.2444  0.6217
10995TIP3   OH254399   3.585   3.549  16.931 -1.0743 -0.1803  0.0513
10995TIP3    H154400   3.497   3.531  16.966 -1.8654 -0.6153 -2.0232
10995TIP3    H254401   3.624   3.462  16.920 -0.5832 -0.0135  0.4223
10996TIP3   OH254402   0.048   2.858   5.545 -0.1190 -0.1011 -0.0789
10996TIP3    H154403  -0.024   2.802   5.518 -1.1927  0.2742  1.8345
10996TIP3    H254404   0.124   2.825   5.496 -0.9294 -2.4964  0.1718
10997TIP3   OH254405   0.669   2.100  16.201 -0.2579  0.3620 -0.2290
10997TIP3    H154406   0.754   2.125  16.165 -0.4644 -0.8065 -1.6288
10997TIP3    H254407   0.690   2.032  16.265 -0.0887  0.6067 -0.0209
10998TIP3   OH254408   0.779   3.042   4.210 -0.4462  0.0992  0.2765
10998TIP3    H154409   0.754   2.963   4.258  0.6313 -1.0248 -0.9320
10998TIP3    H254410   0.873   3.052   4.229  0.0941 -0.5941 -1.8436
10999TIP3   OH254411   4.403   0.089  12.895 -0.1228 -0.4629  0.3263
10999TIP3    H154412   4.346   0.147  12.845  0.8889 -0.4766 -0.9099
10999TIP3    H254413   4.374   0.001  12.871  0.9321 -0.4806 -0.9807
11000TIP3   OH254414   6.685   2.960   6.177 -0.0808  0.1609 -0.0685
11000TIP3    H154415   6.598   2.956   6.218 -0.6077 -0.6706 -1.2033
11000TIP3    H254416   6.731   2.884   6.211  0.6517  1.2143  1.4171
11001TIP3   OH254417   5.721   3.092  14.537 -0.0617  0.0733 -0.4909
11001TIP3    H154418   5.751   3.053  14.620  0.2001  0.5327 -0.3637
11001TIP3    H254419   5.663   3.164  14.564  1.4542  1.4088 -0.6359
11002TIP3   OH254420   5.986   0.185  14.117  0.2498 -0.0609  0.3566
11002TIP3    H154421   5.979   0.091  14.101 -0.6079  0.2102 -1.0435
11002TIP3    H254422   6.020   0.192  14.206 -1.1362 -1.6899  1.0584
11003TIP3   OH254423   3.771   5.940  12.844 -0.0215  0.1145  0.0782
11003TIP3    H154424   3.846   5.880  12.840 -0.5919 -0.5406 -1.8349
11003TIP3    H254425   3.696   5.885  12.824 -0.8538  1.0335  0.6069
11004TIP3   OH254426   2.274   3.556   1.849 -0.3142  0.0347 -0.0102
11004TIP3    H154427   2.232   3.611   1.784  1.2639  0.7076 -0.4874
11004TIP3    H254428   2.201   3.516   1.897 -1.4900  0.0130 -1.7565
11005TIP3   OH254429   0.446   2.164   2.223 -0.2398  0.4109  0.2226
11005TIP3    H154430   0.495   2.172   2.141  0.4891 -1.9068  0.3623
11005TIP3    H254431   0.363   2.208   2.205 -0.8428 -1.5481 -2.4226
11006TIP3   OH254432   0.485   5.952  16.759 -0.1344 -0.1768 -0.2849
11006TIP3    H154433   0.414   5.925  16.817 -1.5746  1.1856 -1.3261
11006TIP3    H254434   0.480   5.892  16.685 -0.9240  0.5753 -0.8588
11007TIP3   OH254435   3.632   4.055  11.950  0.0596 -0.5377  0.0254
11007TIP3    H154436   3.578   4.050  11.871 -0.0184  0.5600 -0.0099
11007TIP3    H254437   3.569   4.051  12.022  0.2299 -2.9719  0.1099
11008TIP3   OH254438   0.228   0.733  13.031  1.0751  0.5962 -0.0329
11008TIP3    H154439   0.282   0.662  13.067 -0.9607 -0.9724  0.1374
11008TIP3    H254440   0.267   0.752  12.946  2.2689 -0.0098  0.3455
11009TIP3   OH254441   3.774   5.313  15.485  0.1588  0.3904 -0.7207
11009TIP3    H154442   3.767   5.392  15.432 -0.3628  1.8141  1.3384
11009TIP3    H254443   3.687   5.302  15.524  1.0692  0.7798  1.6065
11010TIP3   OH254444   5.761   0.992   5.069 -0.3523  0.6004 -0.2798
11010TIP3    H154445   5.762   0.983   4.974  0.1007  1.1474 -0.3337
11010TIP3    H254446   5.806   1.075   5.086 -0.5661  0.5871  0.4030
11011TIP3   OH254447   6.246   5.269  14.269 -0.1609 -0.6246  0.1499
11011TIP3    H154448   6.326   5.290  14.221 -0.8279 -1.5063 -1.4364
11011TIP3    H254449   6.187   5.341  14.250 -0.0608 -0.4160  0.5997
11012TIP3   OH254450   6.147   4.160  14.093  0.3674  0.3557 -0.0769
11012TIP3    H154451   6.204   4.191  14.023  1.3940  0.2210  0.6849
11012TIP3    H254452   6.189   4.081  14.125 -0.5902 -0.1058  0.0789
11013TIP3   OH254453   6.781   3.096  12.999 -0.4924  0.3500 -0.0723
11013TIP3    H154454   6.817   3.177  13.035  1.6053 -0.9736  1.0517
11013TIP3    H254455   6.729   3.059  13.070  0.4304 -0.3488  0.2686
11014TIP3   OH254456   1.564   3.643  16.317  0.4975 -0.2891  0.1465
11014TIP3    H154457   1.597   3.559  16.346 -0.7972 -1.0736 -0.5686
11014TIP3    H254458   1.627   3.674  16.252  1.2090 -0.4890  0.7377
11015TIP3   OH254459   0.060   0.349   0.978  0.1130 -0.2903 -0.3528
11015TIP3    H154460   0.060   0.396   0.894 -1.4735  2.3945  0.9985
11015TIP3    H254461   0.018   0.265   0.958 -0.3828  0.3466 -2.2360
11016TIP3   OH254462   6.394   6.480  12.247 -0.0679  0.2846 -0.1458
11016TIP3    H154463   6.377   6.545  12.180 -0.2138  1.6468  1.1657
11016TIP3    H254464   6.373   6.524  12.330 -0.4179 -1.5013  0.7701
11017TIP3   OH254465   3.884   0.399   6.564  0.6645 -0.4563  0.1605
11017TIP3    H154466   3.915   0.399   6.473  0.5328 -1.1315  0.1057
11017TIP3    H254467   3.839   0.315   6.573 -0.8945  0.3630  0.3337
11018TIP3   OH254468   2.760   3.765  14.392 -0.0360  0.5316  0.2248
11018TIP3    H154469   2.712   3.736  14.469 -1.8699 -0.6800 -1.2681
11018TIP3    H254470   2.835   3.705  14.388 -0.5451 -0.1447  0.4677
11019TIP3   OH254471   4.855   4.583  16.480 -0.5392 -0.0466  0.1025
11019TIP3    H154472   4.815   4.667  16.502  0.0553  0.3568 -0.3034
11019TIP3    H254473   4.794   4.544  16.417  0.0410  0.9079 -1.1128
11020TIP3   OH254474   2.416   6.296  16.236 -0.1131 -0.3483  0.6568
11020TIP3    H154475   2.341   6.357  16.233 -0.2562 -0.5376  0.4244
11020TIP3    H254476   2.458   6.315  16.320  0.1965  0.4881  0.3250
11021TIP3   OH254477   0.681   3.393  11.119  0.4110  0.0795 -0.3978
11021TIP3    H154478   0.704   3.445  11.042  0.8991  0.9202  0.2858
11021TIP3    H254479   0.727   3.310  11.107  0.7912  0.3493 -0.8343
11022TIP3   OH254480   4.832   3.625   1.455 -0.9383  0.2925 -0.0871
11022TIP3    H154481   4.918   3.655   1.424 -0.9387 -0.1561 -0.5534
11022TIP3    H254482   4.853   3.559   1.521 -0.9274  0.4480  0.0648
11023TIP3   OH254483   3.039   2.234  15.707  0.0216 -0.4164 -0.2970
11023TIP3    H154484   3.020   2.201  15.620 -0.3950 -0.6941 -0.1012
11023TIP3    H254485   3.111   2.180  15.739  0.4875 -0.0095 -0.6494
11024TIP3   OH254486   0.908   4.467   2.248 -0.3645  0.6964  0.0733
11024TIP3    H154487   0.823   4.479   2.205 -0.6927  0.4932  0.6503
11024TIP3    H254488   0.942   4.556   2.257 -0.2595  0.7398 -0.6496
11025TIP3   OH254489   3.435   2.319   1.922 -0.2217  0.3369  0.7839
11025TIP3    H154490   3.437   2.361   1.836 -0.2473  0.8895  1.0475
11025TIP3    H254491   3.348   2.280   1.928  0.6065 -1.9365 -0.4729
11026TIP3   OH254492   5.432   1.375  14.980  0.2431 -0.4153  0.1581
11026TIP3    H154493   5.451   1.379  15.073  1.8911  1.4989 -0.1964
11026TIP3    H254494   5.340   1.398  14.973  0.5250  1.1627  1.2114
11027TIP3   OH254495   5.226   6.267   0.479 -0.0261 -0.2772 -0.2435
11027TIP3    H154496   5.168   6.248   0.553 -0.0417  1.1979  0.1652
11027TIP3    H254497   5.184   6.341   0.435 -0.0501 -1.1849 -1.7882
11028TIP3   OH254498   5.252   3.963   1.782 -0.2673 -0.9263  0.7173
11028TIP3    H154499   5.304   4.032   1.740 -0.3545  0.0101  2.0929
11028TIP3    H254500   5.266   3.886   1.726  1.5249 -0.3588  0.2932
11029TIP3   OH254501   4.141   4.284   4.559 -0.4505 -0.0477 -0.0402
11029TIP3    H154502   4.090   4.260   4.481 -1.4101  0.8395  0.2830
11029TIP3    H254503   4.130   4.210   4.619 -1.4291  0.1354  0.0374
11030TIP3   OH254504   3.256   4.742  15.870 -0.5240  0.3616  0.1848
11030TIP3    H154505   3.252   4.746  15.774 -0.0766 -1.5790  0.0429
11030TIP3    H254506   3.174   4.783  15.899 -0.7841  0.7555 -1.0365
11031TIP3   OH254507   3.795   1.115  12.448  0.1125  0.2724 -0.3716
11031TIP3    H154508   3.828   1.036  12.492 -0.1257 -0.2866 -1.1682
11031TIP3    H254509   3.802   1.184  12.514 -0.9671 -0.6959  0.8161
11032TIP3   OH254510   0.527   3.307  12.718 -0.3571 -0.1224  0.5248
11032TIP3    H154511   0.503   3.399  12.707  2.0570  0.8018  2.1709
11032TIP3    H254512   0.478   3.261  12.649 -0.3544  2.6179 -1.4822
11033TIP3   OH254513   5.108   3.458  10.819 -0.2661 -0.3146  0.7453
11033TIP3    H154514   5.151   3.433  10.737  0.1181 -0.7719  1.0829
11033TIP3    H254515   5.119   3.553  10.823  0.0137 -0.3315  0.4300
11034TIP3   OH254516   4.134   5.826  12.201 -0.0378 -0.0829  0.6109
11034TIP3    H154517   4.217   5.870  12.186 -0.0034 -0.1805  0.5215
11034TIP3    H254518   4.100   5.866  12.282 -0.1463  0.3173  0.3702
11035TIP3   OH254519   6.024   6.674   4.966 -0.2156  0.0336  0.3429
11035TIP3    H154520   5.941   6.651   5.008 -0.1440 -1.1797 -0.1322
11035TIP3    H254521   6.057   6.591   4.932  1.6234  0.3639  1.2505
11036TIP3   OH254522   3.075   2.370   0.103 -0.5860  0.6347 -0.2482
11036TIP3    H154523   3.165   2.342   0.118 -0.3940  0.9481 -0.7798
11036TIP3    H254524   3.022   2.292   0.116 -0.2018  0.3705 -0.2680
11037TIP3   OH254525   3.878   6.353   3.650 -0.5065 -0.7636 -0.1768
11037TIP3    H154526   3.914   6.434   3.615  0.7579 -1.5073 -0.6352
11037TIP3    H254527   3.948   6.289   3.642 -1.4009 -1.8608  0.3934
11038TIP3   OH254528   0.242   3.113   5.467  0.4864  0.3045  0.0457
11038TIP3    H154529   0.323   3.110   5.517  0.9217 -1.1375 -0.6916
11038TIP3    H254530   0.182   3.164   5.522  1.1889 -0.5228  1.6570
11039TIP3   OH254531   0.932   0.257  15.104  0.4702  0.0644 -0.6850
11039TIP3    H154532   0.966   0.213  15.182 -1.3746 -1.0326 -0.4383
11039TIP3    H254533   0.837   0.260  15.118  0.0482 -0.4447 -3.0055
11040TIP3   OH254534   6.075   1.138   3.662 -0.0169  0.6428  0.0970
11040TIP3    H154535   5.990   1.104   3.690 -0.5024  0.7260 -1.1854
11040TIP3    H254536   6.138   1.094   3.718 -0.8966  0.6002  1.0971
11041TIP3   OH254537   0.966   3.973   2.613 -0.5178  0.0108 -0.2548
11041TIP3    H154538   0.921   3.935   2.689 -0.6455 -1.4706 -1.0329
11041TIP3    H254539   0.904   4.037   2.578 -1.5662 -1.1710 -0.6213
11042TIP3   OH254540   2.278   6.734   5.297  0.2530 -0.2618  0.2730
11042TIP3    H154541   2.268   6.824   5.328  0.7254 -0.0572 -0.1607
11042TIP3    H254542   2.196   6.716   5.250 -1.5456 -1.3842  3.5129
11043TIP3   OH254543   1.953   3.844  13.289 -0.2258  0.0434 -0.2536
11043TIP3    H154544   2.030   3.858  13.344  0.1595 -0.6096 -0.6018
11043TIP3    H254545   1.941   3.749  13.289 -1.2595  0.1617  0.0870
11044TIP3   OH254546   2.309   4.854   4.188  0.4997 -0.0313  0.8870
11044TIP3    H154547   2.367   4.817   4.254  2.6970  0.3367 -0.7291
11044TIP3    H254548   2.228   4.874   4.235  0.1005 -4.2821  2.4298
11045TIP3   OH254549   5.248   5.566  15.679  0.3430  0.3250 -0.2588
11045TIP3    H154550   5.238   5.532  15.589  1.7587 -0.0789 -0.2828
11045TIP3    H254551   5.335   5.605  15.680  0.5959 -0.2327  1.1220
11046TIP3   OH254552   3.230   2.787   0.064 -0.7470  0.3209 -0.5493
11046TIP3    H154553   3.253   2.802  -0.028  1.2388  0.6783 -0.0492
11046TIP3    H254554   3.278   2.854   0.112  0.1720 -1.2982  0.9328
11047TIP3   OH254555   4.622   3.882   5.253  0.3965 -0.2075  0.2148
11047TIP3    H154556   4.704   3.832   5.251  0.1941 -0.5288 -0.1117
11047TIP3    H254557   4.615   3.913   5.344  0.9138 -0.1179  0.2276
11048TIP3   OH254558   6.561   2.564   5.152  0.2918  0.3918 -0.0915
11048TIP3    H154559   6.490   2.590   5.209  0.4508 -1.0940  0.8460
11048TIP3    H254560   6.561   2.468   5.155  1.1992  0.3083 -1.4774
11049TIP3   OH254561   6.499   2.753   0.166 -0.0212  0.1524 -0.4412
11049TIP3    H154562   6.414   2.795   0.152  0.2573  0.8647 -0.0622
11049TIP3    H254563   6.527   2.783   0.253  1.2074  0.9810 -1.0941
11050TIP3   OH254564   4.270   4.841   4.157 -0.0694 -0.2829  0.4073
11050TIP3    H154565   4.237   4.850   4.068 -0.2758  1.3966  0.6261
11050TIP3    H254566   4.229   4.760   4.189  1.6571 -2.1089 -1.6694
11051TIP3   OH254567   6.503   4.670   1.051 -0.6228  0.4448  0.3188
11051TIP3    H154568   6.442   4.654   1.122 -0.6677 -1.6952 -0.1394
11051TIP3    H254569   6.569   4.602   1.060  0.5172  1.4051 -0.4752
11052TIP3   OH254570   4.049   1.173   4.345  0.1089 -0.2220  0.3470
11052TIP3    H154571   4.110   1.157   4.273 -0.4623  1.3215 -0.5239
11052TIP3    H254572   4.031   1.086   4.381  0.3559 -1.0394 -1.4082
11053TIP3   OH254573   1.857   5.837   4.188  0.4663  0.0139  0.9921
11053TIP3    H154574   1.885   5.893   4.116 -0.4971  0.4756  0.9647
11053TIP3    H254575   1.794   5.889   4.236  0.4307 -0.6243  1.6547
11054TIP3   OH254576   5.683   2.514  14.644  0.1368  0.3039 -0.1608
11054TIP3    H154577   5.752   2.575  14.671  1.0371 -0.5946 -0.3775
11054TIP3    H254578   5.602   2.559  14.667  0.7404  1.8886 -0.9125
11055TIP3   OH254579   2.841   6.316  13.809  0.2344 -0.0925 -0.1461
11055TIP3    H154580   2.863   6.309  13.902 -2.2768 -1.1756  0.4488
11055TIP3    H254581   2.912   6.270  13.764  2.0999  1.4400  1.0768
11056TIP3   OH254582   1.785   2.654   3.133 -0.0991  0.3816  1.1479
11056TIP3    H154583   1.702   2.611   3.153  0.0287 -1.6772 -1.9489
11056TIP3    H254584   1.761   2.727   3.076  0.1693 -0.4177 -0.0263
11057TIP3   OH254585   1.057   4.899  12.494 -0.1998 -0.0185 -0.0885
11057TIP3    H154586   1.112   4.821  12.484 -1.4321 -0.8283 -0.8916
11057TIP3    H254587   1.049   4.911  12.589  1.3592  0.1314  0.0375
11058TIP3   OH254588   4.686   4.190  13.490 -0.5953 -0.4835  0.2227
11058TIP3    H154589   4.748   4.157  13.554  0.5988 -1.5060 -1.3796
11058TIP3    H254590   4.601   4.185  13.534  0.4061  1.2572  2.5910
11059TIP3   OH254591   3.081   1.491   1.004 -0.2539  0.1377 -0.4362
11059TIP3    H154592   3.154   1.505   0.944  2.4889  0.2983  2.6976
11059TIP3    H254593   3.085   1.397   1.024 -0.3033  0.3168  0.4430
11060TIP3   OH254594   3.978   0.523  11.915  0.3640  0.0556  0.0231
11060TIP3    H154595   4.028   0.466  11.974 -0.0672  1.1386  1.5033
11060TIP3    H254596   4.032   0.602  11.907 -0.1883  0.4401  0.0305
11061TIP3   OH254597   4.839   5.993  13.135  0.2323  0.1119  0.4607
11061TIP3    H154598   4.905   6.041  13.085  0.2931  0.5880  0.9872
11061TIP3    H254599   4.820   5.916  13.082 -0.5913  1.2031 -0.8891
11062TIP3   OH254600   2.725   4.667  16.109  0.7952  0.0012 -0.2912
11062TIP3    H154601   2.734   4.760  16.127 -1.5887  0.0230  1.2022
11062TIP3    H254602   2.641   4.659  16.063  0.5550 -1.4829  0.3430
11063TIP3   OH254603   3.752   1.215   0.948  0.2076  0.2402 -0.4756
11063TIP3    H154604   3.719   1.272   0.878 -1.9159  1.1466  1.1666
11063TIP3    H254605   3.676   1.196   1.002  1.7167 -0.6491  1.4611
11064TIP3   OH254606   0.824   0.345   3.955  0.2257  0.1026  0.2993
11064TIP3    H154607   0.914   0.354   3.987 -0.0716 -1.5115  1.7563
11064TIP3    H254608   0.797   0.435   3.935  1.4971  0.8775  1.7668
11065TIP3   OH254609   3.576   2.344   3.591  0.3385  0.1763  0.6800
11065TIP3    H154610   3.580   2.283   3.665  0.0376 -1.1055 -0.3267
11065TIP3    H254611   3.628   2.419   3.620  2.5875 -1.4427  1.1391
11066TIP3   OH254612   3.333   4.567   3.717 -0.0326  0.8521  0.2649
11066TIP3    H154613   3.275   4.492   3.729  0.3275  0.6580  0.8463
11066TIP3    H254614   3.400   4.557   3.785  0.1425  1.5828  0.2120
11067TIP3   OH254615   0.046   0.819  14.199 -0.0489  0.0639  0.6430
11067TIP3    H154616   0.103   0.745  14.181 -0.5229 -0.0512 -0.4924
11067TIP3    H254617   0.089   0.894  14.158 -1.2211 -0.2285 -1.2694
11068TIP3   OH254618   6.449   0.748  15.461 -0.4922 -0.2024 -0.5220
11068TIP3    H154619   6.379   0.729  15.400 -0.0117  0.4714 -1.3079
11068TIP3    H254620   6.410   0.735  15.548 -1.0861 -1.5002 -0.9528
11069TIP3   OH254621   0.148   1.836   2.016 -0.0522  0.6877  0.1835
11069TIP3    H154622   0.188   1.749   2.012 -0.6452  0.4385 -2.7395
11069TIP3    H254623   0.222   1.897   2.007  0.2640  0.4656  1.2077
11070TIP3   OH254624   3.760   4.498   2.973 -0.1312 -0.0555 -0.0720
11070TIP3    H154625   3.794   4.483   3.061 -1.1132 -0.5187  0.2379
11070TIP3    H254626   3.753   4.593   2.966 -2.8890 -0.0398  1.4971
11071TIP3   OH254627   4.248   4.227   5.770 -0.2621  0.2306  0.2431
11071TIP3    H154628   4.302   4.150   5.788 -0.9499 -0.3602 -0.1681
11071TIP3    H254629   4.179   4.195   5.711  0.1946  1.4431 -0.9932
11072TIP3   OH254630   4.364   1.783   1.942  0.3892  0.0003  0.2607
11072TIP3    H154631   4.312   1.839   2.000 -1.2664 -0.0984 -1.0259
11072TIP3    H254632   4.422   1.844   1.896 -1.4407  0.7862 -1.1771
11073TIP3   OH254633   1.409   4.961   5.733  0.3523  0.0403  0.1829
11073TIP3    H154634   1.450   4.888   5.778 -2.7352 -0.6872  2.1537
11073TIP3    H254635   1.425   5.036   5.790  0.0162  0.0193  0.3050
11074TIP3   OH254636   1.006   5.163  12.384 -1.1153  0.0095  0.0618
11074TIP3    H154637   1.015   5.093  12.449 -1.6178  1.5346  1.8520
11074TIP3    H254638   1.060   5.234  12.418 -1.4256  0.8734 -1.1856
11075TIP3   OH254639   6.756   6.785   4.172  0.1153 -0.1371 -0.3404
11075TIP3    H154640   6.675   6.748   4.138  0.1338 -0.0674 -0.4615
11075TIP3    H254641   6.751   6.771   4.266  0.7536 -1.6809 -0.5121
11076TIP3   OH254642   5.139   1.932   4.290  0.0099  0.1344  0.1398
11076TIP3    H154643   5.056   1.972   4.316  0.2922  0.8437 -0.0372
11076TIP3    H254644   5.115   1.868   4.223 -0.3235  0.8687 -0.4625
11077TIP3   OH254645   6.728   4.626   1.725  0.2029 -0.3352 -0.5364
11077TIP3    H154646   6.662   4.571   1.768 -0.7440  0.2439 -1.1898
11077TIP3    H254647   6.772   4.672   1.797 -0.1895 -0.6412 -0.0927
11078TIP3   OH254648   6.645   4.144  13.766 -0.4094 -0.0618 -0.1474
11078TIP3    H154649   6.709   4.074  13.750 -0.6605 -0.3100 -0.0821
11078TIP3    H254650   6.662   4.209  13.698  1.2583  0.8498  1.0588
11079TIP3   OH254651   2.996   0.792  12.997  0.6096  0.0930 -0.2210
11079TIP3    H154652   2.940   0.763  12.924  1.5688 -1.4647 -0.3609
11079TIP3    H254653   2.946   0.863  13.038 -0.6716 -0.0792 -1.4136
11080TIP3   OH254654   4.088   3.124  11.377 -0.0415 -0.1343  0.0966
11080TIP3    H154655   4.140   3.046  11.396 -0.6362 -0.9278 -1.3387
11080TIP3    H254656   4.009   3.090  11.333 -0.4938  1.2393 -0.1971
11081TIP3   OH254657   2.051   3.143   2.375  0.3577 -0.6953  0.2071
11081TIP3    H154658   2.043   3.082   2.302  1.4282 -3.4703  2.2521
11081TIP3    H254659   2.145   3.160   2.382  0.3455 -1.0174  1.3428
11082TIP3   OH254660   2.394   4.495   1.073 -0.2859  0.7566 -0.0386
11082TIP3    H154661   2.340   4.492   0.994 -0.9793 -1.5778  0.4477
11082TIP3    H254662   2.456   4.423   1.063  0.2634  1.0431  1.1061
11083TIP3   OH254663   1.007   5.890   0.905 -0.1677 -0.0592  0.6842
11083TIP3    H154664   1.064   5.916   0.834 -1.6413 -2.0792 -1.3747
11083TIP3    H254665   0.938   5.956   0.906 -0.4540 -0.3289 -0.2086
11084TIP3   OH254666   4.606   0.075   4.507  0.1471 -0.2437 -0.4425
11084TIP3    H154667   4.570   0.065   4.595  0.1312  0.1357 -0.4053
11084TIP3    H254668   4.649  -0.008   4.490  0.1343 -0.3277 -0.0833
11085TIP3   OH254669   5.826   4.255   2.040  0.1097 -0.1701  0.1967
11085TIP3    H154670   5.864   4.203   1.970 -0.4639  0.0391 -0.2863
11085TIP3    H254671   5.771   4.194   2.089 -0.7433  0.0129 -0.5074
11086TIP3   OH254672   2.330   1.209  12.781 -0.1294  0.3010 -0.5580
11086TIP3    H154673   2.296   1.121  12.767 -1.0930  0.7048 -0.8560
11086TIP3    H254674   2.364   1.236  12.696  1.9001 -0.4625 -0.0516
11087TIP3   OH254675   6.172   2.617  11.620 -0.0748  0.2869 -0.1416
11087TIP3    H154676   6.164   2.677  11.545 -0.0542  1.7882  1.0164
11087TIP3    H254677   6.214   2.669  11.688  3.0606 -2.0108 -0.1027
11088TIP3   OH254678   3.452   4.773  15.219  0.4878 -0.4624 -0.1826
11088TIP3    H154679   3.445   4.698  15.161  2.4884 -0.3689 -0.6370
11088TIP3    H254680   3.495   4.739  15.298 -0.2943 -0.1661  0.3828
11089TIP3   OH254681   3.799   0.055   6.108 -0.4507  0.2560  0.0220
11089TIP3    H154682   3.881   0.070   6.154 -1.2341  0.0238  1.5674
11089TIP3    H254683   3.820   0.066   6.016  0.9595  1.8135  0.4907
11090TIP3   OH254684   5.538   3.363  10.783 -0.1570  0.0900 -0.1096
11090TIP3    H154685   5.450   3.332  10.762 -0.5676 -1.0117  2.7880
11090TIP3    H254686   5.529   3.458  10.794 -0.1745  0.5185 -3.1498
11091TIP3   OH254687   0.499   3.986  14.864  0.0445  0.5984 -0.3002
11091TIP3    H154688   0.549   3.924  14.810 -0.0189 -0.5363  0.8780
11091TIP3    H254689   0.562   4.054  14.887  1.0336 -0.6816  0.9537
11092TIP3   OH254690   4.615   6.044   3.959 -0.1469 -0.0251  0.4119
11092TIP3    H154691   4.615   6.037   3.863 -0.4402  0.0678  0.4043
11092TIP3    H254692   4.575   5.962   3.989  1.4460 -0.7873  0.5167
11093TIP3   OH254693   3.895   2.572   5.349  0.2887  0.6177  0.5794
11093TIP3    H154694   3.810   2.614   5.334  0.4821  0.3732 -1.3459
11093TIP3    H254695   3.924   2.607   5.434 -2.5837 -0.7719  2.2784
11094TIP3   OH254696   1.650   3.364  11.526 -0.5065 -0.1341  0.3501
11094TIP3    H154697   1.722   3.426  11.531 -0.3403 -0.2733 -0.2572
11094TIP3    H254698   1.674   3.293  11.586  0.0788 -0.3998 -0.1948
11095TIP3   OH254699   0.515   0.672  16.931 -0.7481  0.5256 -0.6894
11095TIP3    H154700   0.531   0.610  17.002  0.4119  0.4066 -1.0434
11095TIP3    H254701   0.422   0.696  16.940 -1.2990 -1.4704 -0.7314
11096TIP3   OH254702   0.374   4.255  13.631  0.3634  0.6559 -0.4714
11096TIP3    H154703   0.340   4.308  13.703  2.1638  2.7057 -1.0150
11096TIP3    H254704   0.364   4.310  13.554  0.1423 -0.7818 -1.5162
11097TIP3   OH254705   0.788   1.296  15.667 -0.7720 -0.1978  0.1316
11097TIP3    H154706   0.711   1.281  15.611 -0.1605  1.1476 -1.1219
11097TIP3    H254707   0.801   1.212  15.711 -0.8107 -1.6108 -2.3331
11098TIP3   OH254708   3.394   1.109  11.275 -0.3546  0.3001 -0.5854
11098TIP3    H154709   3.413   1.017  11.293 -0.0185  0.6150  0.7203
11098TIP3    H254710   3.364   1.145  11.358 -1.0328  1.2473 -1.2141
11099TIP3   OH254711   6.102   1.720  15.469  0.1001 -0.0405 -0.0036
11099TIP3    H154712   6.068   1.631  15.470  0.0387 -0.0429  2.6793
11099TIP3    H254713   6.197   1.709  15.476  0.1467  0.1113 -0.3630
11100TIP3   OH254714   1.543   2.157   2.801  0.3929  0.2994 -0.7735
11100TIP3    H154715   1.558   2.121   2.888 -1.4078 -3.2806 -1.7472
11100TIP3    H254716   1.456   2.197   2.805  0.9002  1.4399 -0.6312
11101TIP3   OH254717   0.351   5.315  12.724 -0.2114 -0.4050  0.2753
11101TIP3    H154718   0.301   5.234  12.735 -0.3970 -0.4890 -0.9904
11101TIP3    H254719   0.380   5.312  12.633  1.6199 -0.0738  0.8143
11102TIP3   OH254720   0.185   6.509  11.422  0.1081  0.0914 -0.2271
11102TIP3    H154721   0.207   6.508  11.329 -1.2615  0.0803 -0.5724
11102TIP3    H254722   0.228   6.432  11.459 -0.4496 -0.6689 -1.1319
11103TIP3   OH254723   4.677   5.406  16.598  0.1934 -0.5921 -0.6877
11103TIP3    H154724   4.582   5.406  16.593  0.2325  0.0897 -2.2812
11103TIP3    H254725   4.698   5.465  16.670 -0.5891 -0.8857 -0.2182
11104TIP3   OH254726   2.053   1.315   1.356 -0.2794 -0.3185 -0.4124
11104TIP3    H154727   2.138   1.317   1.400 -1.6046  1.1578  2.3656
11104TIP3    H254728   2.048   1.400   1.311 -0.3681 -0.2874 -0.3451
11105TIP3   OH254729   2.882   1.418   4.156 -0.2531 -0.0286  0.3210
11105TIP3    H154730   2.952   1.358   4.180  0.9765  0.7693 -1.0909
11105TIP3    H254731   2.838   1.375   4.082  0.5188  0.6896 -0.5784
11106TIP3   OH254732   5.026   5.763   2.792 -0.8113  0.2696  0.2329
11106TIP3    H154733   5.116   5.761   2.824 -0.7872 -1.2551  0.1670
11106TIP3    H254734   5.032   5.728   2.703 -1.7134 -1.9670  0.9870
11107TIP3   OH254735   6.639   4.454  16.364 -0.1007  0.1943 -0.3529
11107TIP3    H154736   6.591   4.509  16.302  1.3894  1.4390 -0.4864
11107TIP3    H254737   6.654   4.511  16.439 -3.5118 -1.8199  2.1326
11108TIP3   OH254738   5.852   3.169   3.534 -0.1807 -0.0833 -0.0261
11108TIP3    H154739   5.870   3.195   3.443 -0.3518  1.5190  0.3712
11108TIP3    H254740   5.922   3.209   3.584 -0.6892 -0.0576  0.6730
11109TIP3   OH254741   4.078   5.988  16.703  0.3597 -0.0601  0.7636
11109TIP3    H154742   4.053   5.917  16.762  1.2590 -0.1922  0.9960
11109TIP3    H254743   4.129   5.945  16.634 -0.0062  0.2087  0.3143
11110TIP3   OH254744   4.728   2.493  13.482 -0.6989 -0.3832  0.2877
11110TIP3    H154745   4.706   2.494  13.389  0.3098 -0.6217  0.0386
11110TIP3    H254746   4.818   2.525  13.486 -0.6146 -0.7001  1.1550
11111TIP3   OH254747   5.826   1.233  13.380 -0.1189  0.4664 -0.1341
11111TIP3    H154748   5.919   1.214  13.387  0.4114  2.6380 -0.4809
11111TIP3    H254749   5.792   1.220  13.469  1.5652  4.1429  1.2822
11112TIP3   OH254750   5.930   0.170   1.436  0.4571  0.0237  0.4599
11112TIP3    H154751   5.937   0.154   1.341 -0.2528 -2.6615  0.7818
11112TIP3    H254752   5.838   0.193   1.450  1.1794  3.8832  0.1999
11113TIP3   OH254753   1.551   5.827   1.704  0.7319 -0.6467 -0.3055
11113TIP3    H154754   1.640   5.798   1.684  0.2807 -2.0768 -0.4067
11113TIP3    H254755   1.499   5.746   1.701 -0.4570  0.0646  0.3643
11114TIP3   OH254756   1.950   0.278   4.294  0.2091  0.5409  0.2163
11114TIP3    H154757   1.868   0.317   4.324  0.0018  1.4262 -1.3814
11114TIP3    H254758   1.929   0.187   4.276  0.7498 -0.5576  4.2137
11115TIP3   OH254759   6.120   6.638   4.094  0.6163 -0.8639 -0.2551
11115TIP3    H154760   6.099   6.712   4.152  1.5469 -1.2907  0.6582
11115TIP3    H254761   6.044   6.580   4.103  0.1960 -0.3562 -0.4328
11116TIP3   OH254762   2.510   4.700   3.268  0.2889 -0.1970 -0.6340
11116TIP3    H154763   2.553   4.723   3.186 -1.1774 -1.4983 -1.8445
11116TIP3    H254764   2.418   4.689   3.244 -0.3371  0.2175  1.3766
11117TIP3   OH254765   3.640   1.274  14.828 -0.6827  0.6957 -0.3051
11117TIP3    H154766   3.666   1.362  14.857 -0.0725  0.5722 -0.4848
11117TIP3    H254767   3.717   1.220  14.842 -0.1964  0.7019 -2.5040
11118TIP3   OH254768   1.900   3.016  13.928  0.1801  0.2572 -0.2995
11118TIP3    H154769   1.819   3.059  13.901 -0.4449 -1.7785 -2.0287
11118TIP3    H254770   1.949   3.004  13.846  0.7745 -1.2795  0.2374
11119TIP3   OH254771   2.250   5.150   4.462  0.2023  0.2042  0.4367
11119TIP3    H154772   2.257   5.239   4.495  1.5605  0.2639  0.0526
11119TIP3    H254773   2.158   5.140   4.440  0.1479  1.7710 -0.2091
11120TIP3   OH254774   3.394   4.048  15.540  0.4750  0.5015  0.3505
11120TIP3    H154775   3.460   4.093  15.487  0.1244  1.1723  0.4635
11120TIP3    H254776   3.333   4.118  15.566 -1.6208 -0.4217 -1.7151
11121TIP3   OH254777   5.596   3.297  14.669  0.1288 -0.1912 -0.2782
11121TIP3    H154778   5.523   3.268  14.725  0.1404 -1.7178 -0.9953
11121TIP3    H254779   5.595   3.392  14.676 -1.5633 -0.2046  0.2050
11122TIP3   OH254780   0.713   3.661  13.485  0.3817  0.5618 -0.0765
11122TIP3    H154781   0.700   3.670  13.390  1.3890  1.8398 -0.1214
11122TIP3    H254782   0.808   3.659  13.496  0.2895 -1.7069  0.7655
11123TIP3   OH254783   5.131   1.343   3.600  0.1495 -0.4517 -0.4224
11123TIP3    H154784   5.152   1.343   3.507 -1.7258 -1.1995 -0.8916
11123TIP3    H254785   5.048   1.391   3.606  0.6349  0.2803  0.9877
11124TIP3   OH254786   4.405   2.163  12.750 -0.3131  0.3690  0.1816
11124TIP3    H154787   4.466   2.222  12.795  2.1740 -1.5161 -0.5193
11124TIP3    H254788   4.374   2.214  12.675 -1.1243  2.0153  1.5572
11125TIP3   OH254789   1.550   5.778  13.671  0.2034  0.4663  0.7034
11125TIP3    H154790   1.500   5.765  13.591  1.0352 -1.3951  0.4282
11125TIP3    H254791   1.522   5.863  13.704 -2.9521 -0.3704  0.4716
11126TIP3   OH254792   1.272   2.439   0.766  0.2394 -0.0530 -0.1025
11126TIP3    H154793   1.316   2.495   0.830 -0.2940  2.2460 -1.5781
11126TIP3    H254794   1.214   2.384   0.817  0.7591  0.7936  1.4734
11127TIP3   OH254795   5.588   3.769  15.165  0.2866  0.7746 -0.0988
11127TIP3    H154796   5.555   3.791  15.253  0.4634 -2.7830  0.9888
11127TIP3    H254797   5.631   3.849  15.136 -2.5257  3.1513  1.6383
11128TIP3   OH254798   1.206   4.156  14.966 -0.0319  0.0471  0.0756
11128TIP3    H154799   1.116   4.184  14.954  0.3229  1.5422  0.6424
11128TIP3    H254800   1.251   4.234  14.999  1.3873 -0.7655  0.1448
11129TIP3   OH254801   2.543   4.408  14.974 -0.0675  0.3085  0.1376
11129TIP3    H154802   2.626   4.437  15.012 -0.5994  1.7798  0.2239
11129TIP3    H254803   2.483   4.403  15.048 -0.5727  1.1879 -0.2065
11130TIP3   OH254804   0.178   4.320   1.493  0.1268 -0.3612  0.6313
11130TIP3    H154805   0.219   4.348   1.575 -0.1349  0.1882  0.5737
11130TIP3    H254806   0.084   4.333   1.508  0.0692 -0.3859  0.2902
11131TIP3   OH254807   3.351   2.639   4.424  0.0460 -0.4368  0.1466
11131TIP3    H154808   3.306   2.686   4.494  0.0433 -0.2152 -0.0044
11131TIP3    H254809   3.378   2.707   4.362 -1.7674 -0.7903 -1.1249
11132TIP3   OH254810   5.649   0.113   1.495  0.2499 -0.1697 -1.0663
11132TIP3    H154811   5.604   0.030   1.513  0.5301 -0.1579 -0.2666
11132TIP3    H254812   5.579   0.176   1.485  0.0691 -0.2703 -0.4457
11133TIP3   OH254813   0.246   1.794   4.787 -0.7163 -0.5586 -0.1309
11133TIP3    H154814   0.288   1.805   4.873  0.7474  0.7064 -0.9405
11133TIP3    H254815   0.161   1.837   4.796  0.6482  2.3675 -0.1216
11134TIP3   OH254816   4.718   4.144   0.919 -0.1773 -0.3086  0.0370
11134TIP3    H154817   4.693   4.059   0.884 -0.4198 -0.0121 -0.5449
11134TIP3    H254818   4.638   4.197   0.913  0.6583  0.8588 -2.4737
11135TIP3   OH254819   1.982   3.588  16.516 -0.0294 -0.7582  0.3532
11135TIP3    H154820   1.950   3.564  16.603 -2.0700  1.0669  0.1788
11135TIP3    H254821   1.933   3.532  16.456  0.5687 -1.2371  0.3024
11136TIP3   OH254822   1.847   1.335  10.700  0.0277  0.3086  0.3588
11136TIP3    H154823   1.769   1.282  10.717 -0.1885  1.1777  2.4299
11136TIP3    H254824   1.908   1.276  10.656 -1.5131 -0.5837 -0.6900
11137TIP3   OH254825   1.498   3.313   3.672  0.4639  0.0539 -0.4561
11137TIP3    H154826   1.557   3.308   3.597 -0.5449 -0.1274 -1.2688
11137TIP3    H254827   1.497   3.406   3.696  0.7953  0.1144 -0.6706
11138TIP3   OH254828   6.127   1.222   4.532  0.4795  0.2007  0.1667
11138TIP3    H154829   6.220   1.227   4.552  0.7422 -0.0985 -0.9119
11138TIP3    H254830   6.083   1.244   4.614  1.4944 -0.3265  0.8717
11139TIP3   OH254831   0.204   4.908   2.658 -0.5002  0.1174  0.0408
11139TIP3    H154832   0.254   4.990   2.657 -0.6709  0.2138 -0.4487
11139TIP3    H254833   0.150   4.915   2.737  0.1165  0.0918  0.4733
11140TIP3   OH254834   0.449   0.220   0.886  0.5297 -0.3115  0.9472
11140TIP3    H154835   0.526   0.269   0.857  0.3261  0.0386  0.9911
11140TIP3    H254836   0.430   0.254   0.973 -0.8269  1.0142  0.1904
11141TIP3   OH254837   2.023   4.305  14.810 -0.2897  0.1487 -0.5805
11141TIP3    H154838   2.072   4.233  14.768  2.0463  0.7684  0.8982
11141TIP3    H254839   2.020   4.281  14.902 -0.8006  1.2516 -0.2959
11142TIP3   OH254840   6.184   2.311   1.153 -0.9012 -0.2650 -0.3322
11142TIP3    H154841   6.103   2.306   1.204 -0.9772 -0.1411 -0.4413
11142TIP3    H254842   6.249   2.266   1.207 -1.0379 -0.3470 -0.2349
11143TIP3   OH254843   3.062   4.743   1.205  0.3765  0.2698 -0.1287
11143TIP3    H154844   3.104   4.787   1.278 -1.5264  2.1693 -0.0922
11143TIP3    H254845   3.058   4.809   1.136 -0.5263 -0.5534 -0.8904
11144TIP3   OH254846   1.888   4.057  14.195  0.3158 -0.3814 -0.1290
11144TIP3    H154847   1.955   4.116  14.228  0.4531  0.3924 -1.6689
11144TIP3    H254848   1.934   3.998  14.135 -0.1855 -0.5716 -0.3401
11145TIP3   OH254849   3.353   4.768  14.543 -0.4901  0.1115 -0.3469
11145TIP3    H154850   3.259   4.773  14.525 -0.3324  0.6275 -1.0738
11145TIP3    H254851   3.363   4.816  14.625 -0.7059  1.1243 -0.8938
11146TIP3   OH254852   2.024   3.153   5.835  0.0679  0.0038 -0.1076
11146TIP3    H154853   2.112   3.132   5.867  0.2691  1.1454  0.1428
11146TIP3    H254854   1.977   3.182   5.913 -0.5223 -0.5438 -0.2550
11147TIP3   OH254855   4.770   3.323  12.418  0.3067  0.1642 -0.6685
11147TIP3    H154856   4.741   3.239  12.455  2.3040 -0.5958 -0.7013
11147TIP3    H254857   4.718   3.332  12.337 -0.7100 -0.4833 -0.1147
11148TIP3   OH254858   0.024   6.579   6.352 -0.3281 -0.1362 -0.2024
11148TIP3    H154859   0.070   6.626   6.422 -2.2964  1.2885  0.2078
11148TIP3    H254860   0.094   6.537   6.302  1.2096 -0.3999  2.0331
11149TIP3   OH254861   4.682   1.936  12.349  0.1592 -0.5667 -0.2074
11149TIP3    H154862   4.623   1.932  12.424 -1.5134 -1.2043 -1.4792
11149TIP3    H254863   4.623   1.950  12.274  1.7624  0.0703 -1.3961
11150TIP3   OH254864   4.290   5.128   2.548 -0.2732  0.4197  0.2102
11150TIP3    H154865   4.364   5.156   2.602  0.9406 -0.7811 -0.7612
11150TIP3    H254866   4.261   5.046   2.587  0.2334 -0.1519 -0.5894
11151TIP3   OH254867   2.326   6.132   4.435  1.0324  0.3123 -0.6688
11151TIP3    H154868   2.315   6.107   4.344 -1.0590  0.7325 -0.5707
11151TIP3    H254869   2.338   6.049   4.482 -1.4791 -0.2644 -0.9078
11152TIP3   OH254870   0.521   1.320   1.371  0.1668 -0.0273 -0.1577
11152TIP3    H154871   0.495   1.360   1.454  1.5524 -1.4829  1.0342
11152TIP3    H254872   0.473   1.370   1.305 -2.4191  0.0125  1.5911
11153TIP3   OH254873   0.679   5.787  13.930 -0.4764 -0.6265 -0.6594
11153TIP3    H154874   0.643   5.775  14.017 -0.4556  0.0222 -0.5568
11153TIP3    H254875   0.672   5.881  13.913  1.3133 -0.4390 -0.5706
11154TIP3   OH254876   0.919   1.260  12.880 -0.4628 -0.1988 -0.3731
11154TIP3    H154877   0.841   1.239  12.931 -0.2915  0.1301  0.0319
11154TIP3    H254878   0.887   1.274  12.791 -0.9240  0.3858 -0.1145
11155TIP3   OH254879   5.880   2.691   2.330 -0.1828  0.3253  0.7062
11155TIP3    H154880   5.863   2.611   2.280 -0.3421  0.9424 -0.2582
11155TIP3    H254881   5.974   2.703   2.324 -0.3044  0.8863 -0.2358
11156TIP3   OH254882   2.262   3.009  15.951  0.1605  0.1749  0.1401
11156TIP3    H154883   2.232   3.099  15.965  0.5454  0.4370 -0.6870
11156TIP3    H254884   2.182   2.956  15.960 -0.0468  0.5777  0.7560
11157TIP3   OH254885   0.842   5.203  11.730  0.7658 -0.3764 -0.1338
11157TIP3    H154886   0.853   5.219  11.636 -2.3057  1.5300 -0.3036
11157TIP3    H254887   0.759   5.157  11.737  0.4845  0.3340  1.7014
11158TIP3   OH254888   6.075   1.544   1.824  0.1505  0.0085 -0.0677
11158TIP3    H154889   6.162   1.569   1.853  0.5208 -0.5303 -0.6915
11158TIP3    H254890   6.038   1.494   1.896  0.6234 -0.3544 -0.0746
11159TIP3   OH254891   5.166   0.424   4.111  0.8063 -0.6918 -0.2395
11159TIP3    H154892   5.104   0.362   4.071  1.5310 -1.8252  0.3256
11159TIP3    H254893   5.115   0.503   4.125 -0.6511 -1.7204  0.5729
11160TIP3   OH254894   5.557   4.575   4.039  0.1691  0.7458 -0.1999
11160TIP3    H154895   5.616   4.640   4.000 -0.4366  1.2712 -0.2639
11160TIP3    H254896   5.608   4.536   4.110  0.7577  0.8517 -0.5578
11161TIP3   OH254897   4.440   3.247  15.152  0.7238 -0.0298  0.1782
11161TIP3    H154898   4.473   3.299  15.225  0.0352  0.6369  0.0358
11161TIP3    H254899   4.362   3.203  15.187 -0.0149  0.8373 -0.3282
11162TIP3   OH254900   4.171   2.418  11.928 -0.2102  0.5830  0.0972
11162TIP3    H154901   4.152   2.338  11.877  0.4973  1.1273 -1.0622
11162TIP3    H254902   4.106   2.481  11.897 -1.2443  0.2716  1.5422
11163TIP3   OH254903   4.156   4.918   3.919  0.0052 -0.0607  0.0040
11163TIP3    H154904   4.228   4.941   3.861 -0.4519  0.5963 -0.3070
11163TIP3    H254905   4.079   4.959   3.881 -0.5694 -0.8478  0.2651
11164TIP3   OH254906   1.605   4.122  16.267  0.5165  0.3269  0.2161
11164TIP3    H154907   1.616   4.209  16.305 -1.5107  1.0334 -0.6923
11164TIP3    H254908   1.682   4.073  16.296  1.8962  2.5215  0.4355
11165TIP3   OH254909   2.022   2.417  12.231 -0.0883 -0.2859 -0.0903
11165TIP3    H154910   1.933   2.452  12.237 -0.4965 -1.1666 -0.8674
11165TIP3    H254911   2.058   2.457  12.152  0.8926  1.5165  1.1813
11166TIP3   OH254912   2.307   5.141   1.807 -0.4446 -1.0932  0.1258
11166TIP3    H154913   2.338   5.101   1.725  2.0173  0.4123  0.2008
11166TIP3    H254914   2.300   5.068   1.868 -0.7607 -2.0235 -0.9910
11167TIP3   OH254915   6.477   5.679  11.973 -0.2843 -0.0920 -0.7686
11167TIP3    H154916   6.557   5.704  12.018 -0.3780  2.4846 -1.8595
11167TIP3    H254917   6.411   5.675  12.042  0.1817  0.7739 -0.2586
11168TIP3   OH254918   0.766   0.752  14.188 -0.0875 -0.3260  0.0980
11168TIP3    H154919   0.784   0.826  14.130 -2.2248 -1.1064 -1.6950
11168TIP3    H254920   0.815   0.679  14.150  0.8416 -0.2113  1.0190
11169TIP3   OH254921   1.894   1.946   5.215  0.1418 -0.3346  0.3279
11169TIP3    H154922   1.925   1.995   5.138 -2.1824  1.2423  0.2720
11169TIP3    H254923   1.956   1.968   5.284 -0.6291  2.6342  0.2253
11170TIP3   OH254924   2.970   3.709  16.765  0.0833 -0.0094  0.1695
11170TIP3    H154925   3.003   3.745  16.848  0.3134 -0.0207  0.0835
11170TIP3    H254926   2.952   3.786  16.711 -0.6566  0.0207  0.4528
11171TIP3   OH254927   1.302   5.639  15.495 -0.2345 -0.5548 -0.2458
11171TIP3    H154928   1.302   5.689  15.577 -1.1536 -2.1187  0.7625
11171TIP3    H254929   1.333   5.701  15.429  1.3319  0.5202  1.4132
11172TIP3   OH254930   5.418   5.306  13.900 -0.1047 -0.3303  0.2709
11172TIP3    H154931   5.426   5.390  13.855 -2.1367 -0.4562 -0.4512
11172TIP3    H254932   5.368   5.326  13.979  2.3520 -0.3298  1.9101
11173TIP3   OH254933   4.109   6.073   1.566 -0.2482 -0.2726  0.0061
11173TIP3    H154934   4.075   5.986   1.589 -0.3558 -0.1765  0.2173
11173TIP3    H254935   4.030   6.127   1.555 -0.2237 -0.4601 -1.1950
11174TIP3   OH254936   2.037   2.326  15.799  0.0295 -0.4140 -0.0985
11174TIP3    H154937   2.021   2.246  15.849 -1.7687 -0.7192 -1.0879
11174TIP3    H254938   2.118   2.309  15.750  0.7897 -0.8046  1.2480
11175TIP3   OH254939   4.912   3.453   5.889 -0.4671 -0.1141 -0.4851
11175TIP3    H154940   4.889   3.475   5.979  1.6118 -0.1010  0.0951
11175TIP3    H254941   4.885   3.362   5.879 -1.0534 -0.0033  0.0124
11176TIP3   OH254942   1.433   0.123   1.996 -0.0374  0.3281  0.0922
11176TIP3    H154943   1.499   0.172   1.947 -0.5223  0.9795  0.0749
11176TIP3    H254944   1.354   0.177   1.990 -0.3087  0.0359  0.9296
11177TIP3   OH254945   1.494   6.326   4.029  0.0974  0.1329 -0.1394
11177TIP3    H154946   1.519   6.254   3.971  1.0543 -0.5532  1.0705
11177TIP3    H254947   1.401   6.313   4.045 -0.2006  0.3831 -1.5695
11178TIP3   OH254948   0.598   4.607  12.382  0.2837 -0.3856  0.2406
11178TIP3    H154949   0.613   4.524  12.336 -0.0799 -0.2130 -0.2089
11178TIP3    H254950   0.667   4.611  12.448 -0.8309 -1.9610  1.5857
11179TIP3   OH254951   2.965   4.513  14.902  0.1109 -0.2242 -0.5863
11179TIP3    H154952   2.971   4.539  14.994 -1.7317 -1.4615 -0.0755
11179TIP3    H254953   3.044   4.550  14.862  0.5952  0.9490  1.3239
11180TIP3   OH254954   5.895   6.278  15.160 -0.5319  0.1022 -0.5231
11180TIP3    H154955   5.824   6.216  15.146 -1.3119  0.6119  1.0172
11180TIP3    H254956   5.856   6.364  15.144 -0.3934  0.4131  0.7250
11181TIP3   OH254957   6.396   3.564   5.745 -0.3470  0.1862 -0.4004
11181TIP3    H154958   6.353   3.485   5.710 -1.6502  0.0027  1.4747
11181TIP3    H254959   6.472   3.531   5.792 -1.8777 -0.2416  1.9455
11182TIP3   OH254960   4.392   0.900   3.128 -0.6260  0.2481 -0.3132
11182TIP3    H154961   4.364   0.810   3.113  3.5346 -1.2905 -0.1462
11182TIP3    H254962   4.353   0.949   3.056 -3.9412 -1.3431  0.2258
11183TIP3   OH254963   3.297   5.227   3.231  0.0142  0.5914  0.5555
11183TIP3    H154964   3.215   5.193   3.194 -0.9046  1.1043  2.0221
11183TIP3    H254965   3.364   5.202   3.168 -0.8195 -2.5417  0.7554
11184TIP3   OH254966   6.108   0.608   0.619 -0.4499  0.1632  0.2109
11184TIP3    H154967   6.102   0.582   0.527 -0.0044 -1.8033  0.6792
11184TIP3    H254968   6.201   0.626   0.632 -0.8653  3.1684 -0.3323
11185TIP3   OH254969   3.397   2.199   4.052  0.2717 -1.1921 -0.2074
11185TIP3    H154970   3.320   2.221   3.999  3.5273  2.6469 -4.2312
11185TIP3    H254971   3.396   2.263   4.124 -0.2289 -1.0278 -0.3603
11186TIP3   OH254972   3.252   0.061  10.586 -0.2768  0.0434 -0.0410
11186TIP3    H154973   3.239   0.012  10.505  0.8415 -0.1463 -0.1118
11186TIP3    H254974   3.335   0.107  10.574 -0.8179  1.1732  0.4211
11187TIP3   OH254975   0.949   2.113  16.162 -0.5224  0.3658 -0.2246
11187TIP3    H154976   0.995   2.110  16.247  0.4929  0.1040 -0.7641
11187TIP3    H254977   1.014   2.082  16.099 -0.9889  1.3820 -1.2277
11188TIP3   OH254978   6.144   2.559  13.860 -0.6529  0.2529  0.5454
11188TIP3    H154979   6.079   2.598  13.800 -0.1230  0.5789  0.1783
11188TIP3    H254980   6.127   2.465  13.855 -0.5380  0.2641 -0.2121
11189TIP3   OH254981   4.087   3.620  16.415 -0.5703 -0.2071  0.2606
11189TIP3    H154982   4.164   3.586  16.370 -0.7047  1.4352 -1.3600
11189TIP3    H254983   4.112   3.623  16.507  0.0093 -2.9415  0.2586
11190TIP3   OH254984   0.182   2.882   1.626  0.1349  0.5028 -0.1593
11190TIP3    H154985   0.267   2.912   1.658 -0.1517  1.1944 -0.0421
11190TIP3    H254986   0.177   2.791   1.655  2.3485 -0.7523 -3.1443
11191TIP3   OH254987   6.170   5.465   2.216 -0.1749  0.5205 -0.2831
11191TIP3    H154988   6.081   5.434   2.197  1.0858 -4.0610 -0.0690
11191TIP3    H254989   6.194   5.517   2.140 -1.7409 -1.5329 -2.3242
11192TIP3   OH254990   2.372   3.841   5.747 -0.1351  0.0408  0.4930
11192TIP3    H154991   2.439   3.773   5.756 -0.4911 -0.3370  0.2457
11192TIP3    H254992   2.382   3.894   5.827  1.0849  0.5515  0.0378
11193TIP3   OH254993   4.583   5.680  11.336  0.3712  0.5180 -0.0715
11193TIP3    H154994   4.538   5.736  11.273 -0.4141 -0.0627 -0.0512
11193TIP3    H254995   4.674   5.707  11.332  0.0177  1.7665 -0.0840
11194TIP3   OH254996   5.700   4.802  16.651  0.8345  0.2077  0.5709
11194TIP3    H154997   5.694   4.824  16.744 -0.2860 -1.7906  1.0217
11194TIP3    H254998   5.758   4.725  16.648  0.6979  0.1259 -0.3665
11195TIP3   OH254999   3.491   1.894  16.311  0.1532  0.3224 -0.2999
11195TIP3    H155000   3.417   1.929  16.361 -0.4371 -0.4814 -0.5898
11195TIP3    H255001   3.560   1.961  16.320 -0.5310  0.9871  0.1418
11196TIP3   OH255002   5.159   5.036  15.463  0.2096 -0.8221  0.4432
11196TIP3    H155003   5.136   4.961  15.409  1.5877  1.0744 -3.0806
11196TIP3    H255004   5.098   5.105  15.437  2.3295  0.8085 -0.5066
11197TIP3   OH255005   0.615   1.877   4.592 -0.0657 -0.1979 -0.1927
11197TIP3    H155006   0.568   1.807   4.637  0.3582 -0.0024  0.5698
11197TIP3    H255007   0.549   1.945   4.579  0.2311  0.5494  1.9005
11198TIP3   OH255008   2.396   2.962   5.753 -0.2288  0.3187 -0.0565
11198TIP3    H155009   2.436   2.881   5.721  3.1402  1.9056 -0.2688
11198TIP3    H255010   2.375   3.011   5.674  0.3140  0.7829  0.0845
11199TIP3   OH255011   0.116   1.389  16.898  0.0972  0.0107  0.3352
11199TIP3    H155012   0.145   1.298  16.903 -0.5491 -0.1993  0.3826
11199TIP3    H255013   0.071   1.395  16.814  0.9688  0.5423 -0.1065
11200TIP3   OH255014   0.045   2.076   3.154 -0.1830 -0.0910  0.1515
11200TIP3    H155015   0.018   2.168   3.143 -0.1301  0.0223  0.9350
11200TIP3    H255016  -0.027   2.026   3.115  0.7466  0.3058 -2.2023
11201TIP3   OH255017   5.033   1.792  11.953  0.1322  0.1741  0.2613
11201TIP3    H155018   5.048   1.701  11.928 -2.2396 -0.4420  0.7713
11201TIP3    H255019   5.023   1.789  12.048  0.2245  0.9992  0.2972
11202TIP3   OH255020   6.494   3.324   5.453 -0.7405 -0.6094 -0.2099
11202TIP3    H155021   6.404   3.325   5.421 -1.4763  1.2638  1.6499
11202TIP3    H255022   6.547   3.297   5.378 -2.7151 -0.3906 -1.7492
11203TIP3   OH255023   2.835   6.129  15.806  0.1118  0.0877 -0.4580
11203TIP3    H155024   2.767   6.113  15.871  1.2516  1.1950  1.0662
11203TIP3    H255025   2.801   6.089  15.726 -0.2041 -3.7791  1.3705
11204TIP3   OH255026   0.715   3.668  14.260  0.4862  0.3371 -0.2578
11204TIP3    H155027   0.810   3.676  14.251  0.5087  0.2650 -0.0831
11204TIP3    H255028   0.702   3.581  14.298  0.3081  0.0192 -1.0280
11205TIP3   OH255029   5.037   0.139  10.890 -0.0757 -0.1779 -0.1310
11205TIP3    H155030   5.014   0.140  10.797 -1.0660 -1.7786  0.0541
11205TIP3    H255031   5.129   0.113  10.892 -0.3696 -1.3101 -0.6341
11206TIP3   OH255032   3.586   0.760  11.630 -0.2832  0.0959 -0.3831
11206TIP3    H155033   3.670   0.722  11.658  0.5380  3.4741  2.5133
11206TIP3    H255034   3.610   0.822  11.561 -0.3570  0.7979  0.1971
11207TIP3   OH255035   6.410   2.120   5.907 -0.3897 -0.0633 -0.2528
11207TIP3    H155036   6.444   2.210   5.904  1.2157 -0.5901  0.8095
11207TIP3    H255037   6.317   2.130   5.925  0.3266  1.4002  3.7283
11208TIP3   OH255038   5.255   6.013   2.901 -0.0492  0.1965 -0.1495
11208TIP3    H155039   5.295   5.926   2.898 -1.6594 -0.5834 -0.0673
11208TIP3    H255040   5.203   6.013   2.981 -0.6163  0.9821 -0.5034
11209TIP3   OH255041   1.056   5.846  16.906 -0.2938 -0.4642 -0.3279
11209TIP3    H155042   1.075   5.939  16.921 -0.8149 -0.1238 -1.5986
11209TIP3    H255043   0.992   5.846  16.834 -0.9294 -1.7808  0.2028
11210TIP3   OH255044   0.060   5.367   6.229  0.3022 -0.0462  0.0541
11210TIP3    H155045   0.114   5.295   6.262  0.6694  0.2264  0.0583
11210TIP3    H255046   0.005   5.392   6.304  0.5581  0.0352  0.2148
11211TIP3   OH255047   6.075   5.843  13.914 -0.1267  0.1896 -0.0845
11211TIP3    H155048   6.073   5.753  13.879 -2.6797 -0.1712  0.8126
11211TIP3    H255049   6.058   5.832  14.008 -0.2812  1.5959  0.0625
11212TIP3   OH255050   3.881   2.636  14.918  0.8459  0.7116  0.7706
11212TIP3    H155051   3.849   2.564  14.973  2.7779 -1.8058 -1.1339
11212TIP3    H255052   3.931   2.691  14.979 -0.4131  0.3077  2.2395
11213TIP3   OH255053   4.977   3.486   3.682 -0.0883 -0.8154 -0.1138
11213TIP3    H155054   5.057   3.455   3.725  0.8289 -0.2506 -1.3694
11213TIP3    H255055   4.992   3.579   3.668 -0.5249 -0.9098 -1.2842
11214TIP3   OH255056   3.483   3.173  13.533 -0.1114 -0.2437 -0.1764
11214TIP3    H155057   3.474   3.181  13.628  0.1602  0.1988 -0.1867
11214TIP3    H255058   3.421   3.236  13.497  1.0835  0.9227 -0.2671
11215TIP3   OH255059   5.115   1.954   2.530 -0.2749 -0.2018  0.3480
11215TIP3    H155060   5.043   2.016   2.538 -0.5800 -0.7463  2.1243
11215TIP3    H255061   5.103   1.915   2.443 -1.9189 -0.0227  0.4602
11216TIP3   OH255062   1.206   6.325   5.674  0.5804 -0.5032 -0.4916
11216TIP3    H155063   1.194   6.400   5.733 -0.7907 -0.2035 -1.1014
11216TIP3    H255064   1.294   6.336   5.638  0.3962  0.8474 -0.5881
11217TIP3   OH255065   1.640   3.594   1.947 -0.1077  0.4335  0.0715
11217TIP3    H155066   1.679   3.605   2.034 -0.6797  2.3287  0.1385
11217TIP3    H255067   1.587   3.515   1.955 -0.7515  0.9748  1.7072
11218TIP3   OH255068   4.729   0.823  15.451 -0.2433 -0.1040 -0.3791
11218TIP3    H155069   4.638   0.797  15.470 -1.0608  1.6764 -1.5302
11218TIP3    H255070   4.738   0.909  15.493  0.8464 -0.1776 -0.4515
11219TIP3   OH255071   5.402   6.573  13.146  0.3116  0.3000  0.0931
11219TIP3    H155072   5.380   6.661  13.116  1.0892  0.6774  0.5925
11219TIP3    H255073   5.452   6.587  13.226 -0.1460 -0.6245  0.5531
11220TIP3   OH255074   5.398   3.966  16.360  0.7839 -0.6788 -0.2728
11220TIP3    H155075   5.465   3.902  16.384  1.5730 -0.3783 -1.5725
11220TIP3    H255076   5.443   4.028  16.302 -0.5637 -0.3508 -1.0116
11221TIP3   OH255077   1.552   3.120  12.002 -0.3140  0.1669 -0.1930
11221TIP3    H155078   1.535   3.163  12.086 -0.5559  1.3191 -0.8115
11221TIP3    H255079   1.593   3.188  11.948  2.0322 -1.1827 -0.2799
11222TIP3   OH255080   4.065   0.491   1.538 -0.0588 -0.2054 -0.0325
11222TIP3    H155081   4.006   0.471   1.611  1.1518 -1.4185  0.6624
11222TIP3    H255082   4.151   0.495   1.578  0.1910  3.9454 -0.5910
11223TIP3   OH255083   1.136   4.936   5.137  0.0593  0.1533 -0.5170
11223TIP3    H155084   1.180   4.923   5.221 -1.1530 -1.6559 -0.1200
11223TIP3    H255085   1.207   4.954   5.075  1.1769 -0.7999  0.4473
11224TIP3   OH255086   0.386   0.024   0.349 -0.1892 -0.3823  0.4308
11224TIP3    H155087   0.356  -0.049   0.403  0.9842 -0.5479  0.8977
11224TIP3    H255088   0.479   0.032   0.369  0.6359 -1.3040 -2.5081
11225TIP3   OH255089   2.132   0.431  14.847  0.0129  0.3684  0.0277
11225TIP3    H155090   2.145   0.360  14.910 -0.8331 -0.9630 -1.2627
11225TIP3    H255091   2.218   0.442  14.805  0.6786  1.4849  1.5470
11226TIP3   OH255092   0.982   5.664   4.872 -0.4584  0.6557  0.3043
11226TIP3    H155093   1.046   5.676   4.801 -1.3498 -2.3308 -1.2089
11226TIP3    H255094   1.031   5.681   4.952  1.7190  0.3398 -0.8766
11227TIP3   OH255095   2.229   0.384  13.419  0.4424  0.4301 -0.2225
11227TIP3    H155096   2.296   0.442  13.383  0.4871  0.6381  0.1820
11227TIP3    H255097   2.213   0.419  13.507 -2.2320  2.1709 -1.2520
11228TIP3   OH255098   6.028   6.102  11.274 -0.5149  0.1753  0.2823
11228TIP3    H155099   6.110   6.064  11.305 -1.8250 -2.4758  0.8263
11228TIP3    H255100   6.047   6.134  11.186  1.3358  0.7002  0.8303
11229TIP3   OH255101   1.343   4.287  16.054  0.3864  0.5674 -0.1293
11229TIP3    H155102   1.309   4.230  16.123  1.4946  0.3143  0.2379
11229TIP3    H255103   1.271   4.346  16.033  0.3698  1.4076  2.0555
11230TIP3   OH255104   0.100   5.806  13.779 -0.4227 -0.2871 -0.8880
11230TIP3    H155105   0.087   5.720  13.740 -1.7323 -1.6574  2.2242
11230TIP3    H255106   0.013   5.831  13.812  0.1303  1.7789 -0.8544
11231TIP3   OH255107   4.759   3.610  13.292 -0.4632 -0.1168  0.4632
11231TIP3    H155108   4.696   3.679  13.314 -0.8344 -0.4872  0.5844
11231TIP3    H255109   4.817   3.605  13.368  1.2898  1.9292 -0.6421
11232TIP3   OH255110   2.482   2.421  15.512 -0.5953  0.5213  0.7609
11232TIP3    H155111   2.528   2.505  15.505 -0.0788  0.2135  0.3909
11232TIP3    H255112   2.416   2.423  15.443  0.1427  0.1853  0.0240
11233TIP3   OH255113   1.903   2.947   1.063  0.3537  0.4256  0.0351
11233TIP3    H155114   1.871   2.993   1.141  2.9410  1.0584  0.8357
11233TIP3    H255115   1.938   3.016   1.007 -0.7863 -0.1025 -1.3796
11234TIP3   OH255116   0.317   2.137  11.107 -0.1949 -0.4201 -0.3735
11234TIP3    H155117   0.408   2.163  11.122 -0.4042  0.1409 -0.0218
11234TIP3    H255118   0.307   2.054  11.153  0.7684 -1.7027 -2.3632
11235TIP3   OH255119   1.409   4.934  13.544 -0.1512 -0.6587 -0.2773
11235TIP3    H155120   1.342   4.986  13.589  0.4760  0.3682 -0.5098
11235TIP3    H255121   1.435   4.869  13.609 -1.5069 -1.2087 -0.2485
11236TIP3   OH255122   1.438   3.510   2.369 -0.7002  0.7022 -0.0349
11236TIP3    H155123   1.460   3.561   2.447  0.6153 -0.4650  0.3772
11236TIP3    H255124   1.516   3.515   2.314  0.2917 -2.4763  0.8962
11237TIP3   OH255125   3.159   1.192  11.161  0.5785 -0.4198 -0.2548
11237TIP3    H155126   3.117   1.141  11.229 -0.2986 -0.1909 -0.6064
11237TIP3    H255127   3.251   1.196  11.186 -0.0165  1.3262  2.0070
11238TIP3   OH255128   6.791   0.680   5.650 -0.3068  0.2512  0.2217
11238TIP3    H155129   6.843   0.756   5.626 -2.1711  1.1727 -1.1787
11238TIP3    H255130   6.826   0.653   5.735  0.8952  2.2112  0.4140
11239TIP3   OH255131   5.492   1.351   6.531 -0.2012 -0.2375 -0.3786
11239TIP3    H155132   5.425   1.378   6.594  0.8933 -0.2737  0.8592
11239TIP3    H255133   5.539   1.279   6.575  2.3236  1.4732 -0.0378
11240TIP3   OH255134   3.099   6.090  15.896 -0.4004  0.2200 -0.6732
11240TIP3    H155135   3.051   6.074  15.816  0.2542 -0.8230 -0.8814
11240TIP3    H255136   3.166   6.154  15.872  1.1770 -1.6398 -1.5646
11241TIP3   OH255137   5.344   5.151  10.685  0.0524  0.3555  0.5313
11241TIP3    H155138   5.326   5.079  10.625  0.2260  0.1230  0.7600
11241TIP3    H255139   5.311   5.121  10.770  0.2134  0.5032  0.6468
11242TIP3   OH255140   2.435   3.906  16.975  0.1939 -0.3401 -0.0558
11242TIP3    H155141   2.450   3.989  17.021  0.9947 -0.7406  0.4274
11242TIP3    H255142   2.423   3.931  16.884 -0.7191  0.4037  0.2552
11243TIP3   OH255143   0.276   4.138  16.928  0.1510 -0.3927  0.7605
11243TIP3    H155144   0.225   4.076  16.876 -0.0614 -1.4895  2.1808
11243TIP3    H255145   0.354   4.089  16.953  0.4669  0.2550  1.0639
11244TIP3   OH255146   1.815   4.583   1.417  0.7299  0.3228 -0.3260
11244TIP3    H155147   1.885   4.534   1.459 -0.6532 -0.5578  1.0807
11244TIP3    H255148   1.737   4.562   1.468 -0.8598  0.1122 -2.6846
11245TIP3   OH255149   2.075   3.617   0.225 -0.2650  0.1707  0.0185
11245TIP3    H155150   2.024   3.620   0.144  1.1314  0.9297 -0.8703
11245TIP3    H255151   2.165   3.633   0.197  0.4771 -1.0502  1.5474
11246TIP3   OH255152   5.140   6.133  14.866  0.4072  0.5632 -0.0590
11246TIP3    H155153   5.162   6.225  14.873 -1.0529  1.0158 -0.9378
11246TIP3    H255154   5.044   6.131  14.868  0.3971 -0.8622 -0.7696
11247TIP3   OH255155   3.902   2.407   0.949 -0.1227  0.0449  0.0056
11247TIP3    H155156   3.807   2.413   0.962 -0.1131  2.7663 -0.6675
11247TIP3    H255157   3.937   2.488   0.985  2.0041 -0.9720  0.3788
11248TIP3   OH255158   2.219   1.148  11.572  0.1795 -0.4374 -0.7554
11248TIP3    H155159   2.298   1.165  11.622 -0.3972  0.5973 -0.1531
11248TIP3    H255160   2.150   1.194  11.620 -0.9058 -1.8467 -0.9043
11249TIP3   OH255161   3.958   0.544   4.947 -0.1360  0.0254  0.2246
11249TIP3    H155162   4.002   0.478   5.001 -1.0667 -0.5870  0.2575
11249TIP3    H255163   3.868   0.544   4.978 -0.3129  0.8034 -0.2716
11250TIP3   OH255164   2.667   4.449   4.836 -0.4701  0.1121  0.8929
11250TIP3    H155165   2.641   4.400   4.757  0.9534 -1.3756  1.2904
11250TIP3    H255166   2.594   4.508   4.852 -1.3000 -0.3371 -0.8964
11251TIP3   OH255167   1.513   6.478   4.401  0.4150  0.1184 -0.5539
11251TIP3    H155168   1.564   6.526   4.336  0.1259 -1.2874 -1.8697
11251TIP3    H255169   1.424   6.514   4.392  0.6969  1.0463  0.2183
11252TIP3   OH255170   2.809   1.205  12.409 -0.1905  0.0907 -0.1017
11252TIP3    H155171   2.743   1.147  12.447  0.2751 -1.4613 -1.5237
11252TIP3    H255172   2.890   1.181  12.454  0.4626 -2.1044 -2.2168
11253TIP3   OH255173   1.663   2.252   0.425 -0.3207 -0.2043  0.1956
11253TIP3    H155174   1.614   2.317   0.475 -0.0417  0.2183 -0.0718
11253TIP3    H255175   1.682   2.295   0.342  0.0322 -0.5615  0.0864
11254TIP3   OH255176   6.263   3.036  11.456 -0.2873  0.1733  0.0207
11254TIP3    H155177   6.348   3.069  11.427 -0.1751  0.7758  0.9812
11254TIP3    H255178   6.200   3.101  11.423 -0.3675 -0.2134 -0.5940
11255TIP3   OH255179   5.652   6.465   3.402 -0.7871  0.9151  0.7141
11255TIP3    H155180   5.740   6.455   3.365 -1.8525  1.5205 -2.2404
11255TIP3    H255181   5.634   6.380   3.442  1.0120  0.6793  1.1151
11256TIP3   OH255182   3.313   6.328   5.751 -0.1568  0.2900  0.5656
11256TIP3    H155183   3.337   6.382   5.826 -0.2887  0.9680  0.1297
11256TIP3    H255184   3.391   6.325   5.697 -0.6427  1.4500 -0.2335
11257TIP3   OH255185   5.511   5.325  14.759  0.4069 -0.0312 -0.5848
11257TIP3    H155186   5.464   5.242  14.771 -0.2007  0.2959 -0.6365
11257TIP3    H255187   5.601   5.306  14.786  0.3791 -0.8246 -1.0281
11258TIP3   OH255188   4.913   5.542   2.301  0.1107  0.6451  0.0989
11258TIP3    H155189   4.885   5.530   2.391  1.3521 -0.6745  0.3520
11258TIP3    H255190   4.950   5.630   2.298  2.3628 -0.1802  1.5652
11259TIP3   OH255191   2.059   5.764  13.822  0.1565  0.0160  0.3336
11259TIP3    H155192   2.082   5.674  13.845  0.3544 -0.7292 -2.4568
11259TIP3    H255193   1.966   5.761  13.800  0.4401  0.1990 -0.9574
11260TIP3   OH255194   6.451   1.447   0.558  0.2590  0.2246 -0.1200
11260TIP3    H155195   6.514   1.376   0.544  1.4670  1.4945 -1.4349
11260TIP3    H255196   6.504   1.519   0.590 -0.8223  0.7983  0.3968
11261TIP3   OH255197   5.672   6.373   0.988  0.0476 -0.1433 -0.2899
11261TIP3    H155198   5.728   6.446   0.961 -0.2432 -0.5844 -2.2314
11261TIP3    H255199   5.594   6.381   0.932 -0.9605 -0.6856  0.9936
11262TIP3   OH255200   3.599   1.327   2.211  0.4918 -0.2488  0.1548
11262TIP3    H155201   3.634   1.247   2.250  0.1814  0.2367  1.5065
11262TIP3    H255202   3.505   1.310   2.203  0.4933 -0.1906  0.0134
11263TIP3   OH255203   0.744   3.757   6.196  0.0272  0.0481  0.8323
11263TIP3    H155204   0.695   3.833   6.227 -0.7146  0.0564 -0.3143
11263TIP3    H255205   0.704   3.735   6.112  0.7855 -1.0930  0.7465
11264TIP3   OH255206   0.064   0.458  15.338  0.5483  0.8102  0.4383
11264TIP3    H155207  -0.021   0.484  15.373 -0.0482 -0.1729 -0.2397
11264TIP3    H255208   0.119   0.446  15.416 -0.1483  0.6977  0.9221
11265TIP3   OH255209   5.031   4.048  15.116 -0.1945  0.1906 -0.0341
11265TIP3    H155210   4.973   4.068  15.189 -0.4992  1.0056 -0.4864
11265TIP3    H255211   5.080   4.128  15.101  0.2545 -0.1437 -0.3711
11266TIP3   OH255212   2.975   1.098   2.440  0.1747  0.3190 -0.0063
11266TIP3    H155213   2.937   1.111   2.527 -1.1820 -1.1396 -0.3220
11266TIP3    H255214   3.049   1.040   2.454  0.6931  1.0560  0.3128
11267TIP3   OH255215   0.828   2.101  13.532  0.3023  0.1510  0.1783
11267TIP3    H155216   0.886   2.056  13.593 -0.8338 -1.4987  0.1143
11267TIP3    H255217   0.780   2.031  13.488 -1.5220  1.4134  0.0206
11268TIP3   OH255218   3.413   2.351   4.878  0.3008 -0.1463 -0.4180
11268TIP3    H155219   3.476   2.284   4.852  0.4020 -1.0024  1.8084
11268TIP3    H255220   3.424   2.359   4.973 -1.1828  1.5253 -0.3308
11269TIP3   OH255221   5.816   1.226   2.072  0.1734 -0.3090  0.3047
11269TIP3    H155222   5.760   1.272   2.133 -0.7149 -2.2615  1.0609
11269TIP3    H255223   5.756   1.178   2.015  0.9960  1.0166 -1.8024
11270TIP3   OH255224   3.122   5.370  16.493  0.3412  0.0224  0.0939
11270TIP3    H155225   3.032   5.381  16.523 -0.1705  0.0870 -1.3975
11270TIP3    H255226   3.154   5.293  16.540 -1.0424 -0.9924 -0.5696
11271TIP3   OH255227   5.959   4.008  11.340  0.1103  0.2214  0.4467
11271TIP3    H155228   5.999   4.092  11.359  1.2398 -0.5413  1.5981
11271TIP3    H255229   6.023   3.963  11.284 -0.7720  0.3496 -0.7112
11272TIP3   OH255230   0.742   0.727  15.178 -0.0849  0.7676  0.1997
11272TIP3    H155231   0.776   0.640  15.200  1.4380  1.5882  1.2947
11272TIP3    H255232   0.794   0.754  15.102 -2.3476 -0.2715 -1.8612
11273TIP3   OH255233   2.836   0.990   3.851 -0.3059 -0.1963 -0.4267
11273TIP3    H155234   2.791   0.999   3.935  0.1501 -0.8432 -0.0978
11273TIP3    H255235   2.886   0.908   3.860  2.0380  1.1491 -0.2323
11274TIP3   OH255236   0.727   2.071  14.679 -0.6437  0.1393  0.6220
11274TIP3    H155237   0.647   2.073  14.732 -0.8517 -2.4995  0.5167
11274TIP3    H255238   0.793   2.030  14.734  0.0938  0.4593  0.0053
11275TIP3   OH255239   6.293   5.220   6.396 -0.1998 -0.2371  0.5576
11275TIP3    H155240   6.383   5.238   6.368 -0.3012 -1.0435 -0.3316
11275TIP3    H255241   6.299   5.212   6.492  0.2787  1.8328  0.7571
11276TIP3   OH255242   4.013   5.440   2.053 -0.5932  0.2652 -0.3624
11276TIP3    H155243   3.966   5.358   2.037 -0.0687 -0.3827  1.1976
11276TIP3    H255244   3.977   5.473   2.135  0.6981  0.4498  0.1561
11277TIP3   OH255245   2.316   1.685   2.229  0.2882 -0.1840  0.2612
11277TIP3    H155246   2.334   1.663   2.320  2.3518  0.0015 -0.0497
11277TIP3    H255247   2.223   1.707   2.227 -0.4182 -2.7153  1.7904
11278TIP3   OH255248   3.706   5.050  12.756  0.6431 -0.2483 -0.6003
11278TIP3    H155249   3.621   5.021  12.723 -0.0486 -0.4451  1.2132
11278TIP3    H255250   3.744   4.971  12.796  0.4918  0.4095  0.9056
11279TIP3   OH255251   5.010   1.380  11.821  0.5235 -0.4485 -0.0224
11279TIP3    H155252   4.935   1.421  11.863  1.1891  1.0314 -0.2112
11279TIP3    H255253   5.012   1.417  11.733  2.3640  0.7949  0.4829
11280TIP3   OH255254   0.695   5.208   3.543 -0.7932  1.5286 -0.6692
11280TIP3    H155255   0.785   5.234   3.528 -0.6311  1.2191 -0.2466
11280TIP3    H255256   0.691   5.117   3.514 -0.8214  1.3592 -0.1403
11281TIP3   OH255257   6.643   4.619  13.740  0.3413 -0.1553  0.1161
11281TIP3    H155258   6.733   4.647  13.726  0.2744  0.2311  0.4278
11281TIP3    H255259   6.595   4.653  13.664  0.3832 -0.0024  0.1572
11282TIP3   OH255260   5.896   5.922  16.882  0.2802  0.0117  0.5076
11282TIP3    H155261   5.974   5.964  16.920  1.1267 -1.8270  0.9239
11282TIP3    H255262   5.923   5.831  16.869 -0.8740 -0.0272 -2.0485
11283TIP3   OH255263   6.671   0.752  14.837 -0.2363 -0.0316  0.3514
11283TIP3    H155264   6.711   0.804  14.907 -0.2048 -2.8869  2.6659
11283TIP3    H255265   6.741   0.694  14.807 -0.5100  0.5183 -1.4965
11284TIP3   OH255266   5.536   1.096  15.030  0.2823  0.1556 -0.0680
11284TIP3    H155267   5.453   1.055  15.006  0.5660 -0.3072 -0.2729
11284TIP3    H255268   5.515   1.189  15.042  0.1176  0.4277 -2.1045
11285TIP3   OH255269   1.134   0.818   4.113  0.8453 -0.6310  0.2526
11285TIP3    H155270   1.105   0.741   4.163  3.6026 -0.5660  2.1815
11285TIP3    H255271   1.108   0.893   4.167  1.1466 -0.3878  0.0600
11286TIP3   OH255272   2.038   0.014  12.320  0.0759 -0.2345 -0.2430
11286TIP3    H155273   1.944   0.026  12.307 -0.0525  0.5207  1.1397
11286TIP3    H255274   2.055   0.055  12.404  1.3210 -2.0447  0.4375
11287TIP3   OH255275   2.396   6.423   4.362  0.2213  0.4348  0.2880
11287TIP3    H155276   2.422   6.496   4.418  1.3473  0.1672  0.1343
11287TIP3    H255277   2.342   6.368   4.418 -0.3117  1.1713  0.5215
11288TIP3   OH255278   4.342   1.929   2.224 -0.2341  0.5475  0.2066
11288TIP3    H155279   4.339   1.863   2.293 -0.3505  0.8990  0.5417
11288TIP3    H255280   4.434   1.957   2.222 -0.2402  0.5723  0.2557
11289TIP3   OH255281   4.183   2.712   0.467 -0.1867  0.2031  0.1525
11289TIP3    H155282   4.228   2.707   0.552  1.9712 -1.1150 -0.9843
11289TIP3    H255283   4.174   2.620   0.440 -2.0945  0.5303 -0.4747
11290TIP3   OH255284   0.912   2.333  10.452  0.2997 -0.0381 -0.6002
11290TIP3    H155285   0.868   2.306  10.371 -2.3581  1.1703  0.2918
11290TIP3    H255286   0.892   2.427  10.458 -0.9099 -0.3954  2.1592
11291TIP3   OH255287   2.302   0.911  13.969  0.1407  0.3189  0.7739
11291TIP3    H155288   2.262   0.912  14.057 -0.2785 -0.3312  0.5959
11291TIP3    H255289   2.232   0.880  13.912  0.9076 -0.8947  0.4532
11292TIP3   OH255290   5.010   2.884  11.817  0.1684 -0.3839 -0.5290
11292TIP3    H155291   4.996   2.978  11.806  4.1057  0.6100  1.2608
11292TIP3    H255292   4.998   2.848  11.729  0.0548  2.0307 -1.5861
11293TIP3   OH255293   2.203   5.372   5.620 -0.7864 -0.3961  0.1924
11293TIP3    H155294   2.117   5.332   5.627 -0.9847  0.2424  1.9845
11293TIP3    H255295   2.263   5.306   5.654 -0.7174 -0.4063  0.0507
11294TIP3   OH255296   0.227   5.564  16.404  0.2305 -0.4741  0.3008
11294TIP3    H155297   0.201   5.627  16.471  0.7871  1.1810 -0.9906
11294TIP3    H255298   0.154   5.563  16.342  0.1451 -1.2778  0.3952
11295TIP3   OH255299   4.177   4.441   1.058  0.0763 -0.6272 -0.4854
11295TIP3    H155300   4.264   4.446   1.097  0.6088  2.0517 -1.8247
11295TIP3    H255301   4.192   4.422   0.966 -0.9760 -2.8888 -0.2715
11296TIP3   OH255302   6.527   4.061  12.585  0.0820  0.5291 -0.5763
11296TIP3    H155303   6.553   3.995  12.650  1.6507  0.8804 -0.8003
11296TIP3    H255304   6.458   4.111  12.628  0.1874 -0.0699  0.3266
11297TIP3   OH255305   4.835   1.882   4.371  0.7599  0.4283  0.5668
11297TIP3    H155306   4.866   1.956   4.423  2.1911  1.1974 -1.2592
11297TIP3    H255307   4.842   1.807   4.429 -1.1550  1.7102  2.6192
11298TIP3   OH255308   0.961   2.692  15.512 -0.3082 -0.3709 -0.0467
11298TIP3    H155309   0.893   2.628  15.490 -0.1895  0.1189 -2.0492
11298TIP3    H255310   1.043   2.643  15.510 -0.4889 -0.7740  1.4896
11299TIP3   OH255311   0.530   5.703  15.739  0.0957 -0.1463 -0.2945
11299TIP3    H155312   0.501   5.615  15.715 -2.1327 -0.0411  1.6594
11299TIP3    H255313   0.469   5.761  15.695  0.0960  0.3013  0.2816
11300TIP3   OH255314   2.191   4.199  13.599 -0.1519  0.7412  0.5370
11300TIP3    H155315   2.286   4.192  13.589 -0.0811  0.2946  1.3958
11300TIP3    H255316   2.180   4.253  13.678 -0.5915 -0.0038  1.0004
11301TIP3   OH255317   1.087   5.964   4.654  0.3809 -0.1211  0.1566
11301TIP3    H155318   1.158   6.012   4.696  0.7792  0.3073 -0.9673
11301TIP3    H255319   1.043   6.030   4.600  0.0263 -0.6981 -0.2682
11302TIP3   OH255320   4.265   5.520  14.587 -0.3997  0.4730  0.3795
11302TIP3    H155321   4.232   5.518  14.497  0.5713  0.0195  0.0154
11302TIP3    H255322   4.244   5.607  14.619 -1.5796  0.3280  0.0381
11303TIP3   OH255323   2.125   0.427   2.515  0.0187  0.0896 -0.0886
11303TIP3    H155324   2.207   0.377   2.519 -0.6338 -1.2216 -1.6618
11303TIP3    H255325   2.153   0.518   2.509  1.3428 -0.2799  0.1545
11304TIP3   OH255326   0.898   3.879   2.856  0.1909 -0.4890 -0.8474
11304TIP3    H155327   0.828   3.943   2.861  0.4518 -0.0061 -2.7106
11304TIP3    H255328   0.855   3.794   2.870 -0.3088 -0.0256  0.6056
11305TIP3   OH255329   1.894   4.554   1.932 -0.3167 -0.5286  0.2221
11305TIP3    H155330   1.873   4.465   1.904 -2.5335  1.1915 -4.8251
11305TIP3    H255331   1.944   4.591   1.858  1.7887  2.1003  2.7246
11306TIP3   OH255332   0.689   5.061  13.967 -0.6657 -0.0172 -0.6584
11306TIP3    H155333   0.611   5.021  14.006 -0.5518  1.2924  1.0301
11306TIP3    H255334   0.759   4.999  13.985 -0.8406  0.0220  0.1958
11307TIP3   OH255335   5.842   3.950   2.154  0.3997  0.1470 -0.6391
11307TIP3    H155336   5.857   3.963   2.248 -1.2330 -0.3546 -0.2787
11307TIP3    H255337   5.752   3.977   2.140  0.5143 -0.1107 -2.0162
11308TIP3   OH255338   2.455   3.616   3.532  0.0305 -0.3589 -0.5012
11308TIP3    H155339   2.405   3.675   3.590  1.3046  0.2054  0.0788
11308TIP3    H255340   2.524   3.581   3.589  0.5269 -0.8074 -1.3712
11309TIP3   OH255341   2.289   1.063   3.665 -0.2623  0.5816 -0.0416
11309TIP3    H155342   2.243   1.143   3.690 -1.6727 -0.5852  1.2252
11309TIP3    H255343   2.267   0.999   3.733 -1.8780 -1.8899 -2.6220
11310TIP3   OH255344   3.415   5.300  10.708  0.8069  1.0033 -0.2798
11310TIP3    H155345   3.388   5.247  10.633 -1.1851  0.8320  0.4997
11310TIP3    H255346   3.348   5.369  10.715 -0.9670 -0.7855  3.1311
11311TIP3   OH255347   5.656   5.603  14.077 -0.1398  0.1933  0.2974
11311TIP3    H155348   5.636   5.519  14.036  2.7519 -1.5537  2.0943
11311TIP3    H255349   5.642   5.587  14.171  0.1182  1.8500  0.6443
11312TIP3   OH255350   2.551   3.479   4.324 -0.0464  0.2943 -0.8493
11312TIP3    H155351   2.558   3.572   4.344 -0.3114  0.3987 -1.2245
11312TIP3    H255352   2.599   3.469   4.241  1.3212 -0.1870 -0.0452
11313TIP3   OH255353   3.343   6.592  15.005 -0.1961  0.0057 -0.0186
11313TIP3    H155354   3.359   6.611  14.913  0.4600 -0.4416 -0.0004
11313TIP3    H255355   3.277   6.522  15.004  2.8218 -3.0646 -0.3052
11314TIP3   OH255356   0.067   1.508   3.661  0.3914  0.3556 -0.3137
11314TIP3    H155357   0.050   1.589   3.613  0.1411 -0.1876 -1.1606
11314TIP3    H255358  -0.004   1.449   3.634  0.2789  0.0189  0.6807
11315TIP3   OH255359   5.224   5.626  14.035 -0.5806  0.0567  0.0940
11315TIP3    H155360   5.273   5.650  14.115 -2.3217  0.8943  0.9726
11315TIP3    H255361   5.169   5.702  14.018 -0.5860 -0.3096 -1.6731
11316TIP3   OH255362   2.158   6.426  10.387 -0.3922  0.4878 -0.1226
11316TIP3    H155363   2.174   6.335  10.412 -0.9403  0.6065  0.6723
11316TIP3    H255364   2.190   6.431  10.297  0.6091 -0.2209  0.1725
11317TIP3   OH255365   1.202   1.918  11.089  0.1037  0.1225  0.2286
11317TIP3    H155366   1.143   1.976  11.138 -0.6672  0.6810 -1.2850
11317TIP3    H255367   1.186   1.831  11.126 -0.7017  0.4797  0.7488
11318TIP3   OH255368   6.095   3.410  12.548 -0.6005  0.3914 -0.2417
11318TIP3    H155369   6.152   3.341  12.582 -1.1327 -0.5247 -1.1616
11318TIP3    H255370   6.136   3.436  12.466 -0.0400  1.6712  0.4052
11319TIP3   OH255371   0.457   0.450  14.201  0.0786 -0.4487 -0.1431
11319TIP3    H155372   0.404   0.371  14.210 -0.7936  0.0784 -0.5473
11319TIP3    H255373   0.497   0.461  14.288 -0.5898 -0.7724  0.2160
11320TIP3   OH255374   4.815   1.108  12.363 -0.5762 -0.3713 -0.8547
11320TIP3    H155375   4.733   1.140  12.324 -0.7235  0.7981  0.3521
11320TIP3    H255376   4.853   1.185  12.404  0.8032 -1.0578 -0.8048
11321TIP3   OH255377   4.602   2.777  14.430 -0.0993  0.2060 -0.4355
11321TIP3    H155378   4.678   2.819  14.391  0.1166 -1.1767 -1.5781
11321TIP3    H255379   4.619   2.780  14.525  3.1318 -3.0370 -0.7061
11322TIP3   OH255380   1.452   6.461   1.466 -0.3631 -0.7634  0.7920
11322TIP3    H155381   1.404   6.381   1.484 -0.2956 -1.5011 -1.8422
11322TIP3    H255382   1.386   6.523   1.435 -0.0943 -0.6617  0.4072
11323TIP3   OH255383   4.280   1.882  12.675 -0.2840  0.3812  0.0636
11323TIP3    H155384   4.215   1.919  12.734 -0.1015 -0.9602  1.1480
11323TIP3    H255385   4.312   1.957  12.625 -1.0780  1.4105  1.0538
11324TIP3   OH255386   6.419   4.264  14.974  0.1167 -0.4625 -0.2528
11324TIP3    H155387   6.351   4.199  14.956 -0.8830  0.6052 -0.5066
11324TIP3    H255388   6.381   4.321  15.040  1.1376 -0.3623  0.2695
11325TIP3   OH255389   5.030   3.525   4.925  0.1847  0.7331 -0.7580
11325TIP3    H155390   4.976   3.589   4.879 -1.4797 -0.9539 -1.3127
11325TIP3    H255391   5.110   3.519   4.873 -1.6109 -1.0685 -3.6237
11326TIP3   OH255392   4.663   6.273  14.444 -0.3195  0.5038 -0.1724
11326TIP3    H155393   4.627   6.216  14.511  1.1469 -0.1207  0.1136
11326TIP3    H255394   4.749   6.236  14.424 -0.0162  1.6717 -1.1627
11327TIP3   OH255395   0.536   5.746   1.614  0.2185 -0.0806  0.1051
11327TIP3    H155396   0.565   5.658   1.641 -0.1362 -0.2158  0.0509
11327TIP3    H255397   0.445   5.751   1.643  0.7512  0.9285  1.6833
11328TIP3   OH255398   3.337   3.296  11.320  0.0325  0.1426 -0.5712
11328TIP3    H155399   3.278   3.354  11.271  0.8353 -0.3681 -2.1934
11328TIP3    H255400   3.415   3.289  11.266  1.1309 -0.1657  0.9727
11329TIP3   OH255401   6.288   6.450   1.089 -0.1561  0.0825 -0.0684
11329TIP3    H155402   6.357   6.469   1.153 -0.8614 -1.0541  1.0954
11329TIP3    H255403   6.335   6.428   1.009  0.7929  0.6854  0.3082
11330TIP3   OH255404   2.933   1.318   5.954  0.2707 -0.3954  0.0832
11330TIP3    H155405   2.920   1.266   5.875 -2.1442 -0.3504  0.3695
11330TIP3    H255406   2.917   1.256   6.026 -0.9175  0.2838  0.4436
11331TIP3   OH255407   0.141   6.360  13.430  0.1128  0.2726 -0.1882
11331TIP3    H155408   0.102   6.272  13.434  1.9432 -0.5804 -0.0189
11331TIP3    H255409   0.128   6.395  13.518 -0.8946  0.3151 -0.3387
11332TIP3   OH255410   3.648   3.194  15.243  0.3629 -0.6103 -0.5812
11332TIP3    H155411   3.612   3.150  15.320  0.9793  1.4248  0.9600
11332TIP3    H255412   3.742   3.176  15.246  0.3581 -0.7115 -0.9887
11333TIP3   OH255413   2.842   2.901   2.542 -0.3759  0.0603 -0.1223
11333TIP3    H155414   2.759   2.857   2.562 -0.7959  0.5345 -0.7927
11333TIP3    H255415   2.872   2.934   2.627 -0.4930 -0.7548  0.2489
11334TIP3   OH255416   5.938   2.812  15.516 -0.2572 -0.0964  0.0267
11334TIP3    H155417   5.842   2.811  15.515 -0.2554 -0.3968 -0.8847
11334TIP3    H255418   5.961   2.905  15.517 -0.5569 -0.0245  0.5131
11335TIP3   OH255419   6.207   6.514  15.068 -0.2632  0.3115  0.3761
11335TIP3    H155420   6.225   6.425  15.098 -0.0314  0.5468  0.9574
11335TIP3    H255421   6.176   6.560  15.146 -1.9215  0.3324 -0.2728
11336TIP3   OH255422   5.616   6.526   2.595  0.4710 -0.0775  0.6409
11336TIP3    H155423   5.578   6.589   2.655  1.2153  0.8052  0.2142
11336TIP3    H255424   5.546   6.504   2.534  0.0198 -0.1668  1.1942
11337TIP3   OH255425   5.081   1.447   1.554  0.9870  0.0429 -0.1563
11337TIP3    H155426   5.016   1.445   1.624  1.9523  1.6794  0.8549
11337TIP3    H255427   5.029   1.435   1.474 -0.3591 -0.1869  0.7104
11338TIP3   OH255428   1.405   2.940  16.545  0.7241  0.0247  0.2899
11338TIP3    H155429   1.476   2.876  16.555  0.6875 -0.2034 -0.7379
11338TIP3    H255430   1.328   2.887  16.524 -0.0814  0.1644  2.6888
11339TIP3   OH255431   6.474   5.862   4.904 -0.8890  0.1482  0.2732
11339TIP3    H155432   6.447   5.908   4.825  2.2458 -0.9181 -1.6002
11339TIP3    H255433   6.534   5.922   4.948  2.8419 -1.6067 -1.9347
11340TIP3   OH255434   2.743   3.105   3.941 -0.5601  0.3817 -0.0384
11340TIP3    H155435   2.742   3.040   3.871 -0.3862  0.7538 -0.3909
11340TIP3    H255436   2.660   3.152   3.931  0.1778  1.5113 -1.0259
11341TIP3   OH255437   4.467   2.478  15.335 -0.2102 -0.0691  0.6494
11341TIP3    H155438   4.539   2.445  15.281 -1.0911  0.3010 -0.8048
11341TIP3    H255439   4.394   2.419  15.316 -1.1319  1.2978 -0.1980
11342TIP3   OH255440   1.440   3.670   6.198 -0.2325  0.0661  0.0988
11342TIP3    H155441   1.385   3.748   6.199 -0.0386  0.3027 -2.2436
11342TIP3    H255442   1.525   3.699   6.231 -0.0054  1.0300 -1.2563
11343TIP3   OH255443   5.955   1.795  13.392  0.0254 -0.1987  1.0923
11343TIP3    H155444   5.894   1.845  13.339  0.7628  1.1944  1.5036
11343TIP3    H255445   5.921   1.705  13.391 -0.3405 -0.0834 -1.1504
11344TIP3   OH255446   0.207   2.027   5.481 -0.1875  0.1685  0.3645
11344TIP3    H155447   0.237   2.081   5.408 -0.1908 -0.1503  0.1232
11344TIP3    H255448   0.214   1.937   5.449 -0.2618  0.0284  0.7299
11345TIP3   OH255449   1.167   2.023   3.512  0.1924  0.1137  0.0582
11345TIP3    H155450   1.163   2.119   3.507 -2.3257  0.0985  0.5201
11345TIP3    H255451   1.260   2.004   3.528  0.4937  2.6040  2.0817
11346TIP3   OH255452   3.586   3.267   2.222  0.0540 -0.4947 -0.1313
11346TIP3    H155453   3.591   3.172   2.235 -0.3997 -0.3491  1.2517
11346TIP3    H255454   3.537   3.277   2.140  1.8262 -1.4692 -1.3617
11347TIP3   OH255455   1.674   0.080  11.796  0.2899  0.0993  0.4053
11347TIP3    H155456   1.616   0.009  11.823 -0.5627 -0.2086 -1.9914
11347TIP3    H255457   1.648   0.155  11.850 -1.5348 -0.3696  0.2404
11348TIP3   OH255458   4.860   2.558   2.659 -0.2444  0.0687 -0.7114
11348TIP3    H155459   4.820   2.644   2.651 -1.3119 -0.4322 -0.8943
11348TIP3    H255460   4.815   2.518   2.734  1.0045  0.0642  0.0723
11349TIP3   OH255461   0.282   3.585  10.556  0.2309  0.2286  0.2898
11349TIP3    H155462   0.237   3.658  10.513 -0.9051 -0.3436  0.4691
11349TIP3    H255463   0.282   3.607  10.649  0.7794  0.4613  0.2376
11350TIP3   OH255464   5.263   1.329  11.973 -0.5277 -0.4696 -0.0794
11350TIP3    H155465   5.185   1.374  11.941  0.0675  0.8177  0.2283
11350TIP3    H255466   5.313   1.397  12.018  0.0382 -1.6154  1.0668
11351TIP3   OH255467   1.948   4.235  13.472  0.3061  0.4025 -0.0515
11351TIP3    H155468   1.885   4.257  13.541 -1.0833 -4.2847  0.5256
11351TIP3    H255469   2.034   4.238  13.516 -0.4766 -1.6931  1.7936
11352TIP3   OH255470   6.697   2.408   4.370  0.6144 -0.4066  0.6540
11352TIP3    H155471   6.676   2.478   4.432 -0.7372 -0.2368  0.0517
11352TIP3    H255472   6.742   2.342   4.422  0.3663  0.1661  1.6110
11353TIP3   OH255473   1.032   0.696   3.115  0.1818  0.0720 -0.1873
11353TIP3    H155474   1.031   0.744   3.198  0.1994  1.1342 -0.7733
11353TIP3    H255475   1.086   0.751   3.057  0.4738 -0.8341 -0.7919
11354TIP3   OH255476   6.775   3.445   0.412  0.2320 -0.0260  0.6228
11354TIP3    H155477   6.781   3.402   0.327 -2.4250 -1.9788  1.2853
11354TIP3    H255478   6.681   3.451   0.429  0.6658  0.6272  3.2696
11355TIP3   OH255479   2.474   2.892  12.556  0.2392  0.6751 -0.4580
11355TIP3    H155480   2.422   2.972  12.543 -1.7780 -0.1534  1.7508
11355TIP3    H255481   2.453   2.837  12.480 -0.7415  1.0769 -0.4908
11356TIP3   OH255482   6.775   3.006  11.453 -0.4846 -0.5520  0.6106
11356TIP3    H155483   6.782   2.979  11.361 -1.7546  1.7066 -0.2044
11356TIP3    H255484   6.757   2.924  11.500  1.2057 -1.9266 -0.9451
11357TIP3   OH255485   0.588   4.596  14.978  0.1659  0.3499  0.2193
11357TIP3    H155486   0.611   4.688  14.992  0.9137  0.3870 -1.1116
11357TIP3    H255487   0.530   4.574  15.052  0.5528  1.6708  0.9435
11358TIP3   OH255488   1.077   3.508  13.951  0.7196  0.1357  0.0413
11358TIP3    H155489   1.010   3.439  13.948  0.4542  0.3864  0.1801
11358TIP3    H255490   1.096   3.527  13.859 -1.3938  1.9805 -0.0868
11359TIP3   OH255491   0.895   3.856   5.527 -0.4289  0.1380  0.5879
11359TIP3    H155492   0.889   3.764   5.502 -0.4916  0.3925 -0.3945
11359TIP3    H255493   0.872   3.858   5.620 -2.0588 -0.6288  0.2346
11360TIP3   OH255494   5.895   1.084  11.668 -0.4332  0.3958  0.9197
11360TIP3    H155495   5.869   1.073  11.576 -0.0127  0.0649  0.8426
11360TIP3    H255496   5.985   1.053  11.672 -0.2905  0.8441  1.3509
11361TIP3   OH255497   4.658   5.727   2.492 -0.3226 -0.3357 -0.2770
11361TIP3    H155498   4.631   5.669   2.420  0.1835 -0.8436 -0.0687
11361TIP3    H255499   4.715   5.672   2.546  0.3338  0.4271 -0.1880
11362TIP3   OH255500   3.902   1.712  12.026  0.3142  0.2480 -0.1150
11362TIP3    H155501   3.862   1.663  11.954  1.6189 -0.7662 -0.1867
11362TIP3    H255502   3.969   1.653  12.062  1.8031  1.8708 -0.0512
11363TIP3   OH255503   6.592   2.235  16.073  0.1331 -0.1754  0.0129
11363TIP3    H155504   6.561   2.318  16.037  1.7677  0.3488 -0.2806
11363TIP3    H255505   6.514   2.193  16.109 -0.8860  1.0356 -0.7237
11364TIP3   OH255506   4.459   4.401  14.485 -0.1063  0.0934 -0.0021
11364TIP3    H155507   4.441   4.323  14.537  0.0312  0.1071  0.0646
11364TIP3    H255508   4.464   4.369  14.395  1.5925 -0.2424  0.1827
11365TIP3   OH255509   0.222   6.359   0.721  0.4457 -0.2522 -0.1333
11365TIP3    H155510   0.182   6.332   0.638 -0.4973  0.5552  0.0475
11365TIP3    H255511   0.184   6.445   0.740  1.1286 -0.1430  0.8191
11366TIP3   OH255512   5.254   6.776   0.326 -0.0276  0.2150 -0.2659
11366TIP3    H155513   5.329   6.741   0.375  0.7078  0.8647 -0.8953
11366TIP3    H255514   5.216   6.842   0.383  0.4183  0.4964 -0.2908
11367TIP3   OH255515   6.265   3.201   4.566  0.8788 -0.0498  0.2288
11367TIP3    H155516   6.306   3.251   4.495  1.6035  0.8805  1.2742
11367TIP3    H255517   6.334   3.190   4.631  0.1869 -0.7830  0.8653
11368TIP3   OH255518   6.626   5.864   1.894  0.3680  0.0242 -0.0847
11368TIP3    H155519   6.603   5.853   1.986 -0.5766  0.8178 -0.2043
11368TIP3    H255520   6.640   5.775   1.861  1.1493 -0.2431  0.9114
11369TIP3   OH255521   1.171   3.220  11.381  0.0541  0.4690 -0.0541
11369TIP3    H155522   1.223   3.212  11.301 -0.0117 -0.7746  0.0100
11369TIP3    H255523   1.235   3.236  11.450  0.6441 -2.9702  0.3403
11370TIP3   OH255524   4.525   0.622  13.105  0.2461 -0.3457  0.4169
11370TIP3    H155525   4.527   0.532  13.073  0.2160 -0.5870  1.0696
11370TIP3    H255526   4.474   0.617  13.186 -0.6502  0.4340 -0.0784
11371TIP3   OH255527   1.137   1.429  13.794  0.1619 -0.5630  0.5020
11371TIP3    H155528   1.225   1.396  13.776 -0.2560 -1.2774 -0.2731
11371TIP3    H255529   1.106   1.376  13.867  0.8529  0.5752  1.6746
11372TIP3   OH255530   1.262   4.071  11.733 -0.3612 -0.3753  0.4252
11372TIP3    H155531   1.335   4.078  11.795 -0.7363  2.3313  0.6507
11372TIP3    H255532   1.288   4.126  11.660 -1.9130  0.1716  0.2586
11373TIP3   OH255533   1.633   2.975  11.604 -0.2582  0.1942 -0.5648
11373TIP3    H155534   1.628   3.064  11.637 -0.7887  0.5475 -1.5541
11373TIP3    H255535   1.713   2.973  11.552 -0.6144  0.3062 -1.1261
11374TIP3   OH255536   3.524   6.239   3.015  0.5904  0.0570 -0.0043
11374TIP3    H155537   3.542   6.272   2.927  1.1247 -2.6137 -0.9667
11374TIP3    H255538   3.429   6.250   3.026  0.4552  0.0100 -1.0868
11375TIP3   OH255539   4.440   2.271  13.582  0.1622  0.2990  0.1110
11375TIP3    H155540   4.347   2.283  13.563  0.5832 -0.1528 -2.6216
11375TIP3    H255541   4.483   2.275  13.497  2.6797  0.5046  1.2936
11376TIP3   OH255542   1.842   2.274   0.118 -0.2464 -0.3144 -0.3160
11376TIP3    H155543   1.807   2.187   0.134 -1.0753  0.1437  0.4474
11376TIP3    H255544   1.897   2.292   0.195 -0.0155 -0.1978 -0.5083
11377TIP3   OH255545   6.793   1.456  11.806 -0.4388 -0.2895  0.7020
11377TIP3    H155546   6.882   1.490  11.798  0.3448 -2.0806  1.5051
11377TIP3    H255547   6.762   1.448  11.716  2.0177 -4.1396 -0.0202
11378TIP3   OH255548   5.511   3.121  12.530 -0.3703 -0.1132 -0.0784
11378TIP3    H155549   5.475   3.033  12.517  1.1000 -0.5846 -1.3429
11378TIP3    H255550   5.559   3.114  12.613  1.1732 -1.0804 -0.9866
11379TIP3   OH255551   1.965   5.881  15.014 -0.0189  0.1967  0.0271
11379TIP3    H155552   1.968   5.828  15.094 -1.2754  0.5348  0.3246
11379TIP3    H255553   2.011   5.962  15.038  0.5399 -0.1251  0.0607
11380TIP3   OH255554   2.510   6.767   1.265  0.1558  0.0901 -0.5565
11380TIP3    H155555   2.500   6.830   1.193 -1.2127  0.0190 -0.4665
11380TIP3    H255556   2.420   6.748   1.291  0.6139 -0.6795  0.4915
11381TIP3   OH255557   6.120   2.767   4.349  0.3708  0.1282  0.9299
11381TIP3    H155558   6.215   2.763   4.362  0.8783  1.2155 -1.7535
11381TIP3    H255559   6.109   2.776   4.255 -2.1476  4.4277  1.3737
11382TIP3   OH255560   3.913   5.476   0.849 -0.1506  0.2622 -0.1044
11382TIP3    H155561   3.847   5.421   0.892  0.9173 -0.5481  0.5372
11382TIP3    H255562   3.885   5.566   0.869  0.9123 -0.0495  3.4192
11383TIP3   OH255563   0.051   2.250  11.173  0.2628  0.5533 -0.7632
11383TIP3    H155564   0.061   2.329  11.121  1.1826  0.0513 -1.3956
11383TIP3    H255565   0.133   2.202  11.159 -0.7444 -1.0662 -1.3654
11384TIP3   OH255566   5.004   1.826   2.991 -0.2384  0.1759  0.4374
11384TIP3    H155567   5.048   1.802   3.073  0.2398  2.8576  1.0587
11384TIP3    H255568   5.075   1.857   2.934 -0.5163 -2.0082 -1.1979
11385TIP3   OH255569   2.559   0.048  13.316  0.3417  0.0575 -1.5611
11385TIP3    H155570   2.575  -0.032  13.367  0.1363 -0.4746 -2.3179
11385TIP3    H255571   2.571   0.119  13.379 -2.4524 -0.6457 -0.0867
11386TIP3   OH255572   0.986   2.002   2.273 -0.0303  0.4086  0.4327
11386TIP3    H155573   1.045   1.998   2.197 -0.8004  1.3529 -0.2407
11386TIP3    H255574   1.039   1.970   2.346  0.7152 -0.5856 -0.5007
11387TIP3   OH255575   3.808   2.073   2.253  0.0154 -1.0219  0.2108
11387TIP3    H155576   3.868   1.998   2.259 -0.3845 -1.3527  0.1089
11387TIP3    H255577   3.864   2.146   2.226  0.8736 -0.7313  2.5443
11388TIP3   OH255578   2.780   0.034   1.205 -0.4215  0.1944 -0.0487
11388TIP3    H155579   2.694   0.011   1.239 -1.0465  2.9666  0.4932
11388TIP3    H255580   2.767   0.042   1.111 -0.7447  0.5325  0.0231
11389TIP3   OH255581   4.601   3.011  13.062 -0.6180  0.7327 -0.2292
11389TIP3    H155582   4.559   3.091  13.095 -0.8398  0.4820  0.1028
11389TIP3    H255583   4.530   2.947  13.058 -0.5163  0.6555 -0.8498
11390TIP3   OH255584   3.802   0.421   1.461 -0.0040 -0.1206 -0.6936
11390TIP3    H155585   3.893   0.442   1.480 -0.5651  0.7508  1.2268
11390TIP3    H255586   3.792   0.329   1.488  0.2914 -0.2348 -0.9573
11391TIP3   OH255587   0.358   5.501   0.641  1.0830  0.4327  0.0621
11391TIP3    H155588   0.436   5.503   0.696  1.3419 -2.1942 -0.0694
11391TIP3    H255589   0.292   5.456   0.695  0.5530  0.1327 -0.8114
11392TIP3   OH255590   1.755   6.349   0.111 -0.5248  0.2725  0.7020
11392TIP3    H155591   1.701   6.345   0.190 -0.9940 -2.5609  0.3227
11392TIP3    H255592   1.845   6.353   0.145 -0.7777  0.9191  1.3403
11393TIP3   OH255593   1.940   5.710  12.129 -0.0729  0.3247  0.0530
11393TIP3    H155594   2.014   5.771  12.129 -0.2814  0.5859  0.8879
11393TIP3    H255595   1.976   5.629  12.093  0.0125  1.1502 -1.8093
11394TIP3   OH255596   4.344   4.201   0.188 -0.1138  0.7181  0.0545
11394TIP3    H155597   4.341   4.120   0.239  0.4503  0.2585 -0.6345
11394TIP3    H255598   4.252   4.216   0.163 -0.1612  0.0272 -0.2162
11395TIP3   OH255599   0.997   0.537  10.509 -0.2630  0.3317  0.1468
11395TIP3    H155600   0.904   0.547  10.491 -0.1832 -0.6640 -0.9313
11395TIP3    H255601   1.040   0.600  10.452 -0.2515  0.3633  0.1901
11396TIP3   OH255602   3.271   5.882  14.571  0.1357  0.3640 -0.1781
11396TIP3    H155603   3.204   5.826  14.610  0.5793 -1.1210 -1.4495
11396TIP3    H255604   3.308   5.829  14.500  0.7069  2.2065 -1.3212
11397TIP3   OH255605   0.198   5.252  15.415  0.0835 -0.7560  1.2811
11397TIP3    H155606   0.137   5.302  15.361 -0.8380  0.8609  3.6586
11397TIP3    H255607   0.280   5.301  15.411 -0.1337 -0.3506  1.7363
11398TIP3   OH255608   5.960   3.872   0.265  0.1720  0.3410  0.2085
11398TIP3    H155609   5.886   3.866   0.325  0.1495  0.8198  0.2317
11398TIP3    H255610   6.035   3.844   0.317 -0.0368 -0.4642  0.0915
11399TIP3   OH255611   5.812   5.526   3.464 -0.4700  0.4677 -0.0105
11399TIP3    H155612   5.734   5.567   3.500 -0.6877  0.6099 -0.6208
11399TIP3    H255613   5.885   5.568   3.509 -0.7427  0.4011  0.4940
11400TIP3   OH255614   2.526   3.769   2.087 -0.9048  0.0725 -0.2132
11400TIP3    H155615   2.461   3.733   2.147  0.6438 -0.7465  1.0612
11400TIP3    H255616   2.607   3.723   2.110  0.1771  1.2175 -1.5838
11401TIP3   OH255617   6.672   3.691  15.692  0.2542  0.4372  0.8637
11401TIP3    H155618   6.678   3.783  15.667  0.4260  0.5817  1.4248
11401TIP3    H255619   6.676   3.692  15.787 -2.0577  0.0276  1.0064
11402TIP3   OH255620   4.726   4.423   1.111  0.3157  0.0369 -0.2512
11402TIP3    H155621   4.679   4.345   1.141  1.2227  0.2849  2.0448
11402TIP3    H255622   4.687   4.444   1.026 -0.8957 -2.0936 -0.2885
11403TIP3   OH255623   3.928   2.689  11.357  0.1829  0.3805 -0.3167
11403TIP3    H155624   3.876   2.712  11.280  0.7155  0.1584 -0.7492
11403TIP3    H255625   3.994   2.627  11.324 -0.6116 -1.0375  0.6278
11404TIP3   OH255626   0.643   0.144   4.137 -0.7313 -0.9453  0.0668
11404TIP3    H155627   0.739   0.154   4.133 -0.6160 -2.0814 -0.4584
11404TIP3    H255628   0.630   0.069   4.194 -1.3006 -1.0357 -0.1812
11405TIP3   OH255629   5.284   1.616   1.753 -0.1125 -0.3047  0.4275
11405TIP3    H155630   5.224   1.549   1.787 -1.1480  0.3477 -0.0502
11405TIP3    H255631   5.371   1.581   1.771 -0.6083 -2.0126 -0.2360
11406TIP3   OH255632   4.798   0.003  16.549 -0.2727 -0.0777  0.1701
11406TIP3    H155633   4.805   0.007  16.454 -0.2388 -1.2609  0.1057
11406TIP3    H255634   4.771   0.091  16.575  0.6241  0.5194 -0.8416
11407TIP3   OH255635   3.537   3.243  16.732  1.0328  0.5059  0.0773
11407TIP3    H155636   3.545   3.231  16.827  0.4183 -2.2106 -0.1168
11407TIP3    H255637   3.622   3.217  16.697  0.7892  0.0467 -0.1892
11408TIP3   OH255638   4.972   1.777  11.686  0.0491  0.2817 -0.4458
11408TIP3    H155639   5.016   1.787  11.771 -1.5934 -1.6779  0.7128
11408TIP3    H255640   4.883   1.807  11.702 -0.7192 -1.5889 -1.0014
11409TIP3   OH255641   2.972   2.858  13.499  0.3874 -0.4571 -0.1148
11409TIP3    H155642   2.925   2.779  13.527 -1.8209  0.7384 -0.1899
11409TIP3    H255643   3.027   2.881  13.573  2.0755 -2.7104 -0.5509
11410TIP3   OH255644   4.637   0.083  13.161  0.1799  1.4638  1.2260
11410TIP3    H155645   4.551   0.043  13.149  0.4524  0.8553  1.2709
11410TIP3    H255646   4.647   0.090  13.256  1.2216 -0.8198  1.3476
11411TIP3   OH255647   2.265   3.664  13.311 -0.1129 -0.3521 -0.2721
11411TIP3    H155648   2.269   3.688  13.403  0.8939 -2.7549  0.3882
11411TIP3    H255649   2.203   3.591  13.307 -1.6621  0.9411 -1.8655
11412TIP3   OH255650   6.251   3.263  13.023  0.7921 -0.3770  0.4023
11412TIP3    H155651   6.204   3.226  13.097 -0.2249  0.7463  0.3533
11412TIP3    H255652   6.200   3.236  12.946  0.6757  0.1685  0.2836
11413TIP3   OH255653   5.259   0.311  14.154 -0.7315  0.0920 -0.0896
11413TIP3    H155654   5.181   0.362  14.179 -1.0722 -0.4648  0.0018
11413TIP3    H255655   5.300   0.289  14.237 -1.5107 -1.2096 -0.0266
11414TIP3   OH255656   5.307   4.867   4.378  0.4262  0.0229 -0.5784
11414TIP3    H155657   5.333   4.954   4.407  2.3419 -1.2641  2.0362
11414TIP3    H255658   5.263   4.829   4.454  1.4595 -1.9541 -0.9093
11415TIP3   OH255659   3.655   1.680   4.087  0.8636 -0.2425  0.2063
11415TIP3    H155660   3.580   1.636   4.046 -0.6170  0.8810  1.5742
11415TIP3    H255661   3.672   1.630   4.167  1.2963 -0.2360  0.1226
11416TIP3   OH255662   0.312   6.026   4.822 -0.3510  0.4318  0.5447
11416TIP3    H155663   0.401   5.991   4.824 -0.4212  0.2361  0.2427
11416TIP3    H255664   0.307   6.083   4.900  1.5459  4.0764 -1.7043
11417TIP3   OH255665   1.997   3.900  14.838  0.0643  0.0332 -0.0231
11417TIP3    H155666   1.992   3.834  14.908  0.0244 -0.8472 -0.8423
11417TIP3    H255667   2.089   3.898  14.811 -0.0356 -0.0056 -0.3553
11418TIP3   OH255668   4.482   6.086  14.698 -0.1584  0.0352 -0.1648
11418TIP3    H155669   4.440   6.156  14.748 -1.8069 -0.0152 -1.3626
11418TIP3    H255670   4.409   6.035  14.662  0.9393 -3.2606  1.8471
11419TIP3   OH255671   6.398   1.173  13.227  0.4690 -0.0135  0.0167
11419TIP3    H155672   6.386   1.159  13.133 -1.7547 -0.6507  0.3517
11419TIP3    H255673   6.481   1.130  13.247  0.0890 -1.4708 -1.3367
11420TIP3   OH255674   0.799   5.248  15.073  0.5855  0.7452  0.6926
11420TIP3    H155675   0.768   5.327  15.028  1.5185  0.5289 -0.3721
11420TIP3    H255676   0.879   5.225  15.027  0.0490 -1.1372  0.6379
11421TIP3   OH255677   2.269   5.820   6.091 -0.2119 -0.3501  0.3146
11421TIP3    H155678   2.226   5.852   6.170  0.7277  0.4156  0.5465
11421TIP3    H255679   2.359   5.800   6.120  0.0345 -0.4132 -0.4716
11422TIP3   OH255680   1.322   4.496  13.903  0.1582  0.1942  0.2428
11422TIP3    H155681   1.309   4.511  13.997 -0.4711 -1.3330  0.4298
11422TIP3    H255682   1.238   4.464  13.872  0.8150 -0.8879 -0.4915
11423TIP3   OH255683   3.717   3.226  16.985  0.7591 -0.2878  0.4733
11423TIP3    H155684   3.727   3.255  17.075  0.0326  0.1756  0.4193
11423TIP3    H255685   3.806   3.213  16.953  0.9933 -1.5935  1.6092
11424TIP3   OH255686   2.135   1.728   4.712 -0.6676 -0.0125 -0.1810
11424TIP3    H155687   2.062   1.763   4.661 -1.4526  0.0934  0.9921
11424TIP3    H255688   2.183   1.674   4.649 -3.2154 -2.2408 -0.4114
11425TIP3   OH255689   0.190   2.783   0.776 -0.5836  0.2451  0.1473
11425TIP3    H155690   0.255   2.814   0.712 -0.0964 -0.5638  0.2381
11425TIP3    H255691   0.239   2.723   0.832 -0.9314  1.1935  1.5030
11426TIP3   OH255692   6.518   5.781  15.266  0.2556  0.5071 -0.2277
11426TIP3    H155693   6.481   5.849  15.210  0.1984  3.1756  2.7604
11426TIP3    H255694   6.449   5.763  15.331  1.2346 -0.5081  0.5787
11427TIP3   OH255695   3.073   5.882  13.617  0.4871  0.4878  0.1156
11427TIP3    H155696   3.139   5.816  13.598 -0.0907  0.1732 -0.8527
11427TIP3    H255697   2.990   5.834  13.614  0.2691  0.4463  3.1637
11428TIP3   OH255698   4.504   3.237  12.215  0.5540 -0.1515  0.6235
11428TIP3    H155699   4.578   3.182  12.188  0.0703  0.3298 -2.0141
11428TIP3    H255700   4.535   3.327  12.200 -0.1062  0.0981  0.7566
11429TIP3   OH255701   5.415   1.798  14.803 -0.3009  0.3445 -0.1361
11429TIP3    H155702   5.353   1.727  14.821  0.2932 -0.3168 -0.6448
11429TIP3    H255703   5.458   1.815  14.887 -1.0369  0.6847  0.1768
11430TIP3   OH255704   1.156   3.205  16.147 -0.4109 -0.0691 -0.3748
11430TIP3    H155705   1.232   3.261  16.130 -0.2337 -0.3423 -0.5052
11430TIP3    H255706   1.125   3.182  16.059 -0.4053 -0.2761 -0.3217
11431TIP3   OH255707   1.329   1.996   4.897  0.3274  0.4334 -0.1247
11431TIP3    H155708   1.263   1.933   4.926  0.0881  1.2541  1.2429
11431TIP3    H255709   1.354   2.043   4.977  2.2133  0.4884 -0.6978
11432TIP3   OH255710   1.813   1.559  16.818 -0.2897  0.3844 -0.0499
11432TIP3    H155711   1.877   1.622  16.784  0.3715 -0.3912 -0.2577
11432TIP3    H255712   1.760   1.611  16.879 -0.7510  1.5094 -1.3560
11433TIP3   OH255713   6.692   5.214  11.304  0.4271 -0.1640 -0.3411
11433TIP3    H155714   6.654   5.242  11.387  1.5185 -0.2011  0.1810
11433TIP3    H255715   6.777   5.257  11.300  1.7568 -2.5558  0.0462
11434TIP3   OH255716   6.282   5.028   0.189  0.0232 -0.2253 -0.1202
11434TIP3    H155717   6.375   5.037   0.167  0.2623 -2.3219 -0.2132
11434TIP3    H255718   6.271   5.080   0.269  1.3749 -0.2225  0.0921
11435TIP3   OH255719   0.238   2.334  14.619  0.3482 -0.5949 -0.4192
11435TIP3    H155720   0.269   2.425  14.619  2.3060 -1.2040 -1.4583
11435TIP3    H255721   0.168   2.334  14.553  0.0847  0.2139 -0.1611
11436TIP3   OH255722   3.500   1.630  15.842  0.2525  0.5715  0.0293
11436TIP3    H155723   3.448   1.622  15.922 -0.2876  0.8604 -0.2853
11436TIP3    H255724   3.470   1.712  15.802  2.8037  2.1741  1.1757
11437TIP3   OH255725   1.820   2.298  14.531 -0.3556  0.2559 -0.3492
11437TIP3    H155726   1.843   2.366  14.468 -1.3846  0.1454 -0.8773
11437TIP3    H255727   1.739   2.330  14.572 -0.0651  0.0091  0.4298
11438TIP3   OH255728   2.583   2.538  13.139 -0.3438 -0.2795  0.1034
11438TIP3    H155729   2.645   2.589  13.192  1.2179 -0.6541 -1.2668
11438TIP3    H255730   2.525   2.603  13.100 -0.7303  0.1009  1.2564
11439TIP3   OH255731   3.787   0.395   5.492  0.4060 -0.1166 -0.6739
11439TIP3    H155732   3.714   0.436   5.445 -0.5792  1.2837  1.8730
11439TIP3    H255733   3.848   0.466   5.509  0.4529 -0.4600  0.6604
11440TIP3   OH255734   1.660   0.566   0.372  0.6162 -0.8440  0.0780
11440TIP3    H155735   1.664   0.478   0.411 -2.9002 -1.0553  0.2992
11440TIP3    H255736   1.604   0.555   0.296  0.0951  1.2248  0.1215
11441TIP3   OH255737   4.872   4.898  14.292  0.3663  0.0442 -0.4099
11441TIP3    H155738   4.861   4.939  14.377 -0.8635  0.0562 -0.5548
11441TIP3    H255739   4.887   4.971  14.232  1.3632  0.0257 -0.1935
11442TIP3   OH255740   5.851   5.074  11.296  0.0964 -0.2379  0.0537
11442TIP3    H155741   5.930   5.102  11.342  0.7742 -3.1206  0.8469
11442TIP3    H255742   5.781   5.084  11.360 -0.2689  2.2725 -0.6335
11443TIP3   OH255743   5.479   0.633   2.167 -0.0287  0.2292  0.1896
11443TIP3    H155744   5.385   0.623   2.182  0.1293 -0.1669  0.9449
11443TIP3    H255745   5.520   0.599   2.246  0.7230  1.4251  0.3443
11444TIP3   OH255746   0.042   0.601   5.932  0.3786  0.3639  0.4317
11444TIP3    H155747   0.130   0.637   5.921  0.4869 -0.1657 -0.6867
11444TIP3    H255748   0.048   0.545   6.009  2.1755 -2.7822 -1.7147
11445TIP3   OH255749   3.542   3.167  12.779 -0.0569 -0.9529  0.1410
11445TIP3    H155750   3.533   3.125  12.693 -0.0146 -1.9419  0.6036
11445TIP3    H255751   3.460   3.214  12.792  0.5327  0.4901 -1.0969
11446TIP3   OH255752   1.321   5.012   6.426  0.3721  0.0206  0.6524
11446TIP3    H155753   1.229   5.038   6.433 -0.3913 -1.9156 -1.1023
11446TIP3    H255754   1.350   4.999   6.516 -1.6718 -1.2084  1.1907
11447TIP3   OH255755   2.010   6.680  12.075 -0.1048  0.0824 -0.3145
11447TIP3    H155756   2.067   6.750  12.104  0.3304 -0.4735  0.1926
11447TIP3    H255757   1.921   6.711  12.093 -0.0035  1.1033 -1.4475
11448TIP3   OH255758   0.782   5.487  14.738 -0.4741  0.6323  0.0846
11448TIP3    H155759   0.875   5.468  14.743 -0.6464  0.0938  1.8928
11448TIP3    H255760   0.745   5.411  14.692 -0.1091  0.5476 -0.0745
11449TIP3   OH255761   2.817   2.423  12.521  0.2555 -0.0146 -0.4150
11449TIP3    H155762   2.813   2.491  12.454 -0.7297  0.0178 -0.3325
11449TIP3    H255763   2.849   2.345  12.475 -0.3387  0.0273 -0.9106
11450TIP3   OH255764   4.153   1.089  16.339  0.6080 -0.8842 -0.0576
11450TIP3    H155765   4.114   1.095  16.427  1.1436 -0.1547  0.1390
11450TIP3    H255766   4.153   0.995  16.320 -0.5774 -0.9540  0.2350
11451TIP3   OH255767   6.592   2.885  15.113  0.2670  0.0141  0.3828
11451TIP3    H155768   6.585   2.877  15.209  0.6227 -0.1351  0.3959
11451TIP3    H255769   6.604   2.795  15.083  2.4862  0.2600  0.3884
11452TIP3   OH255770   3.628   0.417  14.295 -0.5003 -0.7259 -0.3163
11452TIP3    H155771   3.538   0.404  14.265 -0.4040 -2.7359  0.1472
11452TIP3    H255772   3.626   0.395  14.388  0.2201  0.5956  0.0461
11453TIP3   OH255773   0.425   5.973   1.339  0.2912  0.4852 -0.4049
11453TIP3    H155774   0.361   5.962   1.268  1.8938 -0.7981 -1.7293
11453TIP3    H255775   0.408   5.900   1.398  0.1135  0.5098 -0.4257
11454TIP3   OH255776   2.478   3.560   2.910  0.4764  0.6407 -0.6102
11454TIP3    H155777   2.493   3.654   2.906 -0.2642  0.9394  2.0422
11454TIP3    H255778   2.386   3.551   2.933  0.8690 -0.6704  0.5866
11455TIP3   OH255779   4.731   0.509  15.142 -0.1850 -0.4346  0.6402
11455TIP3    H155780   4.804   0.458  15.105 -0.4447 -3.1078  3.4623
11455TIP3    H255781   4.665   0.509  15.073  1.2856 -0.5647 -0.8442
11456TIP3   OH255782   4.665   3.335   4.314  0.1719 -0.1402  0.4538
11456TIP3    H155783   4.582   3.361   4.354  0.1618  1.4097 -0.5285
11456TIP3    H255784   4.722   3.314   4.389 -0.3641  1.0555  1.2262
11457TIP3   OH255785   4.735   1.113   1.395  0.4048 -0.2316 -0.0982
11457TIP3    H155786   4.663   1.161   1.354  0.3495  0.4519  0.7797
11457TIP3    H255787   4.755   1.043   1.333 -0.4132  0.1129 -0.7712
11458TIP3   OH255788   2.874   4.348   1.418  0.4976  0.2469 -0.2129
11458TIP3    H155789   2.781   4.371   1.420  0.5044  0.4992 -1.6119
11458TIP3    H255790   2.897   4.331   1.510 -0.6776  1.1449  0.2698
11459TIP3   OH255791   0.762   2.005  16.454  0.4348 -0.3105  0.0293
11459TIP3    H155792   0.801   2.080  16.499  1.0716 -0.4056 -0.3589
11459TIP3    H255793   0.825   1.934  16.467  0.0434 -0.6672  0.0179
11460TIP3   OH255794   4.674   1.837   5.996  0.7304  0.2299  0.1371
11460TIP3    H155795   4.655   1.842   6.090  1.1879  0.0861  0.2405
11460TIP3    H255796   4.762   1.800   5.992 -0.3095 -2.4109 -0.3929
11461TIP3   OH255797   6.274   0.951   5.622 -0.0552  0.3184  0.4711
11461TIP3    H155798   6.258   1.020   5.686  2.0194 -0.2053  1.6312
11461TIP3    H255799   6.359   0.915   5.645 -0.0188 -1.0874 -1.5346
11462TIP3   OH255800   1.466   1.779   0.361 -0.4441 -0.1756 -0.2885
11462TIP3    H155801   1.537   1.767   0.298 -0.1607  1.1499 -0.2507
11462TIP3    H255802   1.502   1.748   0.444 -0.1808 -0.2041 -0.4133
11463TIP3   OH255803   0.969   0.057   3.059 -0.1058 -0.0556  0.0082
11463TIP3    H155804   0.918  -0.010   3.105  0.2412 -0.1443  0.2678
11463TIP3    H255805   0.906   0.127   3.042  0.3463  1.3526  3.2944
11464TIP3   OH255806   0.517   4.500   3.437 -0.0046  0.6317  0.1341
11464TIP3    H155807   0.481   4.412   3.429  0.6644  0.2977  0.6885
11464TIP3    H255808   0.489   4.530   3.524 -0.5986  1.1462 -0.2244
11465TIP3   OH255809   1.265   5.848  13.827 -0.2976 -0.2894  0.1834
11465TIP3    H155810   1.274   5.928  13.775 -2.3299  0.4338  0.8595
11465TIP3    H255811   1.173   5.846  13.852  0.1933 -1.6953  2.0636
11466TIP3   OH255812   6.750   5.674  12.944  0.1399 -0.4448 -0.5513
11466TIP3    H155813   6.670   5.657  12.993  0.6622 -0.5148  0.2997
11466TIP3    H255814   6.725   5.740  12.879 -1.3016 -2.5910 -2.2857
11467TIP3   OH255815   6.259   5.859   4.504  0.5850  0.0982 -0.0262
11467TIP3    H155816   6.228   5.781   4.550 -1.6770 -0.5004 -2.3559
11467TIP3    H255817   6.331   5.827   4.449  0.4414 -0.0896 -0.1065
11468TIP3   OH255818   5.614   3.068   3.070 -0.1073  0.2746 -0.3604
11468TIP3    H155819   5.709   3.060   3.079 -0.0618  0.9977 -0.1826
11468TIP3    H255820   5.601   3.101   2.981 -0.1721  0.5824 -0.2365
11469TIP3   OH255821   5.874   4.231   0.238  0.6026 -0.1125 -0.2124
11469TIP3    H155822   5.823   4.155   0.208  0.0218  0.4316 -0.6463
11469TIP3    H255823   5.831   4.258   0.319 -0.4909  0.9643 -1.0940
11470TIP3   OH255824   5.511   4.541  16.613 -0.4310 -0.3012 -0.0402
11470TIP3    H155825   5.606   4.542  16.617 -0.1865  4.6311 -0.6401
11470TIP3    H255826   5.491   4.514  16.523  0.3474 -1.3202  0.0746
11471TIP3   OH255827   2.585   6.188   4.511  0.2323  0.1328  0.0731
11471TIP3    H155828   2.586   6.096   4.537 -0.4036 -0.5678 -2.1727
11471TIP3    H255829   2.493   6.209   4.499  0.2136  1.6595  2.3256
11472TIP3   OH255830   5.242   0.926   0.225  0.0418 -0.4372 -0.0845
11472TIP3    H155831   5.331   0.935   0.190 -0.1168 -1.7606 -0.9046
11472TIP3    H255832   5.243   0.975   0.307  1.4504 -0.2089 -0.2191
11473TIP3   OH255833   4.222   2.266  15.557 -0.4760  0.3157  0.1529
11473TIP3    H155834   4.212   2.175  15.581  1.2438 -0.2760 -1.1308
11473TIP3    H255835   4.195   2.270  15.465 -0.8763  1.1780  0.2934
11474TIP3   OH255836   6.197   2.743  13.535  0.3736  0.4434 -0.0765
11474TIP3    H155837   6.270   2.731  13.596  0.8938 -0.9770 -0.9346
11474TIP3    H255838   6.203   2.669  13.475 -2.4085 -0.3188  0.4360
11475TIP3   OH255839   6.144   5.884   6.275 -0.6839  0.0718  0.5963
11475TIP3    H155840   6.232   5.871   6.240 -0.3016  0.9022  1.2228
11475TIP3    H255841   6.127   5.807   6.329 -0.7571 -0.5782 -0.3234
11476TIP3   OH255842   6.564   3.628  14.395 -0.1873 -0.0035  0.3443
11476TIP3    H155843   6.531   3.679  14.321  0.2225 -0.3337 -0.0686
11476TIP3    H255844   6.489   3.619  14.454 -0.7990 -0.6285 -0.5186
11477TIP3   OH255845   2.753   3.276   4.162 -0.3113  0.0932 -0.3887
11477TIP3    H155846   2.757   3.184   4.135  0.2342 -0.1276  0.4219
11477TIP3    H255847   2.718   3.274   4.251 -0.3764  0.6788 -0.3968
11478TIP3   OH255848   4.684   0.032  15.592 -0.2118  0.3285 -0.4491
11478TIP3    H155849   4.612   0.095  15.601  0.8645  1.4656  0.6765
11478TIP3    H255850   4.652  -0.047  15.636 -0.6661  0.9294  0.3301
11479TIP3   OH255851   0.741   5.620   3.298  0.4315 -0.7885 -0.1341
11479TIP3    H155852   0.739   5.706   3.340  2.7390 -0.1475 -1.1540
11479TIP3    H255853   0.652   5.586   3.308 -1.0699  2.4139 -1.1225
11480TIP3   OH255854   4.947   2.118   5.387 -0.4213 -0.0354 -0.1756
11480TIP3    H155855   5.042   2.111   5.384 -0.5666 -2.5537 -0.3527
11480TIP3    H255856   4.922   2.146   5.298  0.0777 -0.4078 -0.4320
11481TIP3   OH255857   6.296   3.380  15.243 -0.6220 -0.0288 -0.2755
11481TIP3    H155858   6.276   3.389  15.150 -2.9479  0.8780  0.2305
11481TIP3    H255859   6.231   3.317  15.275  0.2680 -0.4752  0.7051
11482TIP3   OH255860   3.626   6.588   1.576  0.5549 -0.1375 -0.2912
11482TIP3    H155861   3.658   6.517   1.522  1.5271 -0.3636  0.5452
11482TIP3    H255862   3.561   6.547   1.634 -0.1014  0.0019 -0.9123
11483TIP3   OH255863   4.280   1.177  15.951  0.1235  0.0739 -0.3638
11483TIP3    H155864   4.271   1.225  16.033 -0.3832 -1.0865  0.2932
11483TIP3    H255865   4.340   1.105  15.972 -1.3301 -1.2345 -0.5117
11484TIP3   OH255866   0.547   2.155  10.789  0.4472 -0.1984 -0.0639
11484TIP3    H155867   0.616   2.105  10.832 -0.7364 -0.2097  1.9389
11484TIP3    H255868   0.587   2.240  10.770  0.8776  0.0310  1.6767
11485TIP3   OH255869   6.532   6.076  11.406  0.2065  0.0578 -0.1551
11485TIP3    H155870   6.590   6.044  11.476 -1.3995 -1.9248  0.3616
11485TIP3    H255871   6.557   6.024  11.329 -0.1195 -0.0078 -0.2165
11486TIP3   OH255872   3.934   0.962   2.827  0.3667  0.3404 -0.3142
11486TIP3    H155873   3.872   0.973   2.899  0.7709  1.6843 -0.1465
11486TIP3    H255874   4.001   1.029   2.842  3.1242 -2.4013  0.7352
11487TIP3   OH255875   6.777   2.273   2.250 -0.0712  0.4411 -0.2886
11487TIP3    H155876   6.681   2.273   2.249 -0.1410 -0.1221  1.7238
11487TIP3    H255877   6.802   2.204   2.188 -0.9802  0.3519 -0.5644
11488TIP3   OH255878   6.366   5.244  11.356 -0.5490  0.0555 -0.0071
11488TIP3    H155879   6.334   5.165  11.401 -0.1313  0.0984  0.3748
11488TIP3    H255880   6.298   5.264  11.292 -1.6918  0.6297  1.3307
11489TIP3   OH255881   4.292   1.024   2.104  0.1313 -0.3963 -0.7424
11489TIP3    H155882   4.303   1.096   2.166  0.7868  0.0733 -1.3911
11489TIP3    H255883   4.224   1.054   2.044  0.2250 -0.4269 -0.8636
11490TIP3   OH255884   6.187   2.018  10.044  0.8481 -0.4737  0.3027
11490TIP3    H155885   6.149   2.016  10.132  0.4171  1.9019  0.2248
11490TIP3    H255886   6.113   1.999   9.986 -0.1172  2.8149  0.2398
11491TIP3   OH255887   4.097   1.311  16.955  0.0273 -0.5152 -0.6904
11491TIP3    H155888   4.068   1.363  17.030 -0.3066 -0.2916 -0.9693
11491TIP3    H255889   4.021   1.309  16.897  0.8034  0.7851 -1.8246
11492TIP3   OH255890   3.171   4.962  14.862 -0.0208 -0.2814 -0.1488
11492TIP3    H155891   3.154   5.048  14.900  1.8279  0.3937 -0.7398
11492TIP3    H255892   3.178   4.904  14.938 -2.2916 -0.1502  0.2082
11493TIP3   OH255893   1.286   1.663   4.829  0.1686  0.5134  0.0190
11493TIP3    H155894   1.231   1.710   4.891 -0.5499  1.2947 -1.1521
11493TIP3    H255895   1.252   1.690   4.743  1.1900 -0.4416 -0.7062
11494TIP3   OH255896   4.862   0.573   0.309  0.7888 -0.0772 -0.0781
11494TIP3    H155897   4.812   0.609   0.382 -0.8905 -1.8166 -0.2770
11494TIP3    H255898   4.864   0.644   0.244 -1.1735  0.1915  0.1008
11495TIP3   OH255899   0.343   1.632   2.061  0.5922 -0.1037  0.2199
11495TIP3    H155900   0.372   1.594   2.144 -1.0957  2.2272  2.0198
11495TIP3    H255901   0.288   1.564   2.022 -1.7793 -0.0207  2.9818
11496TIP3   OH255902   3.700   4.433   5.665 -0.2553 -0.0604 -0.2216
11496TIP3    H155903   3.665   4.348   5.638  0.4765  0.1042 -1.7748
11496TIP3    H255904   3.741   4.469   5.586  0.2606  1.3320  0.6381
11497TIP3   OH255905   5.629   0.762  11.317 -0.0860 -0.4425 -0.0966
11497TIP3    H155906   5.723   0.745  11.314 -0.0388 -0.2749 -3.8720
11497TIP3    H255907   5.589   0.682  11.284 -0.9917  0.5933 -1.6505
11498TIP3   OH255908   0.894   1.894  14.814 -0.0730  0.4375  0.3249
11498TIP3    H155909   0.899   1.825  14.748 -1.5737  0.4699  0.1386
11498TIP3    H255910   0.915   1.850  14.896  0.6244  0.1305 -0.0124
11499TIP3   OH255911   0.015   0.747  13.410  0.2207 -0.2688  0.6207
11499TIP3    H155912   0.015   0.745  13.506  0.7212  0.9349  0.6634
11499TIP3    H255913  -0.030   0.828  13.388 -0.7009 -0.9861 -0.1981
11500TIP3   OH255914   4.337   0.668   3.032  0.1164  0.4473  0.0002
11500TIP3    H155915   4.337   0.573   3.046  1.1859  0.5578  0.8674
11500TIP3    H255916   4.321   0.678   2.938 -2.3198 -0.4967  0.2356
11501TIP3   OH255917   0.213   4.603  11.544  0.6827  0.5710 -0.0285
11501TIP3    H155918   0.295   4.553  11.550  0.4938  0.2957  0.2395
11501TIP3    H255919   0.145   4.537  11.532  0.6074  0.8452 -1.3595
11502TIP3   OH255920   4.913   1.060   6.096 -0.2398  0.2651  0.1111
11502TIP3    H155921   4.827   1.087   6.127 -0.2881 -1.4829  1.7259
11502TIP3    H255922   4.954   1.019   6.173  0.6090 -2.1938 -1.5308
11503TIP3   OH255923   2.114   4.011   2.451  0.4762 -0.1088  0.4349
11503TIP3    H155924   2.091   3.945   2.385 -0.4241  1.2841 -0.6883
11503TIP3    H255925   2.121   3.961   2.533  0.4980 -1.6927 -0.4968
11504TIP3   OH255926   6.778   2.752  11.553 -0.5027 -0.0701 -0.1751
11504TIP3    H155927   6.755   2.673  11.603 -1.5232 -1.7689 -3.0417
11504TIP3    H255928   6.825   2.718  11.477  0.8987  2.3496 -0.4666
11505TIP3   OH255929   3.637   5.560  16.759  0.7043  0.0849 -0.1510
11505TIP3    H155930   3.631   5.586  16.667  0.1937  1.1426  0.1538
11505TIP3    H255931   3.547   5.566  16.791  0.6406 -1.6613  0.0843
11506TIP3   OH255932   4.915   2.797  12.314 -0.3439 -0.2237  0.0763
11506TIP3    H155933   4.825   2.765  12.321  0.4632 -2.3911  2.0067
11506TIP3    H255934   4.919   2.871  12.375 -0.5810 -0.8076  0.8173
11507TIP3   OH255935   3.913   3.518  15.893  0.5453 -0.7284  0.1760
11507TIP3    H155936   3.826   3.478  15.887  1.8372 -3.7012 -0.8022
11507TIP3    H255937   3.925   3.561  15.808 -0.8873  2.0767  1.2637
11508TIP3   OH255938   4.241   0.442  12.084 -0.2525  0.3545 -0.2164
11508TIP3    H155939   4.210   0.525  12.120  0.1512  0.4985 -0.2009
11508TIP3    H255940   4.174   0.379  12.109 -0.5384  0.6685 -0.1914
11509TIP3   OH255941   5.679   2.443  15.639 -0.5022 -0.4320  0.3695
11509TIP3    H155942   5.757   2.480  15.598 -1.9084  0.8398 -1.3215
11509TIP3    H255943   5.670   2.356  15.602 -1.4508  0.5002 -1.7914
11510TIP3   OH255944   3.032   5.485  11.246  0.5315  0.0490 -0.1818
11510TIP3    H155945   3.005   5.576  11.247 -0.7297 -0.2748 -1.5619
11510TIP3    H255946   2.959   5.437  11.286  0.9435 -0.4157  0.0355
11511TIP3   OH255947   5.618   1.286   5.366 -0.5579 -0.0171 -0.4380
11511TIP3    H155948   5.710   1.278   5.340 -0.8301  1.4285 -2.0024
11511TIP3    H255949   5.610   1.375   5.399 -1.5742  0.1548 -1.1162
11512TIP3   OH255950   2.801   3.292   4.452  0.1538 -0.3158 -0.3201
11512TIP3    H155951   2.864   3.220   4.447 -0.3525 -0.7572 -0.4010
11512TIP3    H255952   2.842   3.355   4.513  0.5290 -0.7357 -0.1290
11513TIP3   OH255953   6.523   6.584  13.387 -0.4440 -0.0072  0.4938
11513TIP3    H155954   6.432   6.591  13.359 -0.2629  2.0196  0.2733
11513TIP3    H255955   6.571   6.561  13.307 -0.7173 -0.8468  0.5641
11514TIP3   OH255956   0.784   4.144   5.577  0.1532 -0.2794 -0.1413
11514TIP3    H155957   0.737   4.154   5.660  0.0511  0.3801 -0.2740
11514TIP3    H255958   0.857   4.086   5.598  2.2033  2.5661  1.2927
11515TIP3   OH255959   3.456   3.400   3.722  0.5432  0.1325  0.2534
11515TIP3    H155960   3.406   3.442   3.652 -0.7658 -1.1551  0.3676
11515TIP3    H255961   3.486   3.317   3.684  3.6819  1.3403 -0.2028
11516TIP3   OH255962   4.092   4.999  12.725 -0.0567 -0.4150 -0.6698
11516TIP3    H155963   4.181   5.027  12.701 -0.2915  0.9156 -0.0776
11516TIP3    H255964   4.099   4.904  12.735  1.8304 -0.1437  1.4687
11517TIP3   OH255965   6.092   3.607   1.521 -0.2207 -0.2498  0.0920
11517TIP3    H155966   6.079   3.659   1.442  1.0290 -1.0981 -0.7023
11517TIP3    H255967   6.006   3.569   1.539 -1.0128  1.5929  0.3570
11518TIP3   OH255968   6.517   5.391   2.569 -0.3065 -0.1184  0.2952
11518TIP3    H155969   6.429   5.395   2.533 -0.2677 -2.6946 -0.2953
11518TIP3    H255970   6.522   5.465   2.629 -1.6989  2.0667 -2.0849
11519TIP3   OH255971   1.310   3.334  16.717  0.0995 -0.3934  0.4097
11519TIP3    H155972   1.289   3.420  16.679 -1.8666 -0.7907  0.4738
11519TIP3    H255973   1.358   3.288  16.649  0.8943  0.6383  0.2539
11520TIP3   OH255974   6.365   1.579  15.472 -0.6944 -0.1132 -0.2117
11520TIP3    H155975   6.452   1.551  15.443 -1.0674 -0.9959 -0.5038
11520TIP3    H255976   6.313   1.499  15.475 -1.0070  0.1276  1.7650
11521TIP3   OH255977   5.827   2.347  13.486 -0.1562  0.4826 -0.1309
11521TIP3    H155978   5.764   2.352  13.414  0.7726  0.0678 -0.9980
11521TIP3    H255979   5.907   2.315  13.445  1.1917  2.7448  0.5603
11522TIP3   OH255980   2.155   0.609  13.945 -0.2602 -0.1045 -0.6689
11522TIP3    H155981   2.105   0.533  13.973 -0.2910 -0.2796 -1.2010
11522TIP3    H255982   2.146   0.671  14.018  1.1487 -1.2233  0.5361
11523TIP3   OH255983   2.363   5.617  14.089  0.0829 -0.4188 -0.2826
11523TIP3    H155984   2.453   5.627  14.057 -0.3380 -0.5790 -1.6096
11523TIP3    H255985   2.322   5.702  14.072  1.0224  1.1740  4.1716
11524TIP3   OH255986   0.087   5.562   4.449  0.4436  0.6243 -0.2567
11524TIP3    H155987   0.085   5.483   4.503  1.3437  1.4720  1.0962
11524TIP3    H255988   0.157   5.615   4.487 -0.0843  2.0429 -1.1747
11525TIP3   OH255989   1.948   6.124  11.908  0.7552 -0.6682 -0.2249
11525TIP3    H155990   1.977   6.149  11.996  0.7345 -0.1266 -0.3718
11525TIP3    H255991   2.014   6.161  11.850 -0.4426  0.9815 -0.5971
11526TIP3   OH255992   5.008   5.752  12.995  0.1096 -0.6830 -0.6095
11526TIP3    H155993   4.920   5.716  12.989  0.3650 -1.3248 -0.5107
11526TIP3    H255994   5.065   5.684  12.960  0.5992 -0.4000 -0.3800
11527TIP3   OH255995   4.282   1.807   5.864 -0.1614 -0.6200 -0.4686
11527TIP3    H155996   4.337   1.745   5.815  0.1693  0.6421 -1.7493
11527TIP3    H255997   4.202   1.812   5.813 -0.1770  0.0170 -0.3827
11528TIP3   OH255998   2.946   6.304   6.056  0.0099  0.6840  0.1275
11528TIP3    H155999   2.983   6.391   6.040 -1.1077  1.1506 -0.0226
11528TIP3    H256000   3.011   6.243   6.019 -0.6318  1.5665 -2.7346
11529TIP3   OH256001   4.216   3.622  11.710  0.1334 -0.2460  0.6181
11529TIP3    H156002   4.187   3.542  11.755 -0.2362 -0.3416  0.2161
11529TIP3    H256003   4.172   3.693  11.756 -0.8354 -0.3974 -0.0466
11530TIP3   OH256004   0.174   2.577   5.482  0.2806  0.1140 -0.1804
11530TIP3    H156005   0.165   2.536   5.568 -0.2621  0.2455 -0.1683
11530TIP3    H256006   0.104   2.538   5.430  0.6695 -0.0377 -0.5920
11531TIP3   OH256007   6.023   3.921   3.952  0.4514 -0.1526  0.1095
11531TIP3    H156008   5.949   3.875   3.913 -1.3403  2.2833  0.3738
11531TIP3    H256009   6.045   3.870   4.030 -0.3520 -1.4215 -0.4660
11532TIP3   OH256010   5.531   4.176  11.970  0.4874  0.0795  0.0654
11532TIP3    H156011   5.549   4.132  11.887 -0.1339  1.7867 -1.0221
11532TIP3    H256012   5.592   4.249  11.973 -0.1493  0.6072  0.6278
11533TIP3   OH256013   0.250   5.763   2.101  0.1652 -0.4959  0.1367
11533TIP3    H156014   0.211   5.825   2.162  0.3900 -0.2891  0.0732
11533TIP3    H256015   0.246   5.679   2.146 -0.8658 -0.5882 -0.0927
11534TIP3   OH256016   2.607   0.248   5.127  0.1979  0.2423  0.1283
11534TIP3    H156017   2.524   0.293   5.110  0.6394  1.3629  0.8130
11534TIP3    H256018   2.582   0.158   5.146 -0.8824  0.6178  0.5542
11535TIP3   OH256019   0.143   1.482   1.663  0.0210 -0.2123  0.3671
11535TIP3    H156020   0.117   1.526   1.744 -1.0156  0.1823 -0.1620
11535TIP3    H256021   0.155   1.554   1.601  0.4385 -0.5405  0.0686
11536TIP3   OH256022   3.355   3.319  15.493  0.0037  0.3386 -0.4920
11536TIP3    H156023   3.326   3.327  15.584  0.7991 -0.0276 -0.1948
11536TIP3    H256024   3.307   3.387  15.447 -0.3684  0.5710  0.2154
11537TIP3   OH256025   4.914   2.188   5.107 -0.1538  0.2649  0.3609
11537TIP3    H156026   4.848   2.123   5.129  0.2885  0.1176  1.3024
11537TIP3    H256027   4.943   2.165   5.019  0.7013 -1.4161  1.0535
11538TIP3   OH256028   5.981   2.548   5.819 -0.6564 -0.1014 -0.4404
11538TIP3    H156029   6.047   2.614   5.798 -0.5534 -0.3563 -0.9382
11538TIP3    H256030   6.031   2.468   5.835 -0.9134 -0.6799 -2.3418
11539TIP3   OH256031   4.416   2.875  13.394 -0.3224  0.4043  0.1167
11539TIP3    H156032   4.321   2.873  13.410 -0.4042  1.0690 -0.2607
11539TIP3    H256033   4.424   2.881  13.299  0.1058  0.1661  0.1373
11540TIP3   OH256034   3.564   5.875  11.930 -0.4594 -0.1846  0.3406
11540TIP3    H156035   3.506   5.836  11.865  1.3253  1.1337 -2.2481
11540TIP3    H256036   3.640   5.816  11.932 -0.4734 -0.1765  1.2019
11541TIP3   OH256037   1.669   3.333   5.041 -0.0499  0.2221 -0.4682
11541TIP3    H156038   1.763   3.349   5.048 -0.0272  1.4141 -2.6182
11541TIP3    H256039   1.658   3.243   5.072  1.8288 -0.0033 -0.3434
11542TIP3   OH256040   6.287   3.046   2.056  0.1690  0.0513 -1.1396
11542TIP3    H156041   6.225   3.085   1.996 -2.0368  0.7373  1.3803
11542TIP3    H256042   6.351   3.116   2.074 -0.3433  0.5288 -1.1526
11543TIP3   OH256043   5.315   1.751   0.652  0.5174  0.1315 -0.2670
11543TIP3    H156044   5.370   1.798   0.716  0.5831 -0.8905  0.4527
11543TIP3    H256045   5.305   1.813   0.579 -0.8704  1.9652  1.3636
11544TIP3   OH256046   5.724   0.043   1.929  0.1691 -0.1892 -0.3055
11544TIP3    H156047   5.724  -0.003   1.845  0.9489 -0.2508 -0.2851
11544TIP3    H256048   5.771   0.125   1.910  1.4716 -0.7541  0.3442
11545TIP3   OH256049   6.268   1.004  13.784  0.1443  1.2583  0.3527
11545TIP3    H156050   6.270   1.083  13.839 -1.9488  2.1244 -0.6874
11545TIP3    H256051   6.187   0.960  13.808  0.0050  0.7951 -0.8848
11546TIP3   OH256052   3.052   1.740  12.830  0.2952 -0.3252 -0.0878
11546TIP3    H156053   2.983   1.784  12.879  1.8072  2.5541 -0.3098
11546TIP3    H256054   3.005   1.691  12.762 -1.5658  1.6276 -0.3277
11547TIP3   OH256055   2.175   5.137   3.124  0.4116  0.3135  0.0777
11547TIP3    H156056   2.202   5.201   3.058  0.4441  1.0090  0.7543
11547TIP3    H256057   2.177   5.053   3.078  0.7148  0.7496 -0.7245
11548TIP3   OH256058   6.085   2.610   0.510 -0.1200  0.2667  0.5577
11548TIP3    H156059   6.169   2.566   0.495 -0.3758  0.2844 -1.0913
11548TIP3    H256060   6.107   2.704   0.508 -0.0826  0.2642  0.8018
11549TIP3   OH256061   2.916   4.957   2.113  0.2398 -0.2191  0.5847
11549TIP3    H156062   2.870   5.033   2.148 -0.3356 -0.6080  0.6976
11549TIP3    H256063   2.959   4.989   2.034 -0.8626 -0.0089  0.0436
11550TIP3   OH256064   2.627   4.255  15.392 -0.7046  0.1974 -0.1949
11550TIP3    H156065   2.581   4.339  15.395 -1.5652 -0.2844  1.4947
11550TIP3    H256066   2.574   4.197  15.446 -1.1857 -2.0090 -2.7786
11551TIP3   OH256067   4.465   0.702  12.781  0.1666 -0.6379  0.5082
11551TIP3    H156068   4.397   0.748  12.831  1.6831  1.2465  0.9609
11551TIP3    H256069   4.434   0.612  12.778 -1.7740 -0.1015  1.7125
11552TIP3   OH256070   5.674   6.703  14.073  0.4817  0.3952  0.0601
11552TIP3    H156071   5.759   6.704  14.028  0.7817  3.4741  0.4662
11552TIP3    H256072   5.626   6.775  14.033 -1.3792 -0.3225  0.9281
11553TIP3   OH256073   4.740   4.082  12.582  0.1447 -0.0924  0.4805
11553TIP3    H156074   4.673   4.130  12.631  0.6931  0.4718  0.6934
11553TIP3    H256075   4.779   4.148  12.524  1.7307  0.0469  1.6364
11554TIP3   OH256076   5.555   4.770   5.579 -0.5524 -0.2681 -0.4069
11554TIP3    H156077   5.486   4.735   5.636  0.4728 -0.7555  0.5726
11554TIP3    H256078   5.629   4.712   5.592  0.2361  0.5734 -1.0141
11555TIP3   OH256079   0.171   0.968  14.744  0.0166 -0.2107  0.0457
11555TIP3    H156080   0.126   0.943  14.664  1.8656  1.2987 -1.5812
11555TIP3    H256081   0.246   1.020  14.714  1.0892 -0.0332  2.7347
11556TIP3   OH256082   3.860   5.575  10.359  0.3904 -0.4266 -0.2045
11556TIP3    H156083   3.840   5.665  10.332  0.3311 -0.3592  0.0556
11556TIP3    H256084   3.835   5.521  10.285 -1.3310 -0.4133  0.3334
11557TIP3   OH256085   5.260   4.748  13.251  0.1692  0.0738 -0.4145
11557TIP3    H156086   5.310   4.789  13.322  0.2158  0.9520 -0.9304
11557TIP3    H256087   5.317   4.679  13.218  0.2395 -0.1919  0.2473
11558TIP3   OH256088   1.585   1.393   2.297  0.1241 -0.0305 -0.1379
11558TIP3    H156089   1.647   1.336   2.343  0.4146  0.1188 -0.3448
11558TIP3    H256090   1.513   1.336   2.272  0.4856 -0.3362 -0.4798
11559TIP3   OH256091   1.117   4.778   0.834 -0.0044 -0.4089  0.1391
11559TIP3    H156092   1.195   4.723   0.845 -0.4166 -0.8664  0.8418
11559TIP3    H256093   1.089   4.761   0.744  1.5799  0.9432 -0.6555
11560TIP3   OH256094   0.772   6.127   2.870  0.4273 -0.0955  0.6153
11560TIP3    H156095   0.824   6.119   2.790 -0.5524 -3.3655  0.1643
11560TIP3    H256096   0.834   6.109   2.941  1.1478  2.1469  0.6340
11561TIP3   OH256097   6.027   1.697  14.070  0.5966 -0.4501 -0.4164
11561TIP3    H156098   6.111   1.663  14.039 -0.1059 -2.9182  0.1503
11561TIP3    H256099   5.965   1.673  14.001  0.1638  0.2717 -0.2797
11562TIP3   OH256100   5.316   1.572  15.560 -0.6776  0.0103  0.4223
11562TIP3    H156101   5.268   1.521  15.625 -1.5581 -0.5763 -0.6567
11562TIP3    H256102   5.256   1.580  15.486  0.1334  1.0526 -0.1484
11563TIP3   OH256103   0.491   2.513   2.559 -0.2709  0.1659 -0.5444
11563TIP3    H156104   0.513   2.421   2.547  1.1397  0.5329 -0.9764
11563TIP3    H256105   0.429   2.514   2.632 -1.0851 -1.1958 -1.1849
11564TIP3   OH256106   3.548   2.021  11.058 -0.7102  0.8332 -0.2248
11564TIP3    H156107   3.517   1.969  11.132 -0.9608  0.8320 -0.3319
11564TIP3    H256108   3.542   2.112  11.088 -1.6911  0.8955 -0.5676
11565TIP3   OH256109   5.709   1.112  12.618 -0.2985  0.8064 -0.1445
11565TIP3    H156110   5.675   1.033  12.577  0.7680  1.4991 -2.5133
11565TIP3    H256111   5.661   1.184  12.577  1.0016  1.5514 -0.4154
11566TIP3   OH256112   6.806   3.072  10.555 -0.2446 -0.2458  0.2676
11566TIP3    H156113   6.861   3.031  10.488  1.5629  1.5834  0.5283
11566TIP3    H256114   6.853   3.152  10.578 -1.7530  0.0951  2.4176
11567TIP3   OH256115   5.775   1.613  11.295  0.1384  0.1424 -0.2217
11567TIP3    H156116   5.740   1.540  11.243  0.0642 -0.1470  0.2272
11567TIP3    H256117   5.714   1.621  11.368 -1.3268  2.3107 -1.5724
11568TIP3   OH256118   2.297   6.325  15.032 -0.2473 -0.3805  0.0427
11568TIP3    H156119   2.372   6.364  15.076 -0.7544 -0.2704  0.8275
11568TIP3    H256120   2.247   6.284  15.102 -1.0761 -0.1995 -0.4339
11569TIP3   OH256121   6.250   3.377  11.910 -0.0133 -0.6313 -0.0447
11569TIP3    H156122   6.209   3.455  11.872  0.3991  0.3038  1.3226
11569TIP3    H256123   6.184   3.344  11.972  0.4781 -0.3163  0.6642
11570TIP3   OH256124   5.822   2.182   4.026  0.3777 -0.0493 -0.5566
11570TIP3    H156125   5.779   2.096   4.030  1.2142 -0.4545  1.2591
11570TIP3    H256126   5.885   2.174   3.954  0.8546 -1.1975 -0.0445
11571TIP3   OH256127   6.059   3.260   4.258  0.5318 -0.1657 -0.2347
11571TIP3    H156128   6.068   3.224   4.169  1.2449  0.6694 -0.5233
11571TIP3    H256129   5.970   3.296   4.260  1.5001  2.7170 -1.8005
11572TIP3   OH256130   6.437   0.822   2.961 -0.4412  0.2995 -0.1625
11572TIP3    H156131   6.368   0.755   2.959  1.9967 -2.3608 -0.5482
11572TIP3    H256132   6.463   0.827   3.053 -1.4241  1.6904  0.0709
11573TIP3   OH256133   3.125   5.818   1.732 -0.1042 -0.1172 -0.2329
11573TIP3    H156134   3.214   5.853   1.727 -0.2882  0.6609  1.3280
11573TIP3    H256135   3.077   5.863   1.663  0.7748 -0.8621 -1.3888
11574TIP3   OH256136   2.099   5.294  15.948  0.1465  0.2350 -0.5425
11574TIP3    H156137   2.136   5.221  15.998 -0.2728  0.3523 -0.0496
11574TIP3    H256138   2.149   5.370  15.977  0.0364  0.2725 -0.4532
11575TIP3   OH256139   0.132   6.684  13.903 -0.0950  0.0135 -0.1354
11575TIP3    H156140   0.159   6.767  13.864  1.0770 -0.2433  0.0714
11575TIP3    H256141   0.075   6.709  13.975 -0.9287  0.5623 -0.9708
11576TIP3   OH256142   3.898   6.517  16.956  0.0822 -0.7293 -0.1118
11576TIP3    H156143   3.814   6.525  17.000  0.4502  0.7857  0.3821
11576TIP3    H256144   3.938   6.438  16.993 -0.5708 -0.7331  0.5905
11577TIP3   OH256145   2.336   5.141  15.221  0.0454 -0.6366 -0.4254
11577TIP3    H156146   2.288   5.222  15.240  0.1075 -0.6659 -0.1369
11577TIP3    H256147   2.413   5.170  15.172 -0.5465 -0.6463 -1.3702
11578TIP3   OH256148   5.432   2.402  10.333 -0.0207  0.8760 -0.1901
11578TIP3    H156149   5.498   2.343  10.369 -1.0541  0.8181  1.7776
11578TIP3    H256150   5.381   2.429  10.409 -0.3892  3.3081 -1.1928
11579TIP3   OH256151   2.956   2.567   5.423  0.6743 -0.8268  0.1656
11579TIP3    H156152   2.865   2.559   5.452  0.4867 -0.2543 -0.2544
11579TIP3    H256153   2.993   2.479   5.434  0.1898 -0.9634  0.7298
11580TIP3   OH256154   6.671   3.629   2.940 -0.1825 -0.4877  0.2858
11580TIP3    H156155   6.734   3.699   2.954 -0.4404 -0.0545 -0.6283
11580TIP3    H256156   6.589   3.674   2.919 -0.6270 -1.0497  0.7710
11581TIP3   OH256157   2.201   4.088  14.753 -0.0143 -0.7873 -0.0230
11581TIP3    H156158   2.247   4.056  14.675 -0.0484  1.5141 -1.0772
11581TIP3    H256159   2.269   4.127  14.807 -0.2830 -0.3306 -0.0067
11582TIP3   OH256160   3.385   5.669   2.980 -0.1705  0.2798 -0.2547
11582TIP3    H156161   3.339   5.672   3.063 -0.8401  0.3516 -0.6183
11582TIP3    H256162   3.453   5.735   2.987 -0.5500  0.6416  0.0441
11583TIP3   OH256163   4.229   3.074  16.376  0.1623 -0.0549  0.3064
11583TIP3    H156164   4.142   3.042  16.353 -0.1409  1.1075 -0.2113
11583TIP3    H256165   4.216   3.126  16.455  0.6106 -0.9527  0.9913
11584TIP3   OH256166   6.011   2.915   5.602 -0.0043 -0.0501 -0.7883
11584TIP3    H156167   6.094   2.959   5.621 -0.9766  0.8492  1.8678
11584TIP3    H256168   5.948   2.986   5.592 -0.7807 -0.7563 -1.0308
11585TIP3   OH256169   1.656   3.978  14.350  0.4413 -0.6546 -0.4831
11585TIP3    H156170   1.680   4.043  14.415 -1.1662 -0.7281  0.2513
11585TIP3    H256171   1.727   3.980  14.286  1.5646  0.1382  0.7374
11586TIP3   OH256172   3.237   0.664  12.946  0.5198  0.3718 -0.3976
11586TIP3    H156173   3.196   0.748  12.966  3.5643  1.9134 -0.0034
11586TIP3    H256174   3.220   0.610  13.023 -1.6513  0.4889 -0.7378
11587TIP3   OH256175   3.398   2.443   1.679  0.2894  0.4290  0.2928
11587TIP3    H156176   3.424   2.483   1.596 -0.5694 -0.6930 -0.5493
11587TIP3    H256177   3.363   2.357   1.654 -0.5876  0.3322  1.7527
11588TIP3   OH256178   1.199   6.362   2.709 -0.2552  0.2957 -0.6384
11588TIP3    H156179   1.257   6.439   2.708  0.3353 -0.0495 -3.5776
11588TIP3    H256180   1.111   6.398   2.707 -0.3167  0.8321  3.5355
11589TIP3   OH256181   4.937   5.916  14.889 -0.3434  0.1664  0.0180
11589TIP3    H156182   4.920   5.866  14.968  1.0021 -1.0174 -0.4110
11589TIP3    H256183   4.855   5.909  14.839 -1.2262  0.9889  1.3035
11590TIP3   OH256184   4.297   0.866   5.360 -0.6152  0.0120  0.1481
11590TIP3    H156185   4.317   0.776   5.387  1.5965  1.1240  2.7160
11590TIP3    H256186   4.282   0.860   5.266 -0.5986 -3.0320  0.2309
11591TIP3   OH256187   6.571   5.159   2.879  0.6028  0.0706 -0.7809
11591TIP3    H156188   6.482   5.155   2.914  0.5987  1.4464 -0.5518
11591TIP3    H256189   6.603   5.069   2.883 -1.0855 -0.6339 -1.7178
11592TIP3   OH256190   2.932   6.283   1.681  0.7239 -0.2485  0.2695
11592TIP3    H156191   2.983   6.294   1.601  1.3264 -0.6943  0.5833
11592TIP3    H256192   2.846   6.254   1.651  1.2983 -1.5790 -0.1751
11593TIP3   OH256193   1.695   2.173  14.265 -0.9517  0.5466  0.5466
11593TIP3    H156194   1.764   2.235  14.243 -1.5002  0.3274 -2.1618
11593TIP3    H256195   1.642   2.168  14.185 -1.0591 -3.2206  0.6879
11594TIP3   OH256196   4.468   3.944  16.425 -0.4735 -0.0004 -0.5962
11594TIP3    H156197   4.524   3.887  16.373  0.0669  0.6298 -0.7255
11594TIP3    H256198   4.411   3.884  16.473  1.1681 -0.7416  0.5314
11595TIP3   OH256199   6.112   0.618  13.746  0.4039 -0.2476  0.5911
11595TIP3    H156200   6.077   0.541  13.790  0.1057 -0.0896  0.6311
11595TIP3    H256201   6.113   0.686  13.813 -1.7619  0.5160 -0.0747
11596TIP3   OH256202   1.158   6.795   0.865  0.0772  0.1868 -0.5062
11596TIP3    H156203   1.225   6.858   0.838  0.4704  0.5082  1.1319
11596TIP3    H256204   1.167   6.722   0.804  2.1474  0.0797 -0.1350
11597TIP3   OH256205   2.829   0.671   0.197  0.9038  0.0541  0.3362
11597TIP3    H156206   2.902   0.672   0.260  0.9256  1.4039  0.3123
11597TIP3    H256207   2.829   0.582   0.162  1.4403 -0.4693  1.6099
11598TIP3   OH256208   4.896   6.347   6.337 -0.1442  0.3411  0.3656
11598TIP3    H156209   4.918   6.408   6.406  0.0960 -0.8471  1.3790
11598TIP3    H256210   4.877   6.402   6.261 -0.4168  1.6734  1.3634
11599TIP3   OH256211   4.794   5.796  13.888 -0.4061 -0.5621  0.3456
11599TIP3    H156212   4.715   5.786  13.942 -0.1874 -0.2629  0.7263
11599TIP3    H256213   4.791   5.722  13.827 -0.3998 -1.1900  1.0967
11600TIP3   OH256214   1.000   3.376   5.704 -0.5763 -0.0688  0.4447
11600TIP3    H156215   1.006   3.284   5.677  1.2661  0.8035 -2.5006
11600TIP3    H256216   0.908   3.398   5.691 -0.8296 -1.1850  0.1758
11601TIP3   OH256217   1.141   3.852  14.987  0.3202 -0.1600  0.2123
11601TIP3    H156218   1.177   3.937  14.962 -0.9466  1.0211  2.1522
11601TIP3    H256219   1.052   3.852  14.950 -0.0281 -0.1906  1.0153
11602TIP3   OH256220   6.694   1.127   6.355 -0.2195  0.2295 -0.4827
11602TIP3    H156221   6.702   1.216   6.391 -0.3592 -1.0694  3.1617
11602TIP3    H256222   6.604   1.124   6.322 -0.0150  1.5758 -1.2782
11603TIP3   OH256223   1.436   5.950   2.497  0.2647 -0.6720 -0.1221
11603TIP3    H156224   1.348   5.912   2.499  0.6881 -1.7573 -1.1187
11603TIP3    H256225   1.492   5.880   2.462  1.3374  0.3646 -0.5540
11604TIP3   OH256226   3.347   0.108   0.671 -0.0998  0.1812  0.8403
11604TIP3    H156227   3.413   0.051   0.633 -1.2221 -0.0989 -0.7917
11604TIP3    H256228   3.339   0.079   0.762  0.7259 -0.9404  0.5709
11605TIP3   OH256229   4.129   4.706   5.287  0.9044 -0.2619  0.3560
11605TIP3    H156230   4.070   4.692   5.361 -0.5006  1.4294 -0.3552
11605TIP3    H256231   4.077   4.679   5.211  0.5508  2.2522 -0.3849
11606TIP3   OH256232   3.080   4.919   1.884  0.0616  0.5577 -0.2810
11606TIP3    H156233   2.997   4.909   1.837 -0.0260 -0.1686  0.0141
11606TIP3    H256234   3.141   4.861   1.840  0.6211  1.6051 -0.9292
11607TIP3   OH256235   2.475   2.393  11.800 -0.1733 -0.0907 -0.1119
11607TIP3    H156236   2.468   2.466  11.739  2.6980  0.8075  0.4472
11607TIP3    H256237   2.434   2.319  11.755 -0.4649  1.1580 -2.0030
11608TIP3   OH256238   4.645   0.390   1.844 -0.3424 -0.4858  0.4093
11608TIP3    H156239   4.612   0.476   1.872 -0.0425 -0.7057  1.4696
11608TIP3    H256240   4.657   0.399   1.750 -0.3266  0.6405  0.5018
11609TIP3   OH256241   6.344   1.215  15.737 -0.0787  0.1218  0.1825
11609TIP3    H156242   6.438   1.223  15.718 -0.4844  1.1248 -1.6055
11609TIP3    H256243   6.320   1.300  15.774 -0.5878  0.4286 -0.8384
11610TIP3   OH256244   3.588   3.439  15.875  0.3938 -0.0957 -0.1119
11610TIP3    H156245   3.544   3.524  15.876 -2.2060 -1.3222  0.0648
11610TIP3    H256246   3.545   3.389  15.944  1.5180 -1.6991 -0.5064
11611TIP3   OH256247   4.751   5.608  13.053  0.1669 -0.4181 -0.0117
11611TIP3    H156248   4.694   5.683  13.071  0.8460  0.2107 -0.4123
11611TIP3    H256249   4.761   5.564  13.138 -2.5682 -1.7776 -0.2784
11612TIP3   OH256250   1.723   0.736  15.061  0.2723 -0.1491  0.0519
11612TIP3    H156251   1.669   0.668  15.022 -0.0354  1.0451 -1.7035
11612TIP3    H256252   1.659   0.801  15.092  0.6266  1.0292 -1.5755
11613TIP3   OH256253   0.788   6.161   5.449  0.0793 -0.5573  0.3423
11613TIP3    H156254   0.776   6.162   5.544 -1.6198  0.8596  0.1617
11613TIP3    H256255   0.776   6.070   5.423 -1.4730 -0.6420  1.2763
11614TIP3   OH256256   1.852   2.751  11.645 -0.1461  0.4815 -0.0893
11614TIP3    H156257   1.805   2.696  11.583  0.0451 -0.7751  0.8427
11614TIP3    H256258   1.785   2.778  11.708 -0.5346  2.5007 -1.2801
11615TIP3   OH256259   3.199   2.782   2.191  0.1457  0.1468  0.1505
11615TIP3    H156260   3.243   2.698   2.208 -0.1163  0.0299  0.2572
11615TIP3    H256261   3.258   2.828   2.132 -0.7290 -1.0009 -1.7193
11616TIP3   OH256262   1.195   3.229  15.297  0.0481 -0.5033 -0.2609
11616TIP3    H156263   1.244   3.210  15.377 -0.3331 -0.2017  0.0504
11616TIP3    H256264   1.104   3.209  15.320 -0.1675  0.3137 -0.3724
11617TIP3   OH256265   4.534   0.829   0.339  0.1574  0.0763 -0.1242
11617TIP3    H156266   4.537   0.923   0.322  2.8637  0.0943  0.1039
11617TIP3    H256267   4.572   0.789   0.261  0.6036 -0.6959  0.4689
11618TIP3   OH256268   5.453   3.117   6.401 -0.3252 -0.7164 -0.0231
11618TIP3    H156269   5.476   3.058   6.472 -0.3287  0.4648  0.9923
11618TIP3    H256270   5.358   3.107   6.390 -0.2690 -1.1563 -0.1030
11619TIP3   OH256271   6.142   4.192  12.538  0.1063  0.2854  0.3012
11619TIP3    H156272   6.229   4.205  12.576 -0.8685 -0.0020  2.8397
11619TIP3    H256273   6.128   4.098  12.543  0.3825  0.0812 -1.9636
11620TIP3   OH256274   1.155   4.312   0.777 -0.1737 -0.9419  0.4158
11620TIP3    H156275   1.061   4.298   0.783 -0.2004 -0.2336  4.2851
11620TIP3    H256276   1.193   4.226   0.794 -0.0171 -1.3351 -1.6315
11621TIP3   OH256277   6.003   2.188  13.327 -0.6378  0.4803 -0.2367
11621TIP3    H156278   6.060   2.111  13.320  0.9209  1.6410 -1.1386
11621TIP3    H256279   5.940   2.178  13.256 -1.2707 -0.5595  0.4388
11622TIP3   OH256280   3.844   4.519   1.939 -0.5217  0.2512  0.1149
11622TIP3    H156281   3.806   4.490   1.856 -0.1337  1.9899 -0.7193
11622TIP3    H256282   3.934   4.542   1.918  0.4136 -1.7135  1.6148
11623TIP3   OH256283   2.995   4.555  14.195 -0.0988  0.1622 -0.3566
11623TIP3    H156284   3.013   4.587  14.283  0.9733  0.2457 -0.5937
11623TIP3    H256285   2.903   4.529  14.197 -0.3688  1.1411  0.4832
11624TIP3   OH256286   5.581   4.805   2.749 -0.3731 -0.2313  0.4883
11624TIP3    H156287   5.666   4.832   2.713  0.1700  0.8078  2.3951
11624TIP3    H256288   5.595   4.715   2.777 -0.1151 -0.2910  0.1772
11625TIP3   OH256289   0.486   1.324   0.377  1.1428  0.7926 -0.1458
11625TIP3    H156290   0.409   1.325   0.320  1.9571  1.9367 -1.2967
11625TIP3    H256291   0.463   1.265   0.448 -0.2419 -0.0315 -1.2303
11626TIP3   OH256292   3.188   1.359   2.972 -0.1788  0.4523 -0.5232
11626TIP3    H156293   3.196   1.369   2.877  0.4279  0.3764 -0.4852
11626TIP3    H256294   3.113   1.413   2.995  0.7958  1.9972 -0.7993
11627TIP3   OH256295   3.498   6.530   5.012  0.4394  0.2880  0.0946
11627TIP3    H156296   3.570   6.579   4.973  0.0705  0.2843 -0.6145
11627TIP3    H256297   3.441   6.509   4.938 -0.2404  0.2143  0.6326
11628TIP3   OH256298   3.517   5.529  12.246 -0.1212 -0.4248  0.2299
11628TIP3    H156299   3.590   5.588  12.228  0.0047  0.2917  2.7092
11628TIP3    H256300   3.555   5.441  12.239  0.7869 -0.0813  0.6232
11629TIP3   OH256301   5.929   0.503  14.228 -0.0350  0.1758  0.3046
11629TIP3    H156302   5.873   0.446  14.176  0.1265  0.5155 -0.2518
11629TIP3    H256303   5.958   0.571  14.167 -1.5272  1.8233  1.3222
11630TIP3   OH256304   5.885   4.152   5.098  0.5370 -0.0036  0.4232
11630TIP3    H156305   5.833   4.232   5.097  2.0109  0.9791 -0.6673
11630TIP3    H256306   5.823   4.083   5.075  0.0389  1.3877 -2.9261
11631TIP3   OH256307   1.846   3.724   3.668 -0.1271  0.0901 -0.0526
11631TIP3    H156308   1.850   3.639   3.713 -0.9124  0.1726  0.1819
11631TIP3    H256309   1.937   3.744   3.648  0.4508  0.8410  2.9474
11632TIP3   OH256310   3.270   1.979   3.183 -0.4958  0.2813 -0.3465
11632TIP3    H156311   3.284   1.914   3.114 -0.1686 -0.6533  0.5506
11632TIP3    H256312   3.332   1.953   3.252 -1.0429  0.9728  0.4294
11633TIP3   OH256313   5.443   4.623  14.673 -0.4611  0.3328  0.3795
11633TIP3    H156314   5.488   4.538  14.670 -2.6846 -0.9261 -2.5738
11633TIP3    H256315   5.453   4.658  14.585 -3.5201  0.8553  0.1418
11634TIP3   OH256316   1.530   2.344   5.215 -0.3390  0.1021 -0.4186
11634TIP3    H156317   1.458   2.367   5.273 -1.0145 -1.6651 -0.5054
11634TIP3    H256318   1.491   2.288   5.148  1.0985 -0.9032 -0.4583
11635TIP3   OH256319   2.014   4.989  12.787 -0.3566 -0.1126  0.2102
11635TIP3    H156320   1.990   5.042  12.862 -1.8607  1.1677 -1.0894
11635TIP3    H256321   2.058   5.050  12.727 -3.0912  0.0919 -1.7886
11636TIP3   OH256322   3.554   6.765  16.347 -0.7468 -0.2789  0.5074
11636TIP3    H156323   3.598   6.718  16.418  1.1592  0.3157 -0.2290
11636TIP3    H256324   3.554   6.704  16.274  1.0224  0.5077 -0.2065
11637TIP3   OH256325   4.085   2.346   3.748 -0.1016 -0.5104  0.1600
11637TIP3    H156326   4.066   2.439   3.753  1.8364 -0.0175 -0.7512
11637TIP3    H256327   4.138   2.328   3.826  2.1206 -0.1044 -1.1574
11638TIP3   OH256328   0.284   3.030  12.014  0.3568 -0.3016  0.3166
11638TIP3    H156329   0.307   2.953  11.962  0.2444  0.4346 -0.8617
11638TIP3    H256330   0.352   3.095  11.993 -0.0600  0.2336  0.5800
11639TIP3   OH256331   0.202   6.261   3.756 -0.0394 -0.2032 -0.3316
11639TIP3    H156332   0.218   6.166   3.750 -0.8511 -0.2938 -1.4952
11639TIP3    H256333   0.143   6.279   3.683 -2.1867  0.7190  1.5300
11640TIP3   OH256334   1.425   1.030   2.935  0.4448 -0.3098 -0.2146
11640TIP3    H156335   1.391   1.118   2.953 -1.0272 -0.8165 -0.4092
11640TIP3    H256336   1.498   1.044   2.874 -1.3555  0.6253 -2.2664
11641TIP3   OH256337   5.490   2.634  15.675 -0.3667  0.1329 -0.3089
11641TIP3    H156338   5.532   2.555  15.641 -0.1346 -0.1542  0.6060
11641TIP3    H256339   5.497   2.626  15.770  0.4579  1.6745 -0.1899
11642TIP3   OH256340   3.139   4.358  16.557 -0.0328  0.4354 -0.0706
11642TIP3    H156341   3.098   4.442  16.576 -1.1359  0.0209 -0.5624
11642TIP3    H256342   3.091   4.325  16.481  1.4992  0.1345 -0.9558
11643TIP3   OH256343   1.778   2.430  15.853 -0.1469  0.0998 -0.5002
11643TIP3    H156344   1.774   2.512  15.804 -0.4509 -1.1250 -2.6824
11643TIP3    H256345   1.864   2.394  15.831 -0.2566 -0.4482 -0.0434
11644TIP3   OH256346   3.325   1.596   5.648  0.1172 -0.0259  0.9219
11644TIP3    H156347   3.360   1.669   5.698  0.3123 -0.7806  1.9206
11644TIP3    H256348   3.240   1.627   5.615  1.6308  1.8458 -1.5902
11645TIP3   OH256349   1.008   6.347   0.325  0.1222 -0.3542 -0.0632
11645TIP3    H156350   0.931   6.376   0.375 -0.1972 -2.5492  0.8298
11645TIP3    H256351   1.075   6.332   0.392  0.9660  0.3602 -0.7185
11646TIP3   OH256352   3.483   0.928  13.565  0.1862  0.1088  0.5015
11646TIP3    H156353   3.439   0.998  13.518  0.2537 -2.3850 -3.8688
11646TIP3    H256354   3.424   0.853  13.559  2.1748 -1.5575  0.4007
11647TIP3   OH256355   0.776   4.064   2.356 -0.2281 -0.0375 -0.3073
11647TIP3    H156356   0.731   4.045   2.273  0.2139 -3.6438  0.0813
11647TIP3    H256357   0.724   4.017   2.422  1.1179  0.1643  0.9534
11648TIP3   OH256358   4.399   1.325  12.986  0.2670 -0.3315  0.2762
11648TIP3    H156359   4.361   1.381  12.918  1.0542 -1.0628 -0.8019
11648TIP3    H256360   4.325   1.275  13.020 -0.2261  0.4376  0.3709
11649TIP3   OH256361   2.132   0.818  13.766 -0.0253 -0.1137  0.0062
11649TIP3    H156362   2.163   0.743  13.817 -1.1229  1.4186  3.1773
11649TIP3    H256363   2.053   0.787  13.721  0.1940 -1.1443  0.3213
11650TIP3   OH256364   2.166   6.407   4.854  0.2372  0.0860  0.6080
11650TIP3    H156365   2.192   6.416   4.762  1.1352  1.1503  0.9367
11650TIP3    H256366   2.150   6.497   4.883 -0.2238 -0.2574  1.4449
11651TIP3   OH256367   2.134   1.215  14.188 -0.1391  0.3505  0.0340
11651TIP3    H156368   2.100   1.135  14.229 -1.3838  2.3173  3.2269
11651TIP3    H256369   2.061   1.248  14.136  0.1446 -0.2217 -0.7367
11652TIP3   OH256370   4.343   3.048   3.661  0.1138  0.2808 -0.4166
11652TIP3    H156371   4.420   3.093   3.627  0.5630 -0.1022  0.0618
11652TIP3    H256372   4.342   3.070   3.754  0.5641 -0.9691 -0.0886
11653TIP3   OH256373   4.536   0.507  15.789 -0.1507 -0.4967  0.8271
11653TIP3    H156374   4.598   0.578  15.774  0.4925 -1.0482  0.7869
11653TIP3    H256375   4.535   0.459  15.706 -0.1349 -0.8692  1.0405
11654TIP3   OH256376   1.349   0.159   0.891  0.9209 -0.1262 -0.1537
11654TIP3    H156377   1.441   0.155   0.914  1.1894  4.1015  0.2443
11654TIP3    H256378   1.305   0.186   0.971 -0.4828 -0.6449 -0.7061
11655TIP3   OH256379   5.426   1.362  15.281 -0.1095  0.2034  0.0794
11655TIP3    H156380   5.454   1.301  15.349 -0.0843 -0.7946 -0.7933
11655TIP3    H256381   5.342   1.326  15.250  0.8132 -0.5124 -1.7607
11656TIP3   OH256382   0.771   4.896   1.216  0.3142 -0.2579  0.3746
11656TIP3    H156383   0.867   4.895   1.209  0.3360 -0.1374  0.6549
11656TIP3    H256384   0.741   4.858   1.133  0.5823  0.5581 -0.1132
11657TIP3   OH256385   3.347   2.160  11.891  0.6524  0.2970  0.3745
11657TIP3    H156386   3.318   2.070  11.907  1.8877 -0.4643 -1.4218
11657TIP3    H256387   3.265   2.209  11.883 -0.0529 -0.7227  0.9734
11658TIP3   OH256388   4.888   5.284  12.694  0.0320  0.2850 -0.1078
11658TIP3    H156389   4.977   5.258  12.671  0.2517 -1.5067  2.4768
11658TIP3    H256390   4.834   5.207  12.675 -0.0167 -0.7030  3.4481
11659TIP3   OH256391   1.537   6.002  10.395 -0.3365 -0.3033 -0.2712
11659TIP3    H156392   1.444   5.985  10.407 -0.6422  1.3529 -0.0956
11659TIP3    H256393   1.541   6.087  10.351  1.0769 -0.8670 -1.3373
11660TIP3   OH256394   0.836   4.335  16.697 -0.4826  0.0850  0.0032
11660TIP3    H156395   0.816   4.326  16.790  1.8437 -0.9540  0.4890
11660TIP3    H256396   0.788   4.264  16.654 -1.0498  0.1698  0.4956
11661TIP3   OH256397   5.702   5.897  12.276 -0.0596  0.0446 -0.0063
11661TIP3    H156398   5.663   5.950  12.206  0.4123  2.0146  1.1540
11661TIP3    H256399   5.729   5.816  12.232 -0.4689  0.8913 -1.9413
11662TIP3   OH256400   5.214   1.150   6.675 -0.0817 -0.7046 -0.3821
11662TIP3    H156401   5.126   1.118   6.693  0.6816 -1.8663  1.7636
11662TIP3    H256402   5.248   1.091   6.608 -0.8440 -0.3719 -1.0760
11663TIP3   OH256403   5.215   5.667   3.860 -0.4653 -0.4115  0.8294
11663TIP3    H156404   5.204   5.714   3.943  1.1281  2.3306 -0.3815
11663TIP3    H256405   5.130   5.675   3.817 -0.0851  2.1453  0.3678
11664TIP3   OH256406   1.235   1.368  15.063 -0.1407  0.2821  0.4889
11664TIP3    H156407   1.186   1.352  15.144 -1.7949  0.0287 -0.5033
11664TIP3    H256408   1.241   1.282  15.021  1.5826  0.2275  0.7701
11665TIP3   OH256409   4.753   3.971  14.529  0.0220  0.1578  0.7311
11665TIP3    H156410   4.737   4.057  14.567  0.5120 -0.4061  2.2706
11665TIP3    H256411   4.747   3.910  14.602 -1.5118 -1.2897 -0.5061
11666TIP3   OH256412   4.617   6.593  13.914 -0.2090 -0.0327  0.0901
11666TIP3    H156413   4.591   6.537  13.841  0.3027 -0.9789  0.6043
11666TIP3    H256414   4.689   6.545  13.956 -0.4889  0.4925  1.2020
11667TIP3   OH256415   2.065   2.366   5.257  0.3766  0.0734  0.0037
11667TIP3    H156416   1.973   2.352   5.234  0.6507 -1.8002 -0.1013
11667TIP3    H256417   2.109   2.375   5.172  0.3529  0.5849  0.0433
11668TIP3   OH256418   5.191   1.365   3.307  0.5249  0.2376  0.3693
11668TIP3    H156419   5.257   1.319   3.254  0.8763  0.9880  0.1513
11668TIP3    H256420   5.108   1.324   3.282  0.6020  0.9698 -1.2327
11669TIP3   OH256421   2.152   1.608  16.521 -0.1549  0.2040  0.2282
11669TIP3    H156422   2.117   1.613  16.610 -0.0489 -0.8503  0.3394
11669TIP3    H256423   2.224   1.546  16.527  0.2780  0.6278 -0.4689
11670TIP3   OH256424   2.900   1.647  13.162  0.1733 -0.2507  0.1130
11670TIP3    H156425   2.822   1.594  13.179  1.0522 -1.1238  1.6268
11670TIP3    H256426   2.880   1.694  13.081 -1.3028 -1.6287 -0.3682
11671TIP3   OH256427   3.629   2.901   2.988  0.9522 -0.4702 -0.6868
11671TIP3    H156428   3.649   2.884   2.896 -0.2361 -0.0724 -1.0327
11671TIP3    H256429   3.538   2.873   2.998 -0.0200  2.4457 -0.4645
11672TIP3   OH256430   2.865   0.554   3.510 -0.3662 -0.1463 -0.2968
11672TIP3    H156431   2.794   0.521   3.455 -2.2565 -0.3372  2.0652
11672TIP3    H256432   2.837   0.642   3.535 -0.3413 -0.5792  1.4430
11673TIP3   OH256433   0.066   5.947   4.798  0.0342 -0.1725 -0.0689
11673TIP3    H156434   0.022   6.031   4.814 -0.5420 -0.4493 -0.1412
11673TIP3    H256435   0.157   5.962   4.820 -0.1825  0.3007  0.5342
11674TIP3   OH256436   3.399   0.760  11.993  0.7059 -0.2938 -0.2963
11674TIP3    H156437   3.392   0.762  12.088 -0.6263  1.5591 -0.3778
11674TIP3    H256438   3.480   0.712  11.976  0.6067 -1.3064  1.7283
11675TIP3   OH256439   0.536   2.787   4.265  0.7104 -0.3092  0.1782
11675TIP3    H156440   0.581   2.784   4.181  1.2195  1.2330  0.3584
11675TIP3    H256441   0.606   2.777   4.330  0.4930 -0.1779  0.4323
11676TIP3   OH256442   4.242   5.323  15.417 -0.1414 -0.1753  0.0788
11676TIP3    H156443   4.319   5.380  15.415 -0.3725  0.2110  1.3070
11676TIP3    H256444   4.222   5.314  15.510 -1.9178  0.2018 -0.2304
11677TIP3   OH256445   6.697   4.965  11.190 -0.3409 -0.1670  0.4492
11677TIP3    H156446   6.778   4.991  11.148 -0.7732  1.1498  0.3859
11677TIP3    H256447   6.665   5.045  11.233 -2.3441 -0.2383 -0.7616
11678TIP3   OH256448   5.896   5.048  14.420  0.2801  0.1914 -0.1507
11678TIP3    H156449   5.874   4.955  14.414 -1.3809  0.4682  0.8606
11678TIP3    H256450   5.953   5.064  14.346  0.4946 -1.6059 -0.4303
11679TIP3   OH256451   1.717   4.380   5.833 -0.1890  0.2697  0.4891
11679TIP3    H156452   1.740   4.459   5.882  0.7085  0.4503 -0.1856
11679TIP3    H256453   1.692   4.411   5.746  1.0600 -0.2221 -0.0769
11680TIP3   OH256454   1.709   3.193  16.795  0.0144  0.0046  0.3689
11680TIP3    H156455   1.619   3.159  16.791 -0.6056  1.6445 -0.3728
11680TIP3    H256456   1.736   3.176  16.885 -0.7934 -1.0783  0.4371
11681TIP3   OH256457   0.562   5.061   2.049 -0.1461 -0.0883 -0.1876
11681TIP3    H156458   0.656   5.071   2.069 -0.1043 -1.6507  0.5182
11681TIP3    H256459   0.555   5.084   1.957  1.0760 -0.7379 -0.4663
11682TIP3   OH256460   4.042   0.254   4.648  0.1828 -0.2083 -0.5741
11682TIP3    H156461   4.123   0.256   4.699 -0.1363 -0.2777 -0.0466
11682TIP3    H256462   4.069   0.228   4.560  0.7490 -0.0865 -0.4388
11683TIP3   OH256463   2.744   2.955  13.183 -0.1057 -0.2048  0.1195
11683TIP3    H156464   2.834   2.986  13.190  0.2074 -0.6471 -1.4736
11683TIP3    H256465   2.746   2.867  13.221  0.4946 -0.7936 -1.2068
11684TIP3   OH256466   6.614   0.658  16.492 -0.0735  0.0213  0.3840
11684TIP3    H156467   6.551   0.730  16.490 -2.3909 -1.8279  1.6151
11684TIP3    H256468   6.697   0.699  16.518 -0.9584  2.4081 -0.2808
11685TIP3   OH256469   5.410   3.815  11.891 -0.0745  0.0335  0.1053
11685TIP3    H156470   5.410   3.725  11.856  0.6335  0.2439 -0.4522
11685TIP3    H256471   5.447   3.806  11.979 -2.4256 -0.5930  1.1185
11686TIP3   OH256472   4.966   0.129   0.114  0.5059 -0.3671 -0.2716
11686TIP3    H156473   5.028   0.062   0.084  1.1771 -0.0720  0.4313
11686TIP3    H256474   5.013   0.177   0.182 -1.2319 -1.5586  1.9199
11687TIP3   OH256475   5.284   0.777  11.328  0.4953  0.2994 -0.7692
11687TIP3    H156476   5.257   0.851  11.382  0.9616  0.3805 -0.6442
11687TIP3    H256477   5.231   0.784  11.249 -1.4379 -0.7803  0.3599
11688TIP3   OH256478   1.622   5.408  11.610  0.7335  0.2266 -0.4357
11688TIP3    H156479   1.550   5.447  11.659  0.8714  0.8194 -0.6995
11688TIP3    H256480   1.619   5.315  11.632  0.0415  0.2907 -0.2549
11689TIP3   OH256481   1.723   2.478  12.104  0.6364  0.4782 -0.3981
11689TIP3    H156482   1.697   2.515  12.019  0.3380  0.4015 -0.3392
11689TIP3    H256483   1.723   2.553  12.163  1.2221  0.6031 -0.5487
11690TIP3   OH256484   3.893   6.537  13.230 -0.3347  0.2972  0.1720
11690TIP3    H156485   3.871   6.630  13.228 -0.0096  0.4027  1.1333
11690TIP3    H256486   3.865   6.507  13.316  1.4068 -0.0131  0.6713
11691TIP3   OH256487   5.747   4.002   0.075 -0.5491 -0.3709 -0.3850
11691TIP3    H156488   5.819   3.960   0.122  0.2203 -0.0607 -1.2537
11691TIP3    H256489   5.790   4.053   0.005 -1.4041  1.9775  0.6879
11692TIP3   OH256490   4.540   5.014   1.526  0.4160 -0.1987 -1.2323
11692TIP3    H156491   4.491   5.095   1.519  0.7031 -0.0181 -1.1925
11692TIP3    H256492   4.550   4.983   1.436 -0.8097 -0.8722 -1.1493
11693TIP3   OH256493   5.881   6.712   1.758  0.1889  0.2806  0.3135
11693TIP3    H156494   5.922   6.708   1.844  1.6972  0.4146 -0.3606
11693TIP3    H256495   5.924   6.786   1.715 -1.7217  1.2533  0.0155
11694TIP3   OH256496   3.730   6.408  13.514 -0.0142  0.0058  0.0946
11694TIP3    H156497   3.824   6.409  13.530 -0.0409 -1.8218  0.5735
11694TIP3    H256498   3.714   6.327  13.464 -1.4364 -0.2445  0.8905
11695TIP3   OH256499   2.240   3.751  14.798  0.4707  0.0397  0.0297
11695TIP3    H156500   2.324   3.797  14.787  1.2671 -1.1213  0.9977
11695TIP3    H256501   2.241   3.683  14.730 -0.4189  0.9999 -0.9846
11696TIP3   OH256502   5.399   3.292  15.876  0.2424  0.2022 -1.0426
11696TIP3    H156503   5.373   3.367  15.823 -1.5519  0.3820  0.0290
11696TIP3    H256504   5.381   3.216  15.821 -1.2760  0.4011 -0.8594
11697TIP3   OH256505   0.907   0.578  12.771 -0.0121 -0.0107  0.1916
11697TIP3    H156506   0.825   0.603  12.728 -0.3890 -1.3192  0.1202
11697TIP3    H256507   0.948   0.517  12.711  1.4186  1.2297 -0.1326
11698TIP3   OH256508   0.161   5.278   3.099  0.2442 -0.3942  0.3706
11698TIP3    H156509   0.078   5.288   3.147  0.5790 -0.2521  0.9245
11698TIP3    H256510   0.134   5.270   3.007 -0.2897  1.3485  0.3391
11699TIP3   OH256511   6.023   6.337  12.293 -0.1817  0.3886 -0.2305
11699TIP3    H156512   5.944   6.323  12.241 -0.1627 -0.1563 -0.1225
11699TIP3    H256513   6.027   6.432  12.306 -1.5487  0.3287  0.8926
11700TIP3   OH256514   2.006   0.054  14.433  0.0302 -0.2276 -0.6011
11700TIP3    H156515   1.937   0.072  14.370 -1.2326  0.2549  0.8782
11700TIP3    H256516   2.011  -0.042  14.436  0.4146 -0.2652 -1.7167
11701TIP3   OH256517   3.275   5.654  13.600 -0.3699  0.2011  0.3218
11701TIP3    H156518   3.361   5.658  13.558 -0.8588  0.8339 -0.6472
11701TIP3    H256519   3.288   5.594  13.674 -0.0112 -2.8634 -2.0396
11702TIP3   OH256520   1.699   3.937  13.404  0.9784 -0.0419  0.2120
11702TIP3    H156521   1.760   3.915  13.475  1.4440  0.8924  0.1271
11702TIP3    H256522   1.746   3.913  13.324  1.3028  0.8067  0.1401
11703TIP3   OH256523   0.679   1.723  12.265  0.3771  0.7526  0.2794
11703TIP3    H156524   0.666   1.645  12.317  1.4951 -0.0941 -0.6462
11703TIP3    H256525   0.766   1.755  12.291  1.1346  0.0975 -1.2499
11704TIP3   OH256526   2.673   3.199   0.269  0.0877  0.3875  0.5127
11704TIP3    H156527   2.676   3.240   0.355  2.2379  0.2872  0.5334
11704TIP3    H256528   2.649   3.270   0.209  2.9376  1.6054  0.6525
11705TIP3   OH256529   4.821   1.934   3.505  0.7934 -0.2538  0.2592
11705TIP3    H156530   4.861   2.015   3.535  0.4603  0.0332 -0.0597
11705TIP3    H256531   4.766   1.905   3.578  1.2198 -0.4037  0.5209
11706TIP3   OH256532   4.038   1.037   1.550  0.1972  0.6173  0.5164
11706TIP3    H156533   4.068   1.014   1.462  1.1001  1.2630  0.6428
11706TIP3    H256534   3.955   1.084   1.535  0.6986  1.3624 -0.0558
11707TIP3   OH256535   0.634   5.386   2.189 -0.0325 -0.4017  0.3332
11707TIP3    H156536   0.546   5.355   2.211 -0.2010  0.5931  1.1217
11707TIP3    H256537   0.624   5.429   2.104 -0.1925 -0.7750  0.1616
11708TIP3   OH256538   5.172   0.553  11.538 -0.1911  0.3285  0.3889
11708TIP3    H156539   5.234   0.494  11.497  0.0881  0.1529  1.0408
11708TIP3    H256540   5.186   0.637  11.495 -1.5306 -0.3613 -1.4925
11709TIP3   OH256541   1.944   2.639   0.031  0.5058 -0.0760 -0.0527
11709TIP3    H156542   1.870   2.601  -0.017 -1.5462  1.5802  1.5691
11709TIP3    H256543   2.010   2.569   0.032 -1.2020 -1.8216 -1.2081
11710TIP3   OH256544   6.498   3.986  14.656  0.4190 -0.7135 -0.6030
11710TIP3    H156545   6.435   3.914  14.656  0.0436 -0.3931 -0.6626
11710TIP3    H256546   6.490   4.025  14.569 -1.1010  0.8472  0.1739
11711TIP3   OH256547   3.956   6.721   3.847  0.1175 -0.4542  0.4016
11711TIP3    H156548   3.861   6.724   3.837  0.0967 -0.7014  0.5103
11711TIP3    H256549   3.977   6.796   3.903 -0.1820 -1.2429  1.6238
11712TIP3   OH256550   4.410   0.578   1.099 -0.1678 -0.4656  0.0846
11712TIP3    H156551   4.328   0.562   1.146  0.4579  3.2044  2.8788
11712TIP3    H256552   4.453   0.648   1.149  3.0330  0.2606 -3.2556
11713TIP3   OH256553   2.455   5.989   1.499 -0.3887 -0.9041 -0.4913
11713TIP3    H156554   2.360   5.977   1.500 -0.6375  0.5071  2.1124
11713TIP3    H256555   2.471   6.048   1.425 -1.6266 -0.5831 -0.5340
11714TIP3   OH256556   2.768   1.745  15.348 -0.6079 -0.2907  0.0991
11714TIP3    H156557   2.727   1.812  15.403 -1.3280 -0.5674 -0.0937
11714TIP3    H256558   2.800   1.793  15.271  0.5124  0.1204  0.7841
11715TIP3   OH256559   5.869   4.272  12.520 -0.3568  0.0826 -0.2968
11715TIP3    H156560   5.954   4.230  12.533 -0.1847  0.2462 -0.8635
11715TIP3    H256561   5.807   4.200  12.511  0.1878 -0.1579 -3.0543
11716TIP3   OH256562   5.423   6.403  15.802 -0.3228  0.2437  0.3660
11716TIP3    H156563   5.381   6.340  15.743  0.4813  1.0819 -1.1740
11716TIP3    H256564   5.443   6.352  15.881 -3.1689 -0.4425  0.7611
11717TIP3   OH256565   0.818   5.657  15.726  0.0650  0.1730  0.3889
11717TIP3    H156566   0.879   5.698  15.664 -1.4593  0.9179 -0.6743
11717TIP3    H256567   0.734   5.699  15.709 -1.2433 -2.2654  0.3780
11718TIP3   OH256568   0.558   1.660   4.826  0.1341 -0.0366  0.6036
11718TIP3    H156569   0.476   1.689   4.865 -0.6402 -0.9414 -0.3009
11718TIP3    H256570   0.616   1.737   4.832 -1.4779  1.3433 -0.6814
11719TIP3   OH256571   2.052   0.005   1.556  0.1736 -0.0049  0.1325
11719TIP3    H156572   2.080   0.093   1.578  0.6829 -0.1305 -0.0013
11719TIP3    H256573   1.965  -0.003   1.594 -0.1343  0.7711 -0.3895
11720TIP3   OH256574   6.300   6.657   3.846  0.3973 -0.3124 -0.0484
11720TIP3    H156575   6.254   6.686   3.767  0.4062 -0.4330 -0.0977
11720TIP3    H256576   6.231   6.648   3.912  0.4142 -0.0299  0.0103
11721TIP3   OH256577   4.549   1.238  11.912 -0.3004 -0.4142  0.5017
11721TIP3    H156578   4.501   1.159  11.939 -0.8969 -0.1103  0.3501
11721TIP3    H256579   4.496   1.274  11.840  0.7054 -0.6376 -0.3808
11722TIP3   OH256580   4.127   6.204  12.226  0.3594 -0.1870 -0.1362
11722TIP3    H156581   4.066   6.154  12.281  0.5900 -0.1647  0.1392
11722TIP3    H256582   4.108   6.174  12.137 -1.3411  1.1514 -0.2880
11723TIP3   OH256583   0.790   2.181   3.655 -0.0716  0.1364  0.7962
11723TIP3    H156584   0.697   2.159   3.656 -0.0917  0.1352  0.0066
11723TIP3    H256585   0.799   2.251   3.719 -0.5141 -0.2397  1.2766
11724TIP3   OH256586   1.443   6.013   6.746 -0.2459  0.2137  0.1845
11724TIP3    H156587   1.353   6.044   6.736 -0.3515  0.4454  1.6331
11724TIP3    H256588   1.434   5.920   6.767 -0.0689 -0.1204 -1.1890
11725TIP3   OH256589   5.268   6.143  12.791 -0.3043 -0.2782  0.5275
11725TIP3    H156590   5.326   6.213  12.821 -2.0396  2.3888 -1.7296
11725TIP3    H256591   5.327   6.076  12.758  1.5659  1.6008 -0.2256
11726TIP3   OH256592   1.564   5.109  15.303 -0.0449 -0.3666  0.2542
11726TIP3    H156593   1.636   5.054  15.332  0.4595  0.2059  0.1139
11726TIP3    H256594   1.517   5.133  15.383 -0.1198 -0.7940  0.3362
11727TIP3   OH256595   0.054   2.250   2.522  0.0166  0.3847 -0.2025
11727TIP3    H156596  -0.004   2.288   2.587  1.1688  1.6424  0.1559
11727TIP3    H256597   0.025   2.287   2.438 -1.3826 -1.1319 -0.4252
11728TIP3   OH256598   1.833   0.767  12.960 -0.2612  0.4667 -0.3951
11728TIP3    H156599   1.783   0.813  13.028  1.7775 -0.4228  1.8725
11728TIP3    H256600   1.836   0.829  12.887 -3.6979  0.9365 -0.2967
11729TIP3   OH256601   2.770   3.515   2.887 -0.2789  0.1949  0.1555
11729TIP3    H156602   2.677   3.516   2.910 -1.2944 -2.8996 -2.9501
11729TIP3    H256603   2.783   3.594   2.835 -1.0968  0.7577  0.7795
11730TIP3   OH256604   0.734   3.655  15.248  0.5256 -0.1653 -0.6476
11730TIP3    H156605   0.641   3.661  15.228  0.8587 -1.3809 -2.9468
11730TIP3    H256606   0.754   3.734  15.298 -2.2042 -1.0961  2.2058
11731TIP3   OH256607   0.761   2.652  12.388  0.5631  0.1786  0.4865
11731TIP3    H156608   0.770   2.714  12.460 -0.0127 -0.4509  1.1234
11731TIP3    H256609   0.672   2.618  12.397 -0.7853  2.4851 -2.5088
11732TIP3   OH256610   0.822   1.135  16.555  0.0749 -0.5173  0.7623
11732TIP3    H156611   0.852   1.062  16.609  1.1326  1.2699  2.6892
11732TIP3    H256612   0.864   1.212  16.592  1.8483  0.7557 -3.3526
11733TIP3   OH256613   3.615   1.665   0.872 -0.3332  0.0939  0.2617
11733TIP3    H156614   3.649   1.754   0.859  1.3024 -0.5043  0.1590
11733TIP3    H256615   3.561   1.649   0.794  0.2951  0.5901 -0.2926
11734TIP3   OH256616   2.590   4.349   2.078  0.5338  0.4080 -0.5892
11734TIP3    H156617   2.680   4.319   2.070  0.8810  1.0828  0.4938
11734TIP3    H256618   2.539   4.269   2.094  0.7875 -0.0848 -2.1552
11735TIP3   OH256619   6.642   3.790   3.302 -0.1817  0.2960  0.4822
11735TIP3    H156620   6.614   3.698   3.304  0.0328 -0.1312 -4.2051
11735TIP3    H256621   6.735   3.787   3.326 -0.1895 -0.7229  0.4459
11736TIP3   OH256622   6.083   2.406   0.132  0.0266 -0.4609  0.6605
11736TIP3    H156623   6.156   2.438   0.185 -0.9497  0.6989  1.3569
11736TIP3    H256624   6.095   2.447   0.047 -0.7634  1.2090  1.3072
11737TIP3   OH256625   2.780   0.088   6.093 -0.1097 -0.0513  0.8860
11737TIP3    H156626   2.852   0.122   6.146 -0.0308 -2.1513  2.2502
11737TIP3    H256627   2.714   0.062   6.157 -1.0236 -0.5066 -0.2090
11738TIP3   OH256628   4.503   6.064   5.482  0.6777  0.1176 -0.2178
11738TIP3    H156629   4.583   6.113   5.465 -0.1038  0.9290 -1.7864
11738TIP3    H256630   4.520   5.977   5.447  1.1924  0.0006  0.3085
11739TIP3   OH256631   4.801   5.713  16.098  0.2586 -0.2813 -0.5799
11739TIP3    H156632   4.858   5.787  16.120  2.0874 -1.5790 -0.6927
11739TIP3    H256633   4.815   5.700  16.005  1.1869 -1.6970 -0.2762
11740TIP3   OH256634   5.773   5.996   1.472 -0.3650 -0.2568  0.3543
11740TIP3    H156635   5.804   6.084   1.495  0.1453 -0.2905 -0.1801
11740TIP3    H256636   5.679   5.999   1.489 -0.2794  0.2454  0.7867
11741TIP3   OH256637   5.200   4.516   4.379  0.1622 -0.2386 -0.2685
11741TIP3    H156638   5.274   4.567   4.346  0.6604  0.5566  1.8917
11741TIP3    H256639   5.124   4.553   4.334  0.6721  1.5476  0.2654
11742TIP3   OH256640   4.069   0.701   5.656 -0.4972  0.0859  0.1128
11742TIP3    H156641   4.150   0.736   5.693 -0.0959 -0.0451 -0.6170
11742TIP3    H256642   4.093   0.612   5.628 -0.6877  0.3115 -0.7845
11743TIP3   OH256643   4.947   2.281   3.190 -0.2452 -0.0178 -0.5557
11743TIP3    H156644   4.997   2.333   3.127  0.6194  0.1354  0.2277
11743TIP3    H256645   5.011   2.219   3.226 -0.8127 -0.3675 -0.1208
11744TIP3   OH256646   0.123   3.933  16.785  0.3278  0.1529  0.1303
11744TIP3    H156647   0.047   3.878  16.763  0.4257  0.0884 -0.0481
11744TIP3    H256648   0.199   3.880  16.758  0.4365  0.2160  0.3110
11745TIP3   OH256649   2.833   1.377  11.935  0.3595  0.0659 -0.1093
11745TIP3    H156650   2.890   1.303  11.913  1.3553  1.1968 -1.5690
11745TIP3    H256651   2.852   1.395  12.027  1.8150 -0.0742 -0.3541
11746TIP3   OH256652   1.974   6.371   3.352  0.1214 -0.4810 -0.2941
11746TIP3    H156653   1.922   6.322   3.289  0.0761 -0.4218 -0.3025
11746TIP3    H256654   1.986   6.457   3.312 -0.8136 -0.0768  0.2489
11747TIP3   OH256655   2.145   4.434   3.653 -0.0147 -0.5352  0.3615
11747TIP3    H156656   2.179   4.345   3.661 -0.8206 -1.0208 -1.1754
11747TIP3    H256657   2.065   4.425   3.601  0.4208  1.1799 -0.7155
11748TIP3   OH256658   6.141   4.576   2.134  0.2058 -0.0730  0.1204
11748TIP3    H156659   6.172   4.648   2.079 -0.1901 -0.3430 -0.4616
11748TIP3    H256660   6.107   4.512   2.072  0.1709 -0.5809  0.6596
11749TIP3   OH256661   0.812   4.114  15.724  0.0425  0.3139  0.2172
11749TIP3    H156662   0.837   4.080  15.810  0.7358  2.9690  1.1360
11749TIP3    H256663   0.746   4.052  15.693 -0.6265 -0.4456  2.8789
11750TIP3   OH256664   5.926   1.233  13.813  0.2356 -0.2149  0.1368
11750TIP3    H156665   5.846   1.236  13.761  1.2690 -0.9661 -1.5810
11750TIP3    H256666   5.951   1.140  13.813  2.3480  0.2864 -1.4101
11751TIP3   OH256667   4.417   5.516   4.259 -0.4104 -0.3780 -0.6596
11751TIP3    H156668   4.334   5.559   4.280  0.1043 -0.5438  2.1314
11751TIP3    H256669   4.405   5.426   4.289  1.0523 -0.1564  0.7341
11752TIP3   OH256670   1.785   5.878   0.258 -0.1887 -0.2300 -0.1540
11752TIP3    H156671   1.719   5.947   0.260  0.0614  0.1044 -1.6836
11752TIP3    H256672   1.768   5.830   0.177  3.1436  1.7340 -2.3051
11753TIP3   OH256673   4.121   5.743   4.817 -0.5364  0.3024  0.2788
11753TIP3    H156674   4.133   5.829   4.858 -1.4531 -0.7285  2.8652
11753TIP3    H256675   4.189   5.689   4.856 -0.7784 -0.4807 -0.3683
11754TIP3   OH256676   0.816   4.805  15.980  0.3028 -0.1241 -0.2110
11754TIP3    H156677   0.721   4.821  15.984  0.2064 -0.8457  0.4969
11754TIP3    H256678   0.854   4.893  15.971 -0.4060  0.2021 -0.1166
11755TIP3   OH256679   4.930   3.976   1.658  0.3844 -0.4183  0.1275
11755TIP3    H156680   4.920   3.967   1.563 -0.5432  1.1168  0.0394
11755TIP3    H256681   4.917   3.888   1.692  0.7138 -0.9878 -1.1664
11756TIP3   OH256682   5.810   3.137   3.817  0.2396  0.1234  0.0930
11756TIP3    H156683   5.881   3.180   3.769  0.1258  0.8632  0.5736
11756TIP3    H256684   5.777   3.070   3.757  1.9949 -0.9323  0.2065
11757TIP3   OH256685   3.651   6.382  12.876 -0.3118 -0.2169  0.3371
11757TIP3    H156686   3.728   6.326  12.864 -0.9120 -0.7878 -1.1023
11757TIP3    H256687   3.577   6.322  12.875 -0.8093  0.3236  1.7108
11758TIP3   OH256688   3.201   6.752  13.483 -0.4294  0.2744 -1.0397
11758TIP3    H156689   3.260   6.728  13.555  0.7837 -0.9154 -2.3647
11758TIP3    H256690   3.142   6.677  13.476 -1.5225  1.0371 -0.3622
11759TIP3   OH256691   1.867   0.609  13.395 -0.3979 -0.1279  0.5796
11759TIP3    H156692   1.807   0.535  13.404 -2.2085  1.1931  0.0267
11759TIP3    H256693   1.902   0.602  13.306  0.3000 -0.8902  0.8973
11760TIP3   OH256694   1.510   0.305   3.821 -0.3098  0.3208  0.6247
11760TIP3    H156695   1.460   0.224   3.811  1.7371 -0.8637 -0.4798
11760TIP3    H256696   1.590   0.279   3.867 -0.0324  1.9027  1.1098
11761TIP3   OH256697   1.653   6.788   0.502  0.3445  0.0873  0.0368
11761TIP3    H156698   1.656   6.817   0.411  0.8034 -0.9058 -0.2870
11761TIP3    H256699   1.741   6.754   0.519  0.7081  1.5725  1.3179
11762TIP3   OH256700   1.643   6.579   4.707  0.3535  0.0167 -0.3060
11762TIP3    H156701   1.587   6.506   4.680 -0.1173  0.1621  0.2692
11762TIP3    H256702   1.731   6.550   4.685 -0.0411  0.4150 -2.6522
11763TIP3   OH256703   4.172   3.267  16.568  0.4290 -0.1748  0.3841
11763TIP3    H156704   4.235   3.339  16.563  1.9396 -1.4708 -0.0937
11763TIP3    H256705   4.087   3.310  16.575  1.2501  1.6568 -0.2235
11764TIP3   OH256706   3.612   1.367  16.365 -0.0899  0.2928  0.4408
11764TIP3    H156707   3.703   1.368  16.394 -0.9732  0.2628  3.5857
11764TIP3    H256708   3.576   1.451  16.396 -0.7682  1.1151 -2.3145
11765TIP3   OH256709   3.508   1.695   5.149 -0.0197  0.0203 -0.2483
11765TIP3    H156710   3.544   1.781   5.170 -1.6890  0.4342  1.1551
11765TIP3    H256711   3.449   1.675   5.222 -1.7437 -1.0913 -1.8410
11766TIP3   OH256712   3.760   3.481  12.655  0.3336  0.5617  0.5720
11766TIP3    H156713   3.759   3.402  12.601  0.0131  0.1895  1.1084
11766TIP3    H256714   3.733   3.551  12.596  1.1223  0.3663 -0.0485
11767TIP3   OH256715   0.483   5.835   3.249 -0.7713  0.6535 -0.5163
11767TIP3    H156716   0.568   5.800   3.278 -1.4063  0.4004  1.1615
11767TIP3    H256717   0.498   5.929   3.238 -0.7146  0.9601  1.7359
11768TIP3   OH256718   6.612   4.907  14.947  0.2870 -0.1950  0.5675
11768TIP3    H156719   6.529   4.909  14.996 -0.6726 -2.8264 -0.7196
11768TIP3    H256720   6.592   4.952  14.865 -0.0280 -1.1058  0.1239
11769TIP3   OH256721   5.135   3.158  13.788 -0.0402 -0.1172  0.1825
11769TIP3    H156722   5.102   3.069  13.799  0.7440 -0.3751  0.5567
11769TIP3    H256723   5.179   3.157  13.703  1.2613 -0.5240  0.8337
11770TIP3   OH256724   6.316   4.535  12.916  0.2190  0.3484 -0.5676
11770TIP3    H156725   6.380   4.465  12.930  1.4163  1.2134 -1.5303
11770TIP3    H256726   6.359   4.614  12.948 -0.9508  0.7380  0.1213
11771TIP3   OH256727   0.124   2.285  15.675 -0.5102  0.1028  0.0612
11771TIP3    H156728   0.049   2.274  15.733 -0.7154  0.0045 -0.2221
11771TIP3    H256729   0.200   2.284  15.733 -0.6308 -1.0980  0.2238
11772TIP3   OH256730   1.511   2.629   0.567  0.1217  0.4478  0.2913
11772TIP3    H156731   1.424   2.659   0.595  0.8181  0.7096  2.4056
11772TIP3    H256732   1.527   2.676   0.485 -2.3023 -0.7559 -0.9652
11773TIP3   OH256733   6.407   0.216   5.249  0.0861 -0.0851  0.3402
11773TIP3    H156734   6.493   0.245   5.277 -0.8081  0.3139  3.0138
11773TIP3    H256735   6.349   0.237   5.323 -2.2237 -0.7325 -1.1566
11774TIP3   OH256736   0.296   1.627   2.457  0.2885  0.2579  0.0979
11774TIP3    H156737   0.350   1.640   2.535  0.2540  1.3897 -0.0591
11774TIP3    H256738   0.216   1.676   2.475 -0.3264 -0.6543 -0.0575
11775TIP3   OH256739   1.199   6.597   0.693 -0.0903  0.0078 -0.3317
11775TIP3    H156740   1.140   6.550   0.635 -0.3158  0.8491 -0.8047
11775TIP3    H256741   1.286   6.561   0.674 -0.2132  0.0268 -0.9396
11776TIP3   OH256742   4.495   6.582   6.122 -0.1575 -0.2054 -0.1370
11776TIP3    H156743   4.419   6.530   6.150  0.5499 -1.4979 -0.5465
11776TIP3    H256744   4.571   6.530   6.147  0.5792  0.5037 -0.8153
11777TIP3   OH256745   0.358   5.678   0.076 -0.3720  0.1291  0.0888
11777TIP3    H156746   0.424   5.747   0.084 -1.3591  0.9238  2.0146
11777TIP3    H256747   0.405   5.605   0.034  1.8131  0.5630  1.5838
11778TIP3   OH256748   2.564   5.219   3.421  0.2120 -0.2390  0.6984
11778TIP3    H156749   2.642   5.269   3.398  1.3886 -2.6448 -1.0749
11778TIP3    H256750   2.550   5.236   3.514 -0.5679  4.5865 -0.0382
11779TIP3   OH256751   6.528   5.354   5.278 -0.1692  0.7833  0.2427
11779TIP3    H156752   6.556   5.343   5.187  1.1950  0.4096  0.6817
11779TIP3    H256753   6.610   5.358   5.328 -0.9001 -0.5350  1.6276
11780TIP3   OH256754   2.429   0.798  14.624  0.4416  0.1077 -0.1302
11780TIP3    H156755   2.386   0.755  14.698  1.0363 -0.1981  0.0391
11780TIP3    H256756   2.521   0.803  14.649  0.7537 -0.5506 -1.1088
11781TIP3   OH256757   2.748   4.235   2.404 -0.0649 -0.3500 -0.1436
11781TIP3    H156758   2.666   4.217   2.449 -0.2106 -0.2433 -0.3641
11781TIP3    H256759   2.741   4.327   2.376 -1.2743 -1.1936 -3.0292
11782TIP3   OH256760   6.092   5.960  14.748  0.1514  0.6490 -0.3680
11782TIP3    H156761   6.032   5.922  14.684 -0.2135  1.5453 -0.5720
11782TIP3    H256762   6.042   5.967  14.828 -0.8212  3.5054 -1.1150
11783TIP3   OH256763   5.372   2.662   3.621  0.0197 -0.2197 -0.1783
11783TIP3    H156764   5.366   2.662   3.717  2.9304 -1.2859  0.1144
11783TIP3    H256765   5.375   2.569   3.597  1.6503  0.0077 -1.0191
11784TIP3   OH256766   1.454   1.136  13.594 -0.5042 -0.3086 -0.2841
11784TIP3    H156767   1.501   1.136  13.510 -0.0558  0.5145 -0.0467
11784TIP3    H256768   1.461   1.046  13.625  0.7554 -0.2584 -0.3521
11785TIP3   OH256769   6.417   0.238   1.855 -0.3441  0.1017  0.2951
11785TIP3    H156770   6.356   0.185   1.805 -1.5471  0.0339  1.7587
11785TIP3    H256771   6.478   0.273   1.790 -0.2137 -2.0989 -0.8433
11786TIP3   OH256772   4.342   2.247  10.594  0.3011 -0.0345  0.2137
11786TIP3    H156773   4.330   2.187  10.520  0.5283 -0.4132  0.4823
11786TIP3    H256774   4.428   2.225  10.628  0.5786  0.7510  0.0378
11787TIP3   OH256775   1.078   5.670   6.426 -0.3556  0.2897 -0.0734
11787TIP3    H156776   0.985   5.653   6.442 -0.2375 -1.3021 -0.8190
11787TIP3    H256777   1.116   5.582   6.416  0.6572  0.9502 -2.8507
11788TIP3   OH256778   3.157   4.078  11.629  0.2764 -0.0547 -0.3336
11788TIP3    H156779   3.200   4.133  11.564  0.4050  0.7548  0.4327
11788TIP3    H256780   3.096   4.024  11.577  0.3367  0.6123 -1.1170
11789TIP3   OH256781   4.929   2.194   3.480 -0.4726  0.5154  0.5188
11789TIP3    H156782   5.020   2.187   3.508 -0.1656  2.0430  0.0304
11789TIP3    H256783   4.934   2.225   3.390 -1.4809 -0.4896  0.0863
11790TIP3   OH256784   0.743   6.668   4.478 -0.1673  0.2136 -0.1865
11790TIP3    H156785   0.806   6.733   4.446 -0.7966  1.3094  0.7379
11790TIP3    H256786   0.741   6.679   4.573 -0.8467 -0.6459 -0.0770
11791TIP3   OH256787   1.997   4.418   2.542  0.3813 -0.2543 -0.1738
11791TIP3    H156788   1.962   4.330   2.534  0.4193 -0.2865  0.0229
11791TIP3    H256789   2.000   4.435   2.636  2.2759 -0.7936 -0.0993
11792TIP3   OH256790   6.054   4.675  13.036  0.4215 -0.5284  0.0249
11792TIP3    H156791   6.113   4.651  12.964  1.0593 -0.5517  0.5478
11792TIP3    H256792   5.997   4.598  13.046  0.0525 -0.3696 -0.7118
11793TIP3   OH256793   3.422   4.356   5.938 -0.1706 -0.1210 -0.1837
11793TIP3    H156794   3.432   4.269   5.899  1.8630  0.1105 -0.2683
11793TIP3    H256795   3.436   4.343   6.031 -0.1065  0.0912 -0.1638
11794TIP3   OH256796   3.554   0.982   3.194 -0.2720 -0.2356 -0.5821
11794TIP3    H156797   3.504   1.025   3.124 -0.2273  0.0362 -0.4464
11794TIP3    H256798   3.514   0.896   3.202 -0.0463 -0.4061 -1.1969
11795TIP3   OH256799   3.089   0.724  16.517 -0.6412  0.4039  0.2476
11795TIP3    H156800   3.104   0.697  16.608  1.1444 -0.3228 -0.2293
11795TIP3    H256801   3.128   0.811  16.510 -1.0378  0.5859  0.2294
11796TIP3   OH256802   1.246   5.258   3.677  0.3379  0.3705  0.1835
11796TIP3    H156803   1.269   5.176   3.721 -2.0074  0.0763  0.9814
11796TIP3    H256804   1.245   5.323   3.748  1.6321  1.0180 -0.3549
11797TIP3   OH256805   6.407   1.572  16.821  0.2562  0.4148 -0.5153
11797TIP3    H156806   6.500   1.591  16.827  0.4776 -0.0667 -2.0996
11797TIP3    H256807   6.395   1.494  16.876  0.1860  2.1466  2.1428
11798TIP3   OH256808   6.482   6.769   3.333  0.0874  0.6539 -0.0578
11798TIP3    H156809   6.427   6.721   3.271 -1.3333  0.3502  1.3403
11798TIP3    H256810   6.516   6.843   3.284 -0.7257  0.2526 -1.2701
11799TIP3   OH256811   2.952   1.648   4.298 -0.6479  0.4642 -0.3297
11799TIP3    H156812   3.041   1.663   4.268  0.4098 -1.5441  1.5469
11799TIP3    H256813   2.918   1.579   4.241  0.0044 -0.6785  0.6305
11800TIP3   OH256814   3.379   1.270   3.174 -0.0644 -0.2210 -0.2046
11800TIP3    H156815   3.464   1.297   3.140  1.0521 -0.2173  2.3586
11800TIP3    H256816   3.316   1.327   3.129  1.2564 -0.2372 -2.1640
11801TIP3   OH256817   2.581   1.573  12.799 -0.9543  0.8260 -0.3626
11801TIP3    H156818   2.578   1.664  12.829 -0.0540  0.4698  0.9048
11801TIP3    H256819   2.539   1.524  12.870 -0.9065  0.1956 -0.7683
11802TIP3   OH256820   3.062   2.012   5.441  0.4553  0.8326 -0.0203
11802TIP3    H156821   2.975   1.982   5.413  0.3537  0.7213  0.4061
11802TIP3    H256822   3.123   1.969   5.381  0.3653 -0.7676  0.9821
11803TIP3   OH256823   1.791   0.816  12.410 -0.1119  0.1058 -0.3947
11803TIP3    H156824   1.711   0.869  12.404  0.3128  1.0364  1.2997
11803TIP3    H256825   1.760   0.726  12.414 -1.1195  0.4625  0.4368
11804TIP3   OH256826   4.391   3.983  10.419 -0.2188  0.2000  0.5653
11804TIP3    H156827   4.378   3.888  10.413 -0.4116  0.3098 -1.1115
11804TIP3    H256828   4.480   3.997  10.387  0.5932  0.4343  2.7257
11805TIP3   OH256829   5.538   5.770  16.561  0.2478 -0.0564  0.3703
11805TIP3    H156830   5.608   5.811  16.612 -0.8692  1.1905  0.9802
11805TIP3    H256831   5.485   5.724  16.626 -0.4715  0.4763  0.1685
11806TIP3   OH256832   2.407   5.258   5.031 -0.1116 -0.2348  0.0672
11806TIP3    H156833   2.354   5.276   4.953 -1.7574  2.2861  1.6230
11806TIP3    H256834   2.424   5.164   5.028 -1.1906 -0.4230 -2.6364
11807TIP3   OH256835   6.178   6.467  16.246 -0.4743 -0.5653 -0.2088
11807TIP3    H156836   6.179   6.434  16.156  0.7629 -1.5728  0.1573
11807TIP3    H256837   6.248   6.532  16.249 -0.8642 -0.1426 -0.1020
11808TIP3   OH256838   6.194   6.474  11.863  0.2034 -0.1384  0.6330
11808TIP3    H156839   6.147   6.391  11.854 -1.3658  0.9568 -2.2212
11808TIP3    H256840   6.281   6.457  11.827 -0.6522 -0.1770 -1.5059
11809TIP3   OH256841   1.613   2.536  13.653 -0.5523 -0.6985 -0.2873
11809TIP3    H156842   1.556   2.545  13.576 -0.3521 -1.0669 -0.4814
11809TIP3    H256843   1.553   2.524  13.726 -0.7650  0.1477 -0.3053
11810TIP3   OH256844   3.719   4.678   0.037 -0.3287 -0.2037  0.1244
11810TIP3    H156845   3.788   4.615   0.056 -1.1585 -0.9757  0.6751
11810TIP3    H256846   3.757   4.763   0.058  0.4399 -0.6160  0.4352
11811TIP3   OH256847   0.678   2.267  12.890  0.4009 -0.3395  0.4390
11811TIP3    H156848   0.649   2.176  12.903  1.0011 -0.4216  1.3511
11811TIP3    H256849   0.727   2.287  12.970  2.8725 -0.2387 -1.0116
11812TIP3   OH256850   6.209   2.552  16.175  0.6397  0.6534 -0.3199
11812TIP3    H156851   6.240   2.461  16.170  1.2964  0.7118  1.5585
11812TIP3    H256852   6.198   2.567  16.269 -0.1335  2.3121 -0.6519
11813TIP3   OH256853   6.471   1.170  12.160  0.7263 -0.1222 -0.0545
11813TIP3    H156854   6.394   1.227  12.161  0.0141 -0.9413 -2.3073
11813TIP3    H256855   6.541   1.225  12.124  0.2458 -0.3964 -1.4536
11814TIP3   OH256856   2.637   2.147  15.232 -0.6909  0.2744  0.2114
11814TIP3    H156857   2.623   2.212  15.163 -3.3952 -0.6316 -0.2431
11814TIP3    H256858   2.582   2.177  15.305 -0.1111 -0.2604  0.8854
11815TIP3   OH256859   4.664   2.559   5.190 -0.0930  0.2200  0.3410
11815TIP3    H156860   4.657   2.615   5.267  1.2202  1.9200 -0.6930
11815TIP3    H256861   4.631   2.613   5.118  0.1327 -0.7710 -0.5312
11816TIP3   OH256862   3.764   6.661   2.881  0.3340 -0.2361 -0.4667
11816TIP3    H156863   3.723   6.695   2.801  0.9340  0.8850 -0.3033
11816TIP3    H256864   3.735   6.570   2.884 -3.2274  0.7656  0.3090
11817TIP3   OH256865   0.985   2.037   5.002  0.6529 -0.0631 -0.1737
11817TIP3    H156866   0.947   2.116   5.041 -0.5503 -0.1610 -1.0852
11817TIP3    H256867   1.000   2.060   4.910 -0.7155 -1.1998 -0.7204
11818TIP3   OH256868   5.436   1.767   3.176 -0.4127 -0.3057  0.3810
11818TIP3    H156869   5.498   1.695   3.168  1.8476  1.7037 -2.4080
11818TIP3    H256870   5.351   1.728   3.156  0.9104 -2.0539 -2.4192
11819TIP3   OH256871   1.683   0.425   6.142 -0.2286 -0.5063  0.1366
11819TIP3    H156872   1.725   0.502   6.105  1.8473 -2.0565 -0.9779
11819TIP3    H256873   1.717   0.352   6.089 -0.4473 -2.3906  2.4495
11820TIP3   OH256874   4.088   0.348   3.803  0.0260 -0.0297  0.1751
11820TIP3    H156875   4.182   0.362   3.814  0.7545 -1.9763 -2.6577
11820TIP3    H256876   4.071   0.267   3.851 -0.1291  0.1205  0.3731
11821TIP3   OH256877   2.803   1.906   4.915 -0.6167 -0.0697  0.0400
11821TIP3    H156878   2.717   1.925   4.877 -0.2947 -0.6801 -1.0321
11821TIP3    H256879   2.803   1.953   4.999 -1.9955 -0.0749  0.0665
11822TIP3   OH256880   0.027   0.612   0.437 -0.1979  0.3056  0.1901
11822TIP3    H156881   0.029   0.707   0.439  0.0236  0.4066 -2.0638
11822TIP3    H256882  -0.066   0.590   0.435 -0.2454  0.5058  0.2120
11823TIP3   OH256883   1.714   2.814   0.095 -0.3028  0.5614 -0.7151
11823TIP3    H156884   1.794   2.767   0.069 -0.0989 -1.7347  3.2540
11823TIP3    H256885   1.745   2.887   0.147 -0.7720  0.3700 -0.1635
11824TIP3   OH256886   3.571   3.342   3.982 -0.1490 -0.6495  0.3895
11824TIP3    H156887   3.661   3.374   3.980  0.3739 -2.0844 -0.9359
11824TIP3    H256888   3.532   3.374   3.900 -0.6673 -0.5243  0.6806
11825TIP3   OH256889   2.405   3.355  15.667  0.0217  0.1177 -0.1791
11825TIP3    H156890   2.346   3.391  15.734  0.6633 -0.5518  0.7638
11825TIP3    H256891   2.388   3.261  15.667  0.0749  0.1003 -0.9239
11826TIP3   OH256892   6.231   3.620  16.604 -0.1542 -0.2941  0.1030
11826TIP3    H156893   6.284   3.548  16.569 -0.1296 -0.3835  0.3222
11826TIP3    H256894   6.276   3.647  16.684  1.2052  1.6210 -1.2467
11827TIP3   OH256895   0.138   3.190  11.170  0.1399  0.4852  0.6440
11827TIP3    H156896   0.154   3.150  11.085  1.5186 -0.1112  1.1507
11827TIP3    H256897   0.111   3.279  11.150 -1.2544 -0.1469 -0.4554
11828TIP3   OH256898   4.136   0.611   3.567  0.3785  0.0562  0.0727
11828TIP3    H156899   4.053   0.589   3.525  0.1680  0.8510  0.0636
11828TIP3    H256900   4.197   0.625   3.495  0.2230  0.6170  0.0463
11829TIP3   OH256901   3.881   1.770  16.989 -0.1374  0.1748  0.5551
11829TIP3    H156902   3.903   1.780  16.896 -0.5033 -0.8814  0.3439
11829TIP3    H256903   3.827   1.846  17.009 -2.2087 -0.8709 -0.7752
11830TIP3   OH256904   6.164   4.380   1.024  0.6241  0.2852  0.3592
11830TIP3    H156905   6.164   4.389   0.929 -4.2230 -0.1453  0.0659
11830TIP3    H256906   6.093   4.437   1.054  0.1845 -1.6062  3.4004
11831TIP3   OH256907   4.937   5.021   4.471  0.3940 -0.1909 -0.1938
11831TIP3    H156908   4.851   5.059   4.455  0.6639  0.4528 -0.1379
11831TIP3    H256909   4.921   4.927   4.475 -0.5092 -0.0069  1.0897
11832TIP3   OH256910   5.635   1.840  12.565  0.4439  0.0277  0.1344
11832TIP3    H156911   5.665   1.906  12.627  1.3883 -0.8514  0.6419
11832TIP3    H256912   5.557   1.802  12.606  0.7931 -0.2256  0.5753
11833TIP3   OH256913   5.676   2.210   2.265  0.3068 -0.2156  0.5497
11833TIP3    H156914   5.589   2.174   2.246 -0.4126  1.3595  0.7211
11833TIP3    H256915   5.691   2.190   2.358 -0.4634  0.6496  0.8721
11834TIP3   OH256916   2.958   3.977   5.232 -0.0648  0.6816  0.1832
11834TIP3    H156917   3.023   4.046   5.222 -0.4306  1.2535  1.4581
11834TIP3    H256918   2.881   4.022   5.267 -0.3783 -0.3358  0.8556
11835TIP3   OH256919   2.487   1.804   4.979  0.3049  0.6331 -0.0079
11835TIP3    H156920   2.504   1.817   5.072 -0.7054  0.5755  0.2037
11835TIP3    H256921   2.419   1.869   4.958 -0.1850 -0.0039 -0.4558
11836TIP3   OH256922   4.000   4.550   0.817 -0.8491  0.2799 -0.6099
11836TIP3    H156923   4.085   4.507   0.808 -0.6789  0.5799 -0.4740
11836TIP3    H256924   4.014   4.616   0.885 -1.5424 -0.5391  0.3540
11837TIP3   OH256925   6.612   3.356  15.538 -0.0514  0.6278  0.3122
11837TIP3    H156926   6.550   3.413  15.583  0.9170  2.0140 -0.0552
11837TIP3    H256927   6.599   3.376  15.445  0.6980  0.6636  0.2140
11838TIP3   OH256928   5.826   4.158  15.277  0.1317  0.3044 -0.3910
11838TIP3    H156929   5.781   4.242  15.271 -0.4538  0.0270 -0.0203
11838TIP3    H256930   5.918   4.179  15.266  0.0964  1.1325  0.7371
11839TIP3   OH256931   4.257   0.812  12.947 -0.0862  0.7144 -0.2324
11839TIP3    H156932   4.210   0.854  12.875 -0.2888  1.9204  0.5553
11839TIP3    H256933   4.234   0.865  13.024  1.6664  0.6745  0.3730
11840TIP3   OH256934   1.495   4.685  11.212 -0.7942  0.1501  0.0135
11840TIP3    H156935   1.420   4.677  11.271 -1.4080 -1.5806 -0.9277
11840TIP3    H256936   1.537   4.768  11.237 -1.1128 -0.4105  2.7253
11841TIP3   OH256937   3.450   6.718  16.933 -0.0074  0.1986 -0.8721
11841TIP3    H156938   3.462   6.739  16.840 -2.5821  1.8687 -0.9105
11841TIP3    H256939   3.447   6.802  16.977  1.8169 -0.5732  0.9152
11842TIP3   OH256940   4.341   5.097  12.904  0.4625  0.0111  0.0254
11842TIP3    H156941   4.355   5.171  12.844  0.8810 -0.0100  0.0948
11842TIP3    H256942   4.253   5.111  12.938 -0.2766 -0.6375 -1.5178
11843TIP3   OH256943   3.823   3.879   1.005 -0.3264 -0.2112 -0.1154
11843TIP3    H156944   3.784   3.954   1.049  0.2081 -0.8931  1.6040
11843TIP3    H256945   3.872   3.917   0.932 -2.0794  0.8651 -0.8057
11844TIP3   OH256946   2.868   3.279   1.666  0.5062  0.2655  0.2666
11844TIP3    H156947   2.854   3.339   1.739  0.4541  1.1450 -0.4473
11844TIP3    H256948   2.886   3.335   1.591  0.2706 -0.6009 -0.4712
11845TIP3   OH256949   2.010   4.374   0.700  0.3802  0.2889  0.0064
11845TIP3    H156950   2.027   4.292   0.746  1.4228  1.7975  2.5361
11845TIP3    H256951   1.940   4.416   0.750 -0.9612  0.4880 -1.9355
11846TIP3   OH256952   1.593   3.510  10.446  0.0311  0.1830 -0.0502
11846TIP3    H156953   1.682   3.545  10.441  0.0952  0.1697  0.7630
11846TIP3    H256954   1.604   3.424  10.487 -0.4983  0.8884  1.6887
11847TIP3   OH256955   1.613   2.242   3.083  0.0956  0.1488 -0.2964
11847TIP3    H156956   1.596   2.281   3.169 -1.2019  0.9498 -0.8674
11847TIP3    H256957   1.708   2.248   3.072  0.4948 -1.4618  1.7313
11848TIP3   OH256958   3.972   0.164   5.281 -0.1256 -0.3853  0.1896
11848TIP3    H156959   3.917   0.231   5.322  0.9676  0.4496  0.3347
11848TIP3    H256960   3.943   0.082   5.321  1.1358  0.4155  3.0039
11849TIP3   OH256961   4.492   5.609   0.504 -0.6229 -0.1444 -0.3341
11849TIP3    H156962   4.446   5.531   0.473 -1.1916  0.0603 -0.0390
11849TIP3    H256963   4.533   5.582   0.586 -1.5251  0.0819  0.2067
11850TIP3   OH256964   4.753   2.266  16.737  0.3425  0.5830 -0.4124
11850TIP3    H156965   4.803   2.344  16.762 -1.9873  1.2899  2.6997
11850TIP3    H256966   4.688   2.299  16.674  0.2810  0.8469 -0.2116
11851TIP3   OH256967   0.307   5.169   2.636  0.3263 -0.2116 -0.4286
11851TIP3    H156968   0.252   5.223   2.693  0.2614 -0.4394 -0.2714
11851TIP3    H256969   0.396   5.178   2.672  0.7133  1.5235 -1.6999
11852TIP3   OH256970   4.900   2.510  13.884  0.4510 -0.2155  0.2808
11852TIP3    H156971   4.819   2.470  13.852  0.3184  0.8298 -0.7681
11852TIP3    H256972   4.958   2.511  13.807  1.1284 -0.1253  0.7861
11853TIP3   OH256973   1.472   3.757   0.137 -0.1636 -0.8895 -0.0504
11853TIP3    H156974   1.512   3.768   0.224 -0.1142  0.8343 -0.2614
11853TIP3    H256975   1.450   3.846   0.109 -0.7842 -1.4782 -1.5357
11854TIP3   OH256976   5.759   6.166  11.853 -0.2868 -0.2533 -0.2226
11854TIP3    H156977   5.706   6.246  11.854  2.6248  1.8459 -0.1108
11854TIP3    H256978   5.725   6.115  11.779 -1.8039  1.4081 -0.7340
11855TIP3   OH256979   5.280   2.724  15.347  0.5201 -0.5126  0.2833
11855TIP3    H156980   5.374   2.706  15.350  0.3309 -2.0109 -1.1570
11855TIP3    H256981   5.270   2.788  15.276  0.3584 -1.2556 -0.3787
11856TIP3   OH256982   1.981   0.634   1.851 -0.2654 -0.3447 -0.1621
11856TIP3    H156983   2.076   0.639   1.862 -0.4630 -1.2078  2.6071
11856TIP3    H256984   1.964   0.686   1.772  2.1813  2.7400  1.0918
11857TIP3   OH256985   5.172   3.727  12.455  0.4506  0.1040 -0.6378
11857TIP3    H156986   5.172   3.803  12.513 -0.9922 -0.1778 -0.2294
11857TIP3    H256987   5.264   3.708  12.441  0.8364  1.6964 -0.4447
11858TIP3   OH256988   1.504   6.125  16.895  0.5088 -0.0246  0.1845
11858TIP3    H156989   1.443   6.121  16.969 -2.2837 -2.4638 -2.0030
11858TIP3    H256990   1.561   6.048  16.908  0.9765  0.3630  0.4870
11859TIP3   OH256991   6.136   5.667  16.163 -0.2493  0.4039 -0.0032
11859TIP3    H156992   6.181   5.603  16.108 -0.9124  1.9651 -2.5410
11859TIP3    H256993   6.070   5.616  16.210  0.7398 -1.0867 -0.1541
11860TIP3   OH256994   3.181   1.065  12.302 -0.0705 -0.2079  0.5206
11860TIP3    H156995   3.138   0.981  12.291 -1.6049  0.5295  0.7083
11860TIP3    H256996   3.265   1.054  12.258 -0.7706 -1.4164 -0.5876
11861TIP3   OH256997   1.034   3.397   1.977 -0.1990  0.4532 -0.3251
11861TIP3    H156998   1.119   3.392   2.020 -0.5748  0.6093  0.4623
11861TIP3    H256999   0.990   3.315   2.002  0.0569 -0.0420 -1.4690
11862TIP3   OH257000   4.560   6.520  16.448 -0.1910 -0.1802 -0.0148
11862TIP3    H157001   4.603   6.437  16.470  0.2094  0.2720  0.9613
11862TIP3    H257002   4.589   6.581  16.515  1.4809  1.4272 -2.0547
11863TIP3   OH257003   3.394   1.937   2.152 -0.3061 -0.7626  0.0821
11863TIP3    H157004   3.400   1.963   2.060 -1.8229  0.7183  0.3504
11863TIP3    H257005   3.346   1.854   2.150 -1.0212 -0.3479 -0.4330
11864TIP3   OH257006   1.850   4.923   3.506  0.3425 -0.4688 -0.0264
11864TIP3    H157007   1.772   4.964   3.542  1.2323 -0.3037  1.8429
11864TIP3    H257008   1.820   4.838   3.474 -0.4333 -0.8680  1.6517
11865TIP3   OH257009   4.736   4.993  14.544  0.0174  0.1448  0.9165
11865TIP3    H157010   4.730   4.919  14.603  0.2040 -0.4188  0.2440
11865TIP3    H257011   4.645   5.011  14.518  0.0311 -0.2843  0.5591
11866TIP3   OH257012   5.576   2.084  12.692 -0.0114 -0.5715  0.5369
11866TIP3    H157013   5.488   2.053  12.714  0.2172 -1.4147  0.2835
11866TIP3    H257014   5.578   2.174  12.724 -0.9534 -0.5577  0.5869
11867TIP3   OH257015   5.738   5.243  15.250  0.6061 -0.2486  0.0375
11867TIP3    H157016   5.793   5.182  15.200  2.2431  2.1241 -1.2284
11867TIP3    H257017   5.711   5.308  15.186 -2.9751 -0.7510  0.8637
11868TIP3   OH257018   0.658   0.253  14.971  0.3999  0.4154  0.0234
11868TIP3    H157019   0.635   0.266  14.879  1.2019  1.0565 -0.1000
11868TIP3    H257020   0.597   0.186  15.001 -1.6895  2.0916 -0.2441
11869TIP3   OH257021   0.272   3.014  15.416 -0.2179  0.6819  0.0394
11869TIP3    H157022   0.216   2.944  15.383  0.9772 -0.1369 -0.2960
11869TIP3    H257023   0.231   3.094  15.382 -1.3435  0.1369  0.0462
11870TIP3   OH257024   0.095   5.703   1.878 -0.4462 -0.4709  0.3635
11870TIP3    H157025   0.153   5.741   1.943  0.5583 -1.0838 -0.1527
11870TIP3    H257026   0.014   5.684   1.926  0.6313 -1.8880  1.6990
11871TIP3   OH257027   6.152   1.682   4.180  0.6785  0.5723  0.2006
11871TIP3    H157028   6.135   1.775   4.166 -2.0431 -0.1212 -1.8804
11871TIP3    H257029   6.184   1.677   4.270  1.4031  3.5345  0.2180
11872TIP3   OH257030   6.748   1.472  15.748 -0.8823 -0.0215 -0.2336
11872TIP3    H157031   6.788   1.553  15.778 -0.1703 -0.2333 -0.5987
11872TIP3    H257032   6.666   1.466  15.797  1.1585 -1.4136  3.3160
11873TIP3   OH257033   3.560   2.134   3.170  0.1111  0.7947  0.1069
11873TIP3    H157034   3.633   2.163   3.225  1.1431 -0.5461 -0.5138
11873TIP3    H257035   3.583   2.045   3.144 -1.5036  0.5328 -0.5455
11874TIP3   OH257036   6.237   6.570  13.415  0.6661 -0.2369  0.2090
11874TIP3    H157037   6.189   6.534  13.340  1.9187 -1.5093 -0.0164
11874TIP3    H257038   6.246   6.496  13.475 -0.1136  0.7047  1.5510
11875TIP3   OH257039   1.775   5.552   4.406 -0.1838 -0.2880  0.1972
11875TIP3    H157040   1.775   5.563   4.311 -0.0400 -1.1012  0.0948
11875TIP3    H257041   1.684   5.532   4.428 -0.0403 -1.0491  0.1085
11876TIP3   OH257042   2.702   6.503   0.560 -0.2424  0.7484 -0.3577
11876TIP3    H157043   2.764   6.495   0.487 -1.6638 -0.7699 -1.4725
11876TIP3    H257044   2.721   6.427   0.615 -0.7589  0.5737 -0.4199
11877TIP3   OH257045   6.016   0.701   1.762  0.7407 -0.0508  0.5747
11877TIP3    H157046   6.099   0.655   1.769  0.6203 -0.3044  0.3442
11877TIP3    H257047   5.992   0.722   1.853 -0.3654 -2.5204  0.9143
11878TIP3   OH257048   5.369   6.760  12.650 -0.2287 -0.1914 -0.0897
11878TIP3    H157049   5.428   6.743  12.723 -0.0672 -0.7993 -0.3491
11878TIP3    H257050   5.358   6.855  12.648  1.1234 -0.0216 -0.3418
11879TIP3   OH257051   0.791   2.338   3.093  0.2061  0.0671 -0.0263
11879TIP3    H157052   0.731   2.266   3.112  1.6953 -0.3825  3.9309
11879TIP3    H257053   0.773   2.402   3.162  0.3152  2.6479 -2.2402
11880TIP3   OH257054   1.591   5.827  13.326  0.0370  0.4186 -0.0097
11880TIP3    H157055   1.523   5.760  13.320  0.7551 -0.2296 -1.5103
11880TIP3    H257056   1.543   5.910  13.326 -0.7866  0.0450 -2.8896
11881TIP3   OH257057   0.978   2.492  10.740  0.5863 -0.0641 -0.5481
11881TIP3    H157058   1.074   2.493  10.744  0.5503  0.5994  1.4720
11881TIP3    H257059   0.957   2.486  10.647  2.5845 -0.3307 -1.0191
11882TIP3   OH257060   5.455   3.489  16.376  0.4711  0.4451 -0.3317
11882TIP3    H157061   5.406   3.490  16.293  1.6119  0.8140 -1.0325
11882TIP3    H257062   5.538   3.447  16.354 -0.4906 -2.6780  1.4467
11883TIP3   OH257063   1.471   4.935   5.411 -0.3219 -0.6195 -0.0099
11883TIP3    H157064   1.384   4.934   5.450 -0.1987 -1.7211  0.2637
11883TIP3    H257065   1.527   4.975   5.477 -0.5125 -0.4317  0.0389
11884TIP3   OH257066   5.325   1.065  15.788  0.6598 -0.6041  0.0978
11884TIP3    H157067   5.263   1.109  15.730 -0.8290 -0.4827  1.6775
11884TIP3    H257068   5.395   1.129  15.801  2.3836 -1.5338 -3.4471
11885TIP3   OH257069   2.333   6.492  10.185 -0.5569 -0.1849  0.5171
11885TIP3    H157070   2.346   6.514  10.093 -0.5492 -2.8042 -0.1798
11885TIP3    H257071   2.403   6.431  10.205 -1.1410 -0.4031  1.9977
11886TIP3   OH257072   2.828   5.203   2.121 -0.3088 -0.3864  0.0835
11886TIP3    H157073   2.919   5.225   2.140  0.3082  1.1355 -3.7075
11886TIP3    H257074   2.778   5.252   2.186  1.5324  1.0160  0.5490
11887TIP3   OH257075   0.819   0.093   3.843 -0.0735 -0.5359 -0.1801
11887TIP3    H157076   0.810   0.156   3.914  0.2425 -1.5283  0.7820
11887TIP3    H257077   0.820   0.145   3.763 -1.0879  0.5607  0.5028
11888TIP3   OH257078   3.353   1.698   0.099 -0.6632 -0.5943  0.8085
11888TIP3    H157079   3.303   1.636   0.045  0.6264 -0.3159 -0.7971
11888TIP3    H257080   3.309   1.697   0.184 -1.0429 -3.2532  0.6562
11889TIP3   OH257081   4.592   3.296   3.519  0.0632  0.1712  0.5148
11889TIP3    H157082   4.601   3.263   3.608 -0.5549  0.5324  0.7177
11889TIP3    H257083   4.640   3.233   3.465 -1.3844 -1.2797  0.8377
11890TIP3   OH257084   0.183   3.497  11.316 -0.2795 -0.2783 -0.2498
11890TIP3    H157085   0.219   3.470  11.231 -2.7549 -1.5294 -0.9922
11890TIP3    H257086   0.165   3.591  11.306 -0.4221 -0.3868 -1.0525
11891TIP3   OH257087   5.690   6.636  11.264 -0.2642  0.4517  0.4843
11891TIP3    H157088   5.756   6.705  11.264  0.9369 -0.6276 -0.8866
11891TIP3    H257089   5.679   6.613  11.171 -1.6366 -0.2773  0.7880
11892TIP3   OH257090   3.775   3.917  13.850  0.0668 -0.1455 -0.5041
11892TIP3    H157091   3.725   3.998  13.860 -0.1440 -0.1394 -1.5081
11892TIP3    H257092   3.817   3.925  13.764  3.1760  0.5804  0.9305
11893TIP3   OH257093   3.153   2.275  12.304 -0.0716 -0.1987  0.7393
11893TIP3    H157094   3.159   2.364  12.271 -0.4127 -0.6438 -0.6267
11893TIP3    H257095   3.187   2.279  12.393  0.9003  1.0873  0.3340
11894TIP3   OH257096   6.673   6.077  15.161 -0.3535 -0.2954  0.3984
11894TIP3    H157097   6.688   6.050  15.252  0.5512 -0.1820  0.2856
11894TIP3    H257098   6.579   6.097  15.158 -0.0888  1.4863  1.8081
11895TIP3   OH257099   1.792   3.744   4.965 -0.1673  0.5972  0.3703
11895TIP3    H157100   1.769   3.819   5.019 -0.2411  1.2245 -0.5015
11895TIP3    H257101   1.709   3.698   4.950  0.0222 -0.2479  1.7196
11896TIP3   OH257102   2.676   3.811  11.895 -0.1804  0.2056 -0.3594
11896TIP3    H157103   2.769   3.794  11.911 -0.3867  0.1657  0.8380
11896TIP3    H257104   2.674   3.900  11.859  0.1406  1.2905  2.0810
11897TIP3   OH257105   3.473   1.347   0.432  0.3513  0.2207 -0.4480
11897TIP3    H157106   3.507   1.432   0.405  0.6973 -0.1599 -1.2470
11897TIP3    H257107   3.544   1.306   0.481 -0.3135  0.9545  1.2045
11898TIP3   OH257108   0.117   0.947   5.616  0.0006  0.3996  0.2778
11898TIP3    H157109   0.066   1.002   5.556  0.8069  0.5835 -0.2553
11898TIP3    H257110   0.138   1.005   5.689 -2.7841 -0.3731  1.8641
11899TIP3   OH257111   0.508   1.703  11.446  0.0965 -0.1198 -0.4443
11899TIP3    H157112   0.589   1.754  11.434  0.2602 -0.1010  0.6099
11899TIP3    H257113   0.456   1.755  11.508  1.0116 -1.9691  2.0691
11900TIP3   OH257114   2.510   0.449  14.439  0.1597  0.7366  0.2337
11900TIP3    H157115   2.500   0.438  14.534 -0.1394 -1.7436 -0.0130
11900TIP3    H257116   2.603   0.434  14.423  0.0199  0.0598  0.0312
11901TIP3   OH257117   1.403   5.278   3.435 -0.4186  1.0259  0.3203
11901TIP3    H157118   1.346   5.252   3.507 -0.9150 -4.3168 -1.4995
11901TIP3    H257119   1.490   5.247   3.461 -0.3222  0.3850 -0.6930
11902TIP3   OH257120   6.057   4.572  10.936 -0.3604  0.7178  0.1105
11902TIP3    H157121   6.094   4.523  11.009  0.8574  1.0446 -0.2552
11902TIP3    H257122   5.991   4.514  10.898 -0.2060  0.1005  0.7831
11903TIP3   OH257123   4.032   2.074  14.474 -0.4734  0.4420  0.2034
11903TIP3    H157124   4.043   2.113  14.561  1.0310 -0.1826  0.3239
11903TIP3    H257125   4.100   2.006  14.469 -2.0425 -1.1361 -0.5733
11904TIP3   OH257126   1.684   4.234   3.555  0.4241  0.5600 -0.0467
11904TIP3    H157127   1.746   4.196   3.617  1.0133  1.8931  0.2240
11904TIP3    H257128   1.695   4.183   3.475 -0.6326 -1.4446  1.0316
11905TIP3   OH257129   0.732   0.701  16.177  0.5787  0.7173  0.1990
11905TIP3    H157130   0.780   0.627  16.140 -0.8935  0.2762 -0.9286
11905TIP3    H257131   0.725   0.680  16.271  3.4148  1.3182  0.6364
11906TIP3   OH257132   1.222   2.291   3.493  0.4875  0.2568 -0.4690
11906TIP3    H157133   1.263   2.321   3.573  0.2266 -0.0060 -0.2325
11906TIP3    H257134   1.134   2.330   3.495  0.2477 -0.2874 -0.2987
11907TIP3   OH257135   0.976   0.215  14.578  0.2203  0.1002  0.3526
11907TIP3    H157136   0.968   0.267  14.659  0.0759 -1.0069  1.0629
11907TIP3    H257137   1.015   0.133  14.606 -1.3603 -0.9562 -0.4315
11908TIP3   OH257138   6.025   3.449  14.840  0.3374 -1.0067 -0.3863
11908TIP3    H157139   5.938   3.426  14.872 -0.9006 -2.1069 -4.0699
11908TIP3    H257140   6.027   3.545  14.845 -1.5541 -0.8746 -1.2304
11909TIP3   OH257141   4.821   5.301  14.386  0.0014  0.4381  0.4174
11909TIP3    H157142   4.892   5.236  14.390 -0.0272  0.4521  1.5472
11909TIP3    H257143   4.741   5.249  14.394 -0.0309  0.5900  1.0941
11910TIP3   OH257144   4.081   0.687  11.368  0.4303 -0.0596  0.4551
11910TIP3    H157145   3.995   0.680  11.410  0.8634 -1.6311  1.1405
11910TIP3    H257146   4.064   0.676  11.274 -0.2668  1.1045  0.4299
11911TIP3   OH257147   0.278   6.818   3.788  0.2441  0.2627 -0.0694
11911TIP3    H157148   0.357   6.785   3.832  1.0632  2.1943 -0.0003
11911TIP3    H257149   0.205   6.779   3.836  1.1353 -1.3618  0.0247
11912TIP3   OH257150   5.481   2.248   1.577 -0.6106  0.3905 -0.6847
11912TIP3    H157151   5.473   2.154   1.591 -0.0426  0.5443  0.8559
11912TIP3    H257152   5.397   2.275   1.541 -1.4205 -0.4359  0.5387
11913TIP3   OH257153   3.858   0.562   3.506 -0.3676 -0.1746 -0.1999
11913TIP3    H157154   3.836   0.516   3.587 -0.0191 -0.8020 -0.4603
11913TIP3    H257155   3.879   0.493   3.443 -1.8647  0.2598 -1.2071
11914TIP3   OH257156   0.987   5.344  12.945 -0.5474 -0.0912  0.3878
11914TIP3    H157157   0.966   5.252  12.931  0.2214 -0.2498  0.2092
11914TIP3    H257158   0.963   5.361  13.036  0.3897 -0.7920  0.7843
11915TIP3   OH257159   2.347   5.123  15.879 -0.2287  0.2177 -0.3761
11915TIP3    H157160   2.343   5.214  15.850 -1.3590  0.3073  0.0046
11915TIP3    H257161   2.433   5.092  15.851  0.6803  1.7623  0.5683
11916TIP3   OH257162   1.340   4.282  15.184 -0.0819  0.4941  0.6694
11916TIP3    H157163   1.355   4.372  15.152 -0.3825  0.8881  1.6030
11916TIP3    H257164   1.362   4.286  15.277 -0.6679 -0.2669  0.8497
11917TIP3   OH257165   5.310   6.123   3.761 -0.4207 -0.4396  0.4423
11917TIP3    H157166   5.277   6.138   3.849  0.2953  1.6321  0.3981
11917TIP3    H257167   5.389   6.176   3.756 -0.8909  0.1459 -1.7080
11918TIP3   OH257168   0.471   6.751   3.044  0.1290 -0.1192  0.3173
11918TIP3    H157169   0.486   6.710   3.129  1.5247  1.0059  0.6586
11918TIP3    H257170   0.456   6.843   3.065  2.0071  0.4668 -0.7292
11919TIP3   OH257171   4.561   4.327   5.226 -0.3587  0.6305  0.7024
11919TIP3    H157172   4.622   4.274   5.175  1.6503  1.8579  1.7211
11919TIP3    H257173   4.546   4.277   5.306  0.6716  1.0857  1.1873
11920TIP3   OH257174   5.740   3.187   6.412  0.1530 -0.0201  0.4301
11920TIP3    H157175   5.750   3.169   6.506 -1.4645  0.4500  0.7159
11920TIP3    H257176   5.648   3.169   6.393  0.0913  1.3044 -0.7476
11921TIP3   OH257177   4.797   0.365   5.004  0.3045 -0.3203 -0.4717
11921TIP3    H157178   4.718   0.417   5.015 -0.6527 -1.7962 -0.0705
11921TIP3    H257179   4.838   0.400   4.924 -0.2083  1.1009 -0.1458
11922TIP3   OH257180   0.027   3.293  12.221 -0.3106 -0.3458 -0.7940
11922TIP3    H157181   0.040   3.383  12.191 -0.3998 -0.4318 -1.1003
11922TIP3    H257182  -0.046   3.298  12.282 -0.7532 -0.3027 -1.3146
11923TIP3   OH257183   4.016   4.813   4.512 -0.2470 -0.5884 -0.2136
11923TIP3    H157184   3.922   4.813   4.527 -0.3209 -0.1011 -0.6447
11923TIP3    H257185   4.036   4.724   4.483 -0.4435 -0.9182  0.6303
11924TIP3   OH257186   4.320   5.151  12.500 -0.1717  0.1121 -0.1263
11924TIP3    H157187   4.268   5.145  12.420  0.4702  1.3251 -0.6758
11924TIP3    H257188   4.362   5.066  12.508 -0.7092 -0.2218 -0.7502
11925TIP3   OH257189   2.714   0.196  13.084 -0.5697  0.2675 -0.1963
11925TIP3    H157190   2.783   0.190  13.150 -0.6577  3.1119  0.2999
11925TIP3    H257191   2.635   0.168  13.129 -0.2882  0.2084  0.2674
11926TIP3   OH257192   4.187   3.145  13.883 -0.2069  0.0975 -0.6292
11926TIP3    H157193   4.187   3.052  13.906  1.3991 -0.1308 -1.3838
11926TIP3    H257194   4.095   3.169  13.879 -0.6480 -1.3845 -0.1515
11927TIP3   OH257195   4.606   6.081  16.995 -0.2069 -0.0317  0.1109
11927TIP3    H157196   4.525   6.068  16.946 -0.7786  1.4691  0.6040
11927TIP3    H257197   4.583   6.064  17.086 -0.5089  2.2389  0.5191
11928TIP3   OH257198   5.871   3.866  15.199 -0.8181 -0.1931 -0.1147
11928TIP3    H157199   5.858   3.961  15.201 -2.5859 -0.3913  2.4548
11928TIP3    H257200   5.960   3.854  15.233  0.1192  0.5655 -2.1889
11929TIP3   OH257201   5.947   3.607   0.521  0.4941 -0.1390  0.4432
11929TIP3    H157202   5.991   3.687   0.490  0.8968 -0.1180  1.0535
11929TIP3    H257203   6.017   3.556   0.562  0.0401 -0.3151  1.0091
11930TIP3   OH257204   0.957   0.431   0.323  0.0415  0.2080  0.5364
11930TIP3    H157205   1.017   0.394   0.258  1.8797 -1.9672  3.2209
11930TIP3    H257206   1.003   0.506   0.360  0.8126 -0.9081  1.9530
11931TIP3   OH257207   1.780   0.885   4.307 -0.5371 -0.0018 -0.1381
11931TIP3    H157208   1.843   0.839   4.363 -0.2041  0.2643 -0.2873
11931TIP3    H257209   1.709   0.823   4.294 -1.3217  0.4435  1.7757
11932TIP3   OH257210   5.209   4.134  11.933  0.0474 -0.3538 -0.3758
11932TIP3    H157211   5.203   4.087  12.016  0.6795  0.6016  0.2180
11932TIP3    H257212   5.302   4.132  11.911  0.5069  2.6139  0.8657
11933TIP3   OH257213   6.005   1.242  12.555 -0.4402  0.0922  0.3821
11933TIP3    H157214   5.950   1.205  12.485  0.1345  0.7070 -0.4170
11933TIP3    H257215   6.093   1.212  12.535 -0.5265 -1.4646  2.0533
11934TIP3   OH257216   6.508   2.596   2.183  0.0819  0.6118 -0.2806
11934TIP3    H157217   6.470   2.683   2.194 -0.6210  0.4147 -1.0778
11934TIP3    H257218   6.438   2.536   2.208 -0.4047  0.2260 -2.4506
11935TIP3   OH257219   5.957   1.305  16.668 -0.0985 -0.3376  0.1802
11935TIP3    H157220   5.948   1.377  16.730  1.0736 -0.0570  0.0450
11935TIP3    H257221   6.046   1.272  16.682  1.6670  1.9834 -3.6805
11936TIP3   OH257222   0.926   1.189  16.133  0.6201  0.2207  0.1158
11936TIP3    H157223   0.952   1.184  16.041 -1.0569  2.0985 -0.5552
11936TIP3    H257224   1.007   1.176  16.182  1.7458  0.1840 -1.6620
11937TIP3   OH257225   1.991   2.164  12.216  0.1115  0.2714  0.2390
11937TIP3    H157226   2.017   2.255  12.230 -0.8990  0.5844  0.1675
11937TIP3    H257227   1.976   2.129  12.304  3.7040 -0.8646  0.5434
11938TIP3   OH257228   5.362   2.048  13.752  0.6238 -0.1254  0.0170
11938TIP3    H157229   5.442   2.084  13.714 -0.9444  1.9409 -1.5474
11938TIP3    H257230   5.357   2.086  13.839  1.2419 -0.1758  0.0828
11939TIP3   OH257231   2.547   2.300   4.716 -0.5366  0.4316 -0.1400
11939TIP3    H157232   2.489   2.367   4.679  0.2781  0.5235 -1.2868
11939TIP3    H257233   2.635   2.335   4.703 -0.1392 -0.4938  0.0013
11940TIP3   OH257234   5.896   1.461   4.606 -0.1172 -0.1911  0.1435
11940TIP3    H157235   5.943   1.414   4.675  0.7239 -1.0104 -0.9649
11940TIP3    H257236   5.897   1.553   4.635  0.9290 -0.4021  0.8352
11941TIP3   OH257237   1.507   1.217   1.910  0.0102 -0.6923 -0.3125
11941TIP3    H157238   1.541   1.143   1.960 -2.5491 -2.2394 -0.6607
11941TIP3    H257239   1.519   1.293   1.968 -0.0602 -1.9060  1.3668
11942TIP3   OH257240   6.435   2.245  12.436  0.1686 -0.3355 -0.2365
11942TIP3    H157241   6.481   2.200  12.507  0.8200  0.0424 -0.4010
11942TIP3    H257242   6.426   2.179  12.368 -0.1180 -0.5956  0.0499
11943TIP3   OH257243   5.570   5.450   1.816 -0.1925  0.0420  0.2152
11943TIP3    H157244   5.644   5.395   1.790  0.6273  1.2582 -0.1081
11943TIP3    H257245   5.586   5.534   1.773 -0.8690  0.8627  1.4976
11944TIP3   OH257246   2.440   5.570  15.300  0.3185 -0.4925  0.3819
11944TIP3    H157247   2.367   5.512  15.320 -1.0492  0.5067 -1.4273
11944TIP3    H257248   2.414   5.655  15.337 -0.1093  0.2026 -1.4160
11945TIP3   OH257249   4.529   6.784   3.543 -0.5903 -0.1868  0.0013
11945TIP3    H157250   4.537   6.762   3.450 -1.9765  1.0669 -0.4563
11945TIP3    H257251   4.436   6.777   3.562 -0.5856  1.3683  0.7894
11946TIP3   OH257252   3.287   3.069  15.396 -0.0073  0.3199  0.0372
11946TIP3    H157253   3.362   3.048  15.341  0.1891  2.7527 -0.7652
11946TIP3    H257254   3.320   3.136  15.456 -0.2741 -2.0727  3.0933
11947TIP3   OH257255   1.314   0.349  16.145  0.1281  0.2889 -0.0204
11947TIP3    H157256   1.244   0.412  16.158  0.3358  0.4472  0.3702
11947TIP3    H257257   1.270   0.268  16.119 -0.2871  0.1024  1.1944
11948TIP3   OH257258   2.292   4.916  15.376 -0.1890  0.4186 -0.1926
11948TIP3    H157259   2.348   4.929  15.453 -0.6370  1.7789 -0.0820
11948TIP3    H257260   2.292   5.000  15.331 -2.2056  0.4977 -0.1466
11949TIP3   OH257261   2.958   5.652   6.596 -0.0566  0.1753  0.0412
11949TIP3    H157262   2.929   5.627   6.508  0.0944  1.2621 -0.3413
11949TIP3    H257263   2.888   5.624   6.654 -0.0795 -0.7163 -0.4060
11950TIP3   OH257264   1.131   1.901   3.260  0.2909 -0.1740  0.3455
11950TIP3    H157265   1.048   1.879   3.302  1.9185 -2.6885  2.5244
11950TIP3    H257266   1.174   1.960   3.321  0.5946  0.2119 -0.2317
11951TIP3   OH257267   1.412   0.001   6.033  0.1052  0.5266  0.0122
11951TIP3    H157268   1.506  -0.015   6.036 -0.3540 -2.8887  0.6816
11951TIP3    H257269   1.403   0.094   6.053  3.2719  0.7920  0.8119
11952TIP3   OH257270   1.640   6.597   0.251 -1.0361  0.2361  0.1195
11952TIP3    H157271   1.609   6.516   0.292 -1.7872  0.1719 -0.5542
11952TIP3    H257272   1.735   6.586   0.247 -1.1599 -0.8103 -0.3543
11953TIP3   OH257273   6.193   2.592   1.185  0.5180 -0.0012 -0.0292
11953TIP3    H157274   6.103   2.616   1.204  0.6589  0.4397  0.1098
11953TIP3    H257275   6.190   2.499   1.165 -0.2159  0.3344 -1.6039
11954TIP3   OH257276   0.925   6.657   0.570  0.2714 -0.1924  0.5892
11954TIP3    H157277   0.910   6.675   0.662  0.5136  0.2854  0.5375
11954TIP3    H257278   1.007   6.702   0.549  0.3394 -0.4916  0.2007
11955TIP3   OH257279   3.236   2.002   0.378 -0.1791  0.3172 -0.1228
11955TIP3    H157280   3.227   2.038   0.466 -1.7891  1.1668 -0.5982
11955TIP3    H257281   3.318   2.038   0.346 -0.0443  0.7622  0.6889
11956TIP3   OH257282   6.800   0.449  16.431 -0.1743 -0.1309 -0.6131
11956TIP3    H157283   6.718   0.481  16.469 -0.3930 -0.9824 -0.3434
11956TIP3    H257284   6.843   0.403  16.502 -0.0113 -0.6899 -1.0623
11957TIP3   OH257285   0.088   3.620  14.388 -0.3133 -0.3372 -0.3654
11957TIP3    H157286   0.131   3.598  14.306  2.5171 -0.9314  1.1439
11957TIP3    H257287  -0.004   3.633  14.365  0.4108 -0.2585 -3.6128
11958TIP3   OH257288   2.749   2.416   5.574  0.3427 -0.4367 -0.9403
11958TIP3    H157289   2.678   2.475   5.550  1.1431 -0.1391 -2.7082
11958TIP3    H257290   2.728   2.333   5.531  0.9004 -0.4405 -1.2142
11959TIP3   OH257291   3.503   2.063   2.370  0.3176 -0.4708  0.0330
11959TIP3    H157292   3.433   2.126   2.386  1.0062  0.5262 -0.7527
11959TIP3    H257293   3.474   2.016   2.291  1.5879  1.6061 -1.7748
11960TIP3   OH257294   2.423   1.580   3.561 -0.6614 -0.2647 -0.6279
11960TIP3    H157295   2.440   1.591   3.655  0.6426 -1.3750 -0.6996
11960TIP3    H257296   2.496   1.624   3.518 -0.2003 -1.4189 -1.0674
11961TIP3   OH257297   3.752   1.395  14.026  0.2035  0.7808  0.3757
11961TIP3    H157298   3.796   1.384  14.111  0.5472 -1.0643 -0.0076
11961TIP3    H257299   3.824   1.410  13.965  0.0619  0.7469  0.2021
11962TIP3   OH257300   3.480   1.951  15.971 -0.2211 -0.0987  0.1552
11962TIP3    H157301   3.521   2.025  16.015  0.9420 -1.7976  2.1761
11962TIP3    H257302   3.525   1.944  15.887  1.1552  0.2726  0.8224
11963TIP3   OH257303   5.498   5.982  12.450 -0.0702 -0.1058  0.7464
11963TIP3    H157304   5.428   5.919  12.467 -1.3915  1.1477  0.1435
11963TIP3    H257305   5.563   5.933  12.398 -1.4405 -0.7738 -0.3954
11964TIP3   OH257306   6.705   0.416   5.607 -0.3368  0.6801 -0.7116
11964TIP3    H157307   6.762   0.491   5.621 -1.6313  1.5206  0.2655
11964TIP3    H257308   6.655   0.438   5.528  0.9142 -0.2497 -1.8304
11965TIP3   OH257309   5.288   5.810   6.006 -0.3392  0.0375  0.0998
11965TIP3    H157310   5.245   5.763   6.078  0.5990  0.6593  1.0899
11965TIP3    H257311   5.374   5.833   6.040 -0.0558  0.7852 -1.0576
11966TIP3   OH257312   1.880   0.734   2.127 -1.1510  0.0089  0.6945
11966TIP3    H157313   1.902   0.715   2.036 -1.3735  0.7277  0.4810
11966TIP3    H257314   1.944   0.801   2.153 -0.8668 -0.4453  1.1807
11967TIP3   OH257315   5.515   1.792   0.249 -0.1208 -0.0489 -0.4575
11967TIP3    H157316   5.491   1.703   0.277  0.2456 -0.2402 -0.7435
11967TIP3    H257317   5.608   1.799   0.269 -0.5863  1.0616  1.6001
11968TIP3   OH257318   2.178   1.655  10.576  0.3342  0.0418 -0.3626
11968TIP3    H157319   2.125   1.602  10.517  1.0618 -0.4163 -0.6088
11968TIP3    H257320   2.235   1.706  10.519 -0.8735  1.6995 -0.1762
11969TIP3   OH257321   2.183   6.535  16.316  0.0478 -0.7798 -0.5577
11969TIP3    H157322   2.118   6.583  16.367  0.1511 -0.9780 -0.2338
11969TIP3    H257323   2.182   6.577  16.230  0.3259 -0.0379 -0.2059
11970TIP3   OH257324   5.369   1.693   2.112  0.1924  0.1943 -0.3807
11970TIP3    H157325   5.446   1.689   2.055 -0.8164 -0.4671 -1.7712
11970TIP3    H257326   5.324   1.774   2.086 -0.0871  0.0800 -0.2623
11971TIP3   OH257327   3.004   2.191  14.009  0.5961 -0.2233 -0.0105
11971TIP3    H157328   2.956   2.131  13.952 -0.0006  0.7831 -0.5770
11971TIP3    H257329   3.072   2.136  14.049  0.5075 -1.1235 -1.0500
11972TIP3   OH257330   4.322   0.347   1.616 -1.3127 -0.0824  0.2804
11972TIP3    H157331   4.302   0.429   1.663 -1.9377  0.4056 -0.7959
11972TIP3    H257332   4.261   0.283   1.652 -0.7334 -0.1367  1.2235
11973TIP3   OH257333   4.292   3.901   5.001  0.0096 -0.5880 -0.5116
11973TIP3    H157334   4.330   3.849   4.931  3.1434  2.4967 -1.3887
11973TIP3    H257335   4.309   3.851   5.081  0.0882 -2.2423 -1.5138
11974TIP3   OH257336   6.371   3.146  10.533  0.5866 -0.2774 -0.1046
11974TIP3    H157337   6.410   3.206  10.597  2.3056 -1.7319  0.2846
11974TIP3    H257338   6.444   3.118  10.479  0.0767 -2.8180  0.4030
11975TIP3   OH257339   0.842   3.377   6.360 -0.1140 -0.4768 -0.2429
11975TIP3    H157340   0.799   3.461   6.375  0.8407 -0.0028 -0.0950
11975TIP3    H257341   0.770   3.313   6.360 -0.8173  0.2952 -0.0648
11976TIP3   OH257342   4.561   5.812  16.202  0.1370  0.2680  0.0169
11976TIP3    H157343   4.645   5.766  16.194 -0.0051  0.2832 -1.9982
11976TIP3    H257344   4.570   5.890  16.147 -0.6659  1.1140  1.0370
11977TIP3   OH257345   5.506   4.121  16.160  0.2935 -0.2297 -0.5095
11977TIP3    H157346   5.537   4.040  16.119 -0.7776 -1.4057  0.9125
11977TIP3    H257347   5.467   4.171  16.089  3.0355  0.1597 -1.8803
11978TIP3   OH257348   6.176   6.102   3.832  0.7194  0.7696 -0.3042
11978TIP3    H157349   6.271   6.094   3.826  0.7868  1.8702 -1.0796
11978TIP3    H257350   6.162   6.194   3.856 -0.1168  0.2484  1.3395
11979TIP3   OH257351   0.632   2.939   0.760  0.9426 -0.4859 -0.2231
11979TIP3    H157352   0.669   2.855   0.734  1.0084 -1.1047  1.7387
11979TIP3    H257353   0.692   2.974   0.825  0.2013  0.4254  0.0017
11980TIP3   OH257354   1.615   4.788   5.217  0.3165  0.2056 -0.2413
11980TIP3    H157355   1.550   4.718   5.209  0.7925 -0.3037  0.2924
11980TIP3    H257356   1.572   4.854   5.271  0.5813 -0.5572  0.9450
11981TIP3   OH257357   0.529   3.324   4.494  0.1663  0.3955  0.3336
11981TIP3    H157358   0.521   3.234   4.463  1.7325 -0.0305  1.0344
11981TIP3    H257359   0.507   3.378   4.419 -2.0301 -0.5359  0.2464
11982TIP3   OH257360   2.983   5.118  14.616  0.1978  0.1231  0.0502
11982TIP3    H157361   2.917   5.081  14.675 -0.6348 -2.0787 -2.0542
11982TIP3    H257362   2.942   5.197  14.581  0.6429  1.3645  2.1834
11983TIP3   OH257363   2.579   2.956  11.144 -0.3325  0.5048 -0.5106
11983TIP3    H157364   2.576   3.052  11.151  2.7779  0.7071 -0.8487
11983TIP3    H257365   2.645   2.929  11.208 -0.5199 -1.3473 -1.0429
11984TIP3   OH257366   3.266   0.734  13.802  0.0989  0.4624 -0.4634
11984TIP3    H157367   3.351   0.763  13.834 -0.3326  1.5645 -0.2663
11984TIP3    H257368   3.279   0.718  13.709  0.0607  2.6604 -0.9007
11985TIP3   OH257369   0.190   4.569   0.520 -0.0114 -0.3139 -0.3110
11985TIP3    H157370   0.159   4.496   0.467  0.5626 -0.7388 -0.0790
11985TIP3    H257371   0.207   4.531   0.606  0.7776 -0.0313 -0.3254
11986TIP3   OH257372   0.244   0.573  11.281  0.4354  0.5367  0.2878
11986TIP3    H157373   0.249   0.523  11.363  0.9880 -0.8395 -0.5649
11986TIP3    H257374   0.190   0.649  11.304  0.5751  0.1895  1.9297
11987TIP3   OH257375   4.536   1.616  12.154 -0.3641 -0.1688  0.7406
11987TIP3    H157376   4.476   1.669  12.207  0.1022  1.4842 -0.3288
11987TIP3    H257377   4.488   1.601  12.073 -0.3841 -1.1880  0.9294
11988TIP3   OH257378   4.523   5.160  14.440  0.5299 -0.0702 -0.0717
11988TIP3    H157379   4.434   5.180  14.469  0.8644  2.9340 -0.7121
11988TIP3    H257380   4.523   5.183  14.347  2.0849  0.5147  0.0471
11989TIP3   OH257381   1.039   5.183   4.675  0.7538 -0.5524 -0.9796
11989TIP3    H157382   1.021   5.193   4.582  0.7710  0.0255 -0.9245
11989TIP3    H257383   0.999   5.260   4.715 -1.2207 -1.8746 -0.2362
11990TIP3   OH257384   5.331   5.406   5.666 -0.2787 -0.9154  0.3952
11990TIP3    H157385   5.360   5.454   5.744 -0.7679  0.1855 -0.0829
11990TIP3    H257386   5.237   5.394   5.678 -0.2925 -1.0782  0.1407
11991TIP3   OH257387   2.179   4.399   6.617  0.3832  0.6770  0.1636
11991TIP3    H157388   2.224   4.317   6.598 -1.2188 -0.1852  0.0063
11991TIP3    H257389   2.225   4.434   6.694  1.9870  0.3774 -0.6264
11992TIP3   OH257390   5.182   1.156  15.570  0.2682  0.2865 -0.3855
11992TIP3    H157391   5.145   1.098  15.503  1.4117 -0.0148 -0.7807
11992TIP3    H257392   5.239   1.215  15.521 -0.3138  1.2724  0.1077
11993TIP3   OH257393   2.328   5.779  16.238 -0.5865  0.2916 -0.2877
11993TIP3    H157394   2.365   5.866  16.229  1.2715 -0.5343 -1.0658
11993TIP3    H257395   2.260   5.775  16.170 -2.4249  1.9183  1.3459
11994TIP3   OH257396   4.721   1.077  15.544  0.5929  0.1521  0.2586
11994TIP3    H157397   4.767   1.081  15.628 -0.8188 -0.5691  1.1068
11994TIP3    H257398   4.746   1.158  15.499  4.3870 -1.1056 -0.3298
11995TIP3   OH257399   4.456   5.768  14.504  0.5330  0.3559  0.2269
11995TIP3    H157400   4.427   5.752  14.594  0.1725 -1.2343 -0.1348
11995TIP3    H257401   4.526   5.703  14.490  1.2292  1.2093 -0.3485
11996TIP3   OH257402   6.503   5.859  16.498 -0.0478 -0.2873 -0.0385
11996TIP3    H157403   6.451   5.843  16.419  0.4525 -1.1917 -0.2027
11996TIP3    H257404   6.461   5.806  16.566 -0.5098  0.5321  0.3241
11997TIP3   OH257405   2.516   5.139  12.044 -0.6225 -0.2294  0.4922
11997TIP3    H157406   2.450   5.071  12.050  0.4464 -1.5164 -1.4941
11997TIP3    H257407   2.468   5.216  12.012 -1.4307 -0.6489  0.6601
11998TIP3   OH257408   4.808   4.487  15.145  0.0602  0.1597  0.5350
11998TIP3    H157409   4.853   4.427  15.084 -2.5693 -0.2189 -1.1834
11998TIP3    H257410   4.746   4.431  15.192  2.0858  0.4210  3.8360
11999TIP3   OH257411   5.685   3.576  14.704 -0.2304 -0.1025 -0.1045
11999TIP3    H157412   5.711   3.590  14.795 -0.1027 -0.4115 -0.0923
11999TIP3    H257413   5.757   3.526  14.666 -1.5892 -2.6300  0.4257
12000TIP3   OH257414   3.742   5.970   2.047 -0.0135 -0.3082 -0.0813
12000TIP3    H157415   3.742   5.884   2.004 -0.8730 -0.7434  0.7544
12000TIP3    H257416   3.677   5.962   2.117  0.1992  0.8967  0.2769
12001TIP3   OH257417   4.873   3.563   3.163 -0.1559 -0.4025 -0.5008
12001TIP3    H157418   4.791   3.560   3.213  0.4553 -2.9245  0.5213
12001TIP3    H257419   4.941   3.548   3.229  0.9698 -0.3097 -1.6082
12002TIP3   OH257420   4.226   4.285  15.242  0.4659  0.0612  0.3832
12002TIP3    H157421   4.198   4.276  15.333  2.0684 -0.0195  0.8938
12002TIP3    H257422   4.307   4.235  15.236  0.6476  0.4719 -0.9629
12003TIP3   OH257423   3.896   4.191  13.143  0.0278  0.3779 -0.0901
12003TIP3    H157424   3.940   4.274  13.119  1.0559  0.0047  0.4484
12003TIP3    H257425   3.813   4.219  13.182  0.2017  1.1459 -0.2370
12004TIP3   OH257426   2.104   2.965  12.537 -0.3211 -0.0452 -0.1703
12004TIP3    H157427   2.104   3.053  12.499  1.2523  0.1076  0.1459
12004TIP3    H257428   2.020   2.960  12.583  0.1090  1.8062  0.9499
12005TIP3   OH257429   2.870   2.899   3.328 -0.6677  0.3054 -0.0274
12005TIP3    H157430   2.962   2.909   3.353 -1.2324  1.2625  1.8402
12005TIP3    H257431   2.843   2.987   3.302 -0.7022 -0.2511 -2.0503
12006TIP3   OH257432   6.290   5.995   1.338 -0.0991  0.5840  0.8217
12006TIP3    H157433   6.253   6.026   1.421  0.2424  1.2647  0.7255
12006TIP3    H257434   6.215   5.960   1.290 -0.1463 -0.8121  1.8398
12007TIP3   OH257435   3.920   2.209   0.333  0.1724 -0.0901  0.4707
12007TIP3    H157436   3.896   2.174   0.248  0.1026  0.4920  0.2443
12007TIP3    H257437   3.934   2.302   0.318 -0.2635  0.1045  1.1791
12008TIP3   OH257438   5.050   0.717  13.145  0.2886 -0.4579 -0.1017
12008TIP3    H157439   4.970   0.666  13.158  0.2137 -0.4152 -0.3955
12008TIP3    H257440   5.046   0.747  13.055 -0.8141  2.0236  0.6719
12009TIP3   OH257441   0.179   6.633  14.198  0.0716  0.1550 -0.1126
12009TIP3    H157442   0.134   6.708  14.160 -0.2679  0.4349  0.8131
12009TIP3    H257443   0.143   6.626  14.287  0.2053 -1.0080 -0.1339
12010TIP3   OH257444   0.379   4.555  14.815 -0.1969  0.4831  0.1476
12010TIP3    H157445   0.461   4.545  14.862  0.3406 -0.5533 -0.9475
12010TIP3    H257446   0.324   4.483  14.846 -0.0693  0.1725 -0.3329
12011TIP3   OH257447   1.563   4.558   1.892  0.1876  0.1802  0.0676
12011TIP3    H157448   1.605   4.484   1.935 -0.0981  0.6811  1.2466
12011TIP3    H257449   1.493   4.585   1.952 -1.2297 -0.0433 -1.4232
12012TIP3   OH257450   3.890   0.950   4.464 -0.0127 -0.1165  0.2300
12012TIP3    H157451   3.852   0.879   4.411  0.7073 -1.3524  1.3096
12012TIP3    H257452   3.824   1.019   4.462  1.0645  1.2045 -4.6676
12013TIP3   OH257453   4.723   1.521  16.870 -0.1877  0.2502 -0.2633
12013TIP3    H157454   4.659   1.497  16.803 -0.2729  1.4411 -0.6329
12013TIP3    H257455   4.792   1.456  16.861 -1.0404 -0.6905 -0.2768
12014TIP3   OH257456   1.458   2.630   3.396  0.5751  0.3461  0.3822
12014TIP3    H157457   1.499   2.614   3.481  0.7012 -0.1497  0.2376
12014TIP3    H257458   1.459   2.725   3.386  0.4994  0.4105  0.9614
12015TIP3   OH257459   1.875   3.106  17.004  0.3148 -0.2386  0.4684
12015TIP3    H157460   1.928   3.184  17.022 -0.1678  0.5641 -1.3686
12015TIP3    H257461   1.919   3.064  16.930 -0.8905 -0.2492 -0.2618
12016TIP3   OH257462   6.255   2.356  12.077  0.1368  0.8069 -0.1408
12016TIP3    H157463   6.249   2.450  12.062  0.8887  1.1896  1.6873
12016TIP3    H257464   6.347   2.342  12.102  0.4161 -0.6612 -1.8138
12017TIP3   OH257465   4.606   6.178   4.985  0.2694 -0.0348  0.4592
12017TIP3    H157466   4.610   6.272   4.966 -0.4461  0.1108  0.9399
12017TIP3    H257467   4.647   6.136   4.910 -0.9970  0.5797 -0.6289
12018TIP3   OH257468   5.796   6.725  11.517 -0.0594 -0.2024  0.0449
12018TIP3    H157469   5.740   6.700  11.443  0.2795  0.5911 -0.4947
12018TIP3    H257470   5.821   6.816  11.499 -2.2831  1.0457  2.5517
12019TIP3   OH257471   3.243   1.598  12.619  0.1512 -0.1161 -0.0680
12019TIP3    H157472   3.158   1.554  12.619  0.8164 -1.4390 -0.3161
12019TIP3    H257473   3.221   1.691  12.626 -1.3349 -0.3878 -0.7071
12020TIP3   OH257474   2.050   4.999  12.018  0.0256 -0.0622  0.6338
12020TIP3    H157475   1.982   4.939  12.049 -1.3653  0.9755 -0.2709
12020TIP3    H257476   2.031   5.011  11.925  0.9282  0.9311  0.5572
12021TIP3   OH257477   5.879   1.604   4.926 -0.1977 -0.2598  0.2960
12021TIP3    H157478   5.808   1.569   4.980 -0.2839 -1.3363 -0.4776
12021TIP3    H257479   5.836   1.649   4.854 -0.0861  0.1159  0.4621
12022TIP3   OH257480   6.209   6.100   4.233 -0.5165  0.1750 -0.8051
12022TIP3    H157481   6.175   6.023   4.277 -0.0984 -0.2455 -1.2087
12022TIP3    H257482   6.197   6.171   4.295 -1.9690  0.0074 -0.8671
12023TIP3   OH257483   1.006   4.957  13.287  0.7071  0.1974 -0.9132
12023TIP3    H157484   1.018   4.862  13.287  1.1298  0.1565  1.9643
12023TIP3    H257485   1.063   4.988  13.217  1.3117 -1.5954 -1.2814
12024TIP3   OH257486   6.740   5.205  12.854 -0.2443  0.0723 -0.7907
12024TIP3    H157487   6.820   5.156  12.872 -0.7600 -0.9603 -1.1569
12024TIP3    H257488   6.740   5.216  12.759  0.2173  1.4479 -0.6494
12025TIP3   OH257489   1.598   4.548  15.149  0.1248  0.3024 -0.6575
12025TIP3    H157490   1.525   4.607  15.166 -0.3351 -0.4553  0.0995
12025TIP3    H257491   1.661   4.567  15.218 -0.4598 -0.7430  0.2066
12026TIP3   OH257492   3.723   5.301   2.582  0.0347  0.9399  0.1527
12026TIP3    H157493   3.752   5.363   2.514 -0.1228  0.5989 -0.2249
12026TIP3    H257494   3.797   5.241   2.592 -0.1219  0.7181 -0.0382
12027TIP3   OH257495   5.474   4.778  16.839 -0.4387  0.3212 -0.3007
12027TIP3    H157496   5.393   4.814  16.802  0.0828  2.4310  0.5264
12027TIP3    H257497   5.532   4.853  16.848  1.8910 -1.2387 -1.4482
12028TIP3   OH257498   2.588   3.136  11.735  0.3685 -0.2025  0.0922
12028TIP3    H157499   2.622   3.145  11.646  0.0935  0.7527  0.0812
12028TIP3    H257500   2.589   3.041  11.751  0.1845 -0.4066 -1.0171
12029TIP3   OH257501   6.376   3.269   0.269  0.2067  0.3105  0.4547
12029TIP3    H157502   6.418   3.189   0.301 -1.2980 -0.6909  0.0320
12029TIP3    H257503   6.443   3.313   0.217  0.7979 -1.1233 -0.0363
12030TIP3   OH257504   5.395   2.590   1.972 -0.2061  0.1515 -0.2283
12030TIP3    H157505   5.312   2.601   1.926 -0.1914  1.5081  0.0361
12030TIP3    H257506   5.436   2.515   1.929 -0.4275  1.0526 -2.0965
12031TIP3   OH257507   5.615   5.718   1.701  0.0685 -0.2034 -0.5341
12031TIP3    H157508   5.573   5.776   1.638 -2.7867 -0.7607  0.7242
12031TIP3    H257509   5.640   5.775   1.773  0.9201  0.0281 -0.9997
12032TIP3   OH257510   5.594   4.892  11.560  0.2648  0.3843 -0.4626
12032TIP3    H157511   5.584   4.801  11.532 -1.3319  0.0556  1.0253
12032TIP3    H257512   5.677   4.893  11.608  0.2869 -0.2814 -0.4782
12033TIP3   OH257513   4.954   3.469  11.074  0.4082 -0.2793 -0.1413
12033TIP3    H157514   4.875   3.425  11.042  0.7855 -0.4099 -0.9206
12033TIP3    H257515   4.996   3.503  10.995  1.1458 -0.2382  0.2602
12034TIP3   OH257516   4.467   2.596  12.896 -0.2165  0.1044  0.8613
12034TIP3    H157517   4.534   2.626  12.834 -0.0116  2.6699  2.1677
12034TIP3    H257518   4.445   2.508  12.867  2.3402 -0.1141 -0.7673
12035TIP3   OH257519   2.809   6.752   4.860 -0.1139 -0.5287 -0.4663
12035TIP3    H157520   2.726   6.716   4.892 -0.0611  1.4423  2.2309
12035TIP3    H257521   2.860   6.768   4.940  1.9234  0.5147 -1.8946
12036TIP3   OH257522   2.058   1.876  14.972  0.3515 -0.8644 -0.7329
12036TIP3    H157523   1.980   1.931  14.979 -0.8098 -2.4360 -0.7219
12036TIP3    H257524   2.074   1.867  14.878  0.2795 -0.8442 -0.7466
12037TIP3   OH257525   2.631   4.173  16.079 -0.5329 -0.3747  0.6586
12037TIP3    H157526   2.575   4.137  16.010  0.1223 -1.3359  0.6046
12037TIP3    H257527   2.593   4.142  16.161 -0.8109  0.0436  0.6914
12038TIP3   OH257528   4.335   3.866  11.405 -0.0696 -0.3182  0.3330
12038TIP3    H157529   4.345   3.770  11.410 -0.9196 -0.4631 -0.6459
12038TIP3    H257530   4.365   3.897  11.491 -0.8729 -1.5545  1.0900
12039TIP3   OH257531   4.820   0.902   6.471 -0.4376 -0.2658  0.3976
12039TIP3    H157532   4.758   0.939   6.408  0.7553  2.2897  0.5953
12039TIP3    H257533   4.906   0.924   6.436  0.2658  0.6083  2.5256
12040TIP3   OH257534   0.354   5.929  14.527 -0.2970  0.6428  0.0785
12040TIP3    H157535   0.378   5.938  14.619 -0.6837 -0.3205  0.2804
12040TIP3    H257536   0.274   5.981  14.518 -1.3012 -0.7550  0.7307
12041TIP3   OH257537   5.387   1.696   2.447  0.5105 -0.3687 -0.1021
12041TIP3    H157538   5.441   1.773   2.432 -0.4944  0.4176  0.2025
12041TIP3    H257539   5.325   1.695   2.374 -0.0908 -0.3363  0.3936
12042TIP3   OH257540   4.302   0.053   3.886  0.2147 -0.6372 -0.0816
12042TIP3    H157541   4.360   0.024   3.957  0.4889 -1.2619 -0.5522
12042TIP3    H257542   4.334   0.141   3.864 -1.2041  0.4810  1.9815
12043TIP3   OH257543   4.170   2.575  12.638  0.0685 -0.1437  0.1769
12043TIP3    H157544   4.143   2.665  12.619  1.7728  0.5452  0.8310
12043TIP3    H257545   4.159   2.566  12.732 -1.2949 -1.0709 -0.0475
12044TIP3   OH257546   2.207   3.191  10.224  0.1311  0.2014 -0.1668
12044TIP3    H157547   2.241   3.164  10.310 -1.5826  0.7404  0.7272
12044TIP3    H257548   2.274   3.250  10.189  0.0415  1.4875  1.6653
12045TIP3   OH257549   3.982   1.684  15.107  0.1283 -0.3055 -0.2145
12045TIP3    H157550   3.982   1.622  15.035  3.0500 -0.2450 -0.3919
12045TIP3    H257551   4.035   1.642  15.175  2.7807  2.1131 -0.5921
12046TIP3   OH257552   5.059   1.750  12.449  0.4003  0.2558  0.2562
12046TIP3    H157553   5.133   1.698  12.417  0.0460 -0.0482 -0.0878
12046TIP3    H257554   4.990   1.737  12.383 -1.2211 -2.3405  2.2701
12047TIP3   OH257555   1.601   2.383   3.325  0.0340 -0.1103 -0.2608
12047TIP3    H157556   1.586   2.455   3.386  1.7076  0.2926 -0.2792
12047TIP3    H257557   1.617   2.307   3.381 -1.2074 -0.3830 -0.2416
12048TIP3   OH257558   1.917   4.210  13.183 -0.4054  0.4360 -0.1638
12048TIP3    H157559   2.008   4.199  13.157  0.1602  1.2546  1.3635
12048TIP3    H257560   1.914   4.177  13.273 -1.0018  2.8361  0.7581
12049TIP3   OH257561   2.005   6.337   6.380  0.1360 -0.1327  0.0484
12049TIP3    H157562   1.927   6.392   6.372 -0.8676 -1.7105 -2.1968
12049TIP3    H257563   2.077   6.393   6.349 -0.1499  1.1036  1.4680
12050TIP3   OH257564   3.382   1.578   1.110 -0.4353  0.3913  0.8830
12050TIP3    H157565   3.373   1.670   1.087  0.4350  0.9725  2.7121
12050TIP3    H257566   3.389   1.577   1.205  0.4564 -1.4902  0.8465
12051TIP3   OH257567   6.301   2.132   1.728 -0.2116  0.3377  0.1275
12051TIP3    H157568   6.263   2.217   1.706  0.0998  0.5037  0.2239
12051TIP3    H257569   6.391   2.138   1.697  0.3655  0.7258  1.7950
12052TIP3   OH257570   1.894   2.110   2.778  0.1890  0.2733  0.2639
12052TIP3    H157571   1.805   2.113   2.813  0.0579 -0.6354  0.0355
12052TIP3    H257572   1.923   2.201   2.780 -0.3609  0.4500  1.3145
12053TIP3   OH257573   3.665   5.556  11.607 -0.1342 -0.3320  0.2129
12053TIP3    H157574   3.635   5.508  11.685 -1.7073  0.9976  0.4874
12053TIP3    H257575   3.616   5.518  11.535 -1.9078  1.1882  0.5242
12054TIP3   OH257576   1.962   6.007  12.423  0.0770  0.2055 -0.2674
12054TIP3    H157577   2.003   5.921  12.429 -1.3108 -0.7328 -2.7430
12054TIP3    H257578   1.947   6.033  12.514 -0.5625 -2.7428  0.5752
12055TIP3   OH257579   5.340   0.940   3.026  0.3493  0.0623 -0.3900
12055TIP3    H157580   5.274   0.958   2.960 -0.4495  1.2121  0.6658
12055TIP3    H257581   5.424   0.953   2.982 -0.1141 -0.8413 -1.5910
12056TIP3   OH257582   1.144   2.085  14.343 -0.8099  0.9436  0.0421
12056TIP3    H157583   1.134   2.011  14.402 -0.5063  0.4305 -0.5359
12056TIP3    H257584   1.187   2.049  14.266 -1.2596  1.5815 -0.5277
12057TIP3   OH257585   3.813   4.718  13.161 -0.4758 -0.3830 -0.4697
12057TIP3    H157586   3.782   4.647  13.105 -0.0581 -0.2623 -0.8648
12057TIP3    H257587   3.746   4.727  13.228 -0.7691 -0.8267 -0.6983
12058TIP3   OH257588   1.582   5.404   4.230  0.6373 -0.9237 -0.4972
12058TIP3    H157589   1.521   5.353   4.176  0.3826 -2.5331  1.2199
12058TIP3    H257590   1.649   5.434   4.168  0.3735 -2.7029 -1.7188
12059TIP3   OH257591   1.280   6.177  16.119 -0.6543  0.1451 -0.3697
12059TIP3    H157592   1.266   6.172  16.214  2.3818  0.7828  0.2186
12059TIP3    H257593   1.355   6.120  16.103 -0.6968  0.5706 -2.3019
12060TIP3   OH257594   1.384   5.568   4.779 -0.0603  0.2123 -0.1187
12060TIP3    H157595   1.450   5.630   4.809 -0.6181  0.2386  1.1584
12060TIP3    H257596   1.304   5.620   4.772 -0.0869  0.0605 -1.0839
12061TIP3   OH257597   3.105   1.004  15.216 -0.1491  0.3629  0.0657
12061TIP3    H157598   3.156   1.064  15.271 -0.5257  0.5171  0.2593
12061TIP3    H257599   3.019   1.002  15.258 -0.1692 -0.2435  0.0017
12062TIP3   OH257600   5.470   3.790  12.704 -0.2042 -1.1405  0.1891
12062TIP3    H157601   5.432   3.878  12.709 -0.6559 -1.3472  0.5447
12062TIP3    H257602   5.400   3.733  12.736 -0.4261 -1.7722 -1.3541
12063TIP3   OH257603   3.543   0.946  13.154  0.0090  0.0431  0.0325
12063TIP3    H157604   3.593   0.866  13.169 -0.1297  0.0181  0.3600
12063TIP3    H257605   3.461   0.932  13.201  0.3508  0.7547  0.8591
12064TIP3   OH257606   2.904   1.508   3.749  0.1748 -0.4505  0.4308
12064TIP3    H157607   2.957   1.575   3.793 -0.9808  0.7480  0.0816
12064TIP3    H257608   2.959   1.430   3.747  0.8093 -0.1240  2.7062
12065TIP3   OH257609   5.680   1.044   0.867 -0.7006 -0.3955 -0.2516
12065TIP3    H157610   5.619   1.033   0.794  0.5259 -0.4629 -1.2893
12065TIP3    H257611   5.700   1.137   0.867  1.1592 -0.7553 -1.5682
12066TIP3   OH257612   4.197   2.945   6.233 -0.1215 -0.3472 -0.1365
12066TIP3    H157613   4.226   3.034   6.213 -1.6307 -0.0544 -1.1939
12066TIP3    H257614   4.251   2.889   6.177  1.9208 -0.2870  1.6427
12067TIP3   OH257615   1.581   5.711  15.720 -0.5305 -0.5968  0.4607
12067TIP3    H157616   1.490   5.689  15.742 -1.2639  1.7949  0.1030
12067TIP3    H257617   1.574   5.772  15.647  1.2896  0.6171  1.2354
12068TIP3   OH257618   5.577   2.041   3.027 -0.2379 -0.0476  0.0741
12068TIP3    H157619   5.504   1.995   3.068 -0.6406  1.0937  0.6778
12068TIP3    H257620   5.536   2.112   2.978  0.3752 -0.3001 -0.8209
12069TIP3   OH257621   3.758   1.881   1.912 -0.6505 -0.1130 -0.4506
12069TIP3    H157622   3.716   1.837   1.986 -1.8442  0.2254 -0.9068
12069TIP3    H257623   3.715   1.966   1.907  0.6666  0.5710 -0.4418
12070TIP3   OH257624   4.280   2.347   3.549 -0.1107 -0.5112 -0.2027
12070TIP3    H157625   4.218   2.323   3.480  0.0189 -0.0018 -0.4998
12070TIP3    H257626   4.226   2.349   3.629 -0.9445  1.8802 -0.7478
12071TIP3   OH257627   6.166   4.174   1.551 -0.1965  0.0817  0.2589
12071TIP3    H157628   6.203   4.116   1.617 -0.7308 -0.2614  0.2655
12071TIP3    H257629   6.074   4.182   1.574 -0.4256 -0.1560 -0.5215
12072TIP3   OH257630   1.389   3.106  14.564  0.7579  0.2546 -0.5309
12072TIP3    H157631   1.443   3.033  14.593 -0.2167 -0.9438 -1.6319
12072TIP3    H257632   1.452   3.172  14.534  1.6558 -1.5335 -2.8246
12073TIP3   OH257633   3.660   4.048  14.241 -0.4661  0.5454  0.0909
12073TIP3    H157634   3.716   4.064  14.318  0.4909 -0.4604 -0.3653
12073TIP3    H257635   3.713   3.992  14.185 -1.7132  0.0961 -0.6636
12074TIP3   OH257636   6.542   3.435   1.125 -0.1354  0.1738 -0.3485
12074TIP3    H157637   6.509   3.396   1.045 -0.4235  0.1933 -0.2422
12074TIP3    H257638   6.583   3.363   1.173 -2.5066 -0.4947  0.8264
12075TIP3   OH257639   0.256   1.531  11.802 -0.8493  0.5990 -0.0259
12075TIP3    H157640   0.304   1.474  11.743 -0.2525  0.7629  0.2964
12075TIP3    H257641   0.250   1.483  11.884 -2.5719 -0.0674 -0.4840
12076TIP3   OH257642   2.830   0.423  12.804 -0.2231  0.4831  0.3151
12076TIP3    H157643   2.799   0.333  12.789  1.5635 -0.0706 -0.2533
12076TIP3    H257644   2.761   0.462  12.858 -0.9041 -1.3170  0.8480
12077TIP3   OH257645   2.685   1.682   3.471 -0.0483  0.0719 -0.1638
12077TIP3    H157646   2.624   1.729   3.414  1.6972 -0.0067 -2.2333
12077TIP3    H257647   2.755   1.745   3.486  1.5810 -1.2729 -1.7183
12078TIP3   OH257648   4.906   4.580   2.758 -0.1409  0.7411 -0.3087
12078TIP3    H157649   4.846   4.632   2.705  0.0334 -0.3469 -1.6123
12078TIP3    H257650   4.971   4.644   2.790 -1.5467  1.8093  0.5595
12079TIP3   OH257651   6.297   1.640   0.266  0.6095  0.2636 -1.0368
12079TIP3    H157652   6.273   1.684   0.184 -0.6253  0.9680 -0.3311
12079TIP3    H257653   6.377   1.592   0.245  0.7881  1.1077 -2.4292
12080TIP3   OH257654   4.533   1.183  11.438 -0.3640 -0.1274  0.5124
12080TIP3    H157655   4.628   1.172  11.436 -0.4858 -2.2021 -3.6107
12080TIP3    H257656   4.500   1.097  11.465 -1.1051  0.3154  1.0403
12081TIP3   OH257657   4.440   1.072   1.829 -0.2868  0.1607  0.3135
12081TIP3    H157658   4.445   1.011   1.903 -2.0574  0.7252  0.9426
12081TIP3    H257659   4.400   1.151   1.866  2.4204  1.9981 -0.3180
12082TIP3   OH257660   6.181   4.513   6.184  0.1329 -0.0924  0.4151
12082TIP3    H157661   6.101   4.475   6.220  0.4928 -0.1761  1.1521
12082TIP3    H257662   6.157   4.603   6.161 -0.0627  0.0146  1.0348
12083TIP3   OH257663   1.262   2.937  12.604  0.0405 -0.2012 -0.2679
12083TIP3    H157664   1.261   2.872  12.674 -0.4525 -0.2356 -0.3033
12083TIP3    H257665   1.179   2.984  12.614 -0.0203 -0.1888 -0.8172
12084TIP3   OH257666   6.031   2.209   3.238  0.3041 -0.0715  0.0243
12084TIP3    H157667   5.953   2.190   3.186  0.3750 -0.1562 -0.0519
12084TIP3    H257668   6.006   2.283   3.293  0.5592  0.6811 -0.8668
12085TIP3   OH257669   0.396   3.775   0.560  0.5278  0.1500 -0.0282
12085TIP3    H157670   0.363   3.706   0.618 -0.7316 -0.0576 -0.9327
12085TIP3    H257671   0.441   3.836   0.618  2.1110 -1.6544  0.7300
12086TIP3   OH257672   2.470   3.060   1.155 -0.1615  0.3415  0.0344
12086TIP3    H157673   2.509   3.132   1.105  1.6117 -1.2106 -0.9335
12086TIP3    H257674   2.442   2.997   1.088 -1.0921 -0.1900  0.8951
12087TIP3   OH257675   3.331   5.510  15.765  0.2256 -0.2334 -0.1962
12087TIP3    H157676   3.313   5.442  15.830 -0.5080 -0.9513 -1.1210
12087TIP3    H257677   3.246   5.550  15.747  0.8446  2.0465  1.4657
12088TIP3   OH257678   4.094   4.884  16.611 -0.0248 -0.0504 -0.0938
12088TIP3    H157679   4.087   4.974  16.643  0.8002 -0.4555  1.3345
12088TIP3    H257680   4.182   4.877  16.574 -0.7464  0.2250 -1.9715
12089TIP3   OH257681   6.256   3.691   3.686 -0.0501  0.3744  0.1934
12089TIP3    H157682   6.263   3.783   3.712  0.1032 -0.5468  3.9425
12089TIP3    H257683   6.326   3.647   3.734 -0.7729 -1.8785 -0.6844
12090TIP3   OH257684   1.603   2.982  13.335  0.6527 -0.6051 -0.2502
12090TIP3    H157685   1.690   2.963  13.369  0.5428 -0.7247 -0.0345
12090TIP3    H257686   1.543   2.955  13.405  0.4426 -0.5412 -0.4035
12091TIP3   OH257687   1.705   0.757  11.782  0.0046  0.3466  0.0461
12091TIP3    H157688   1.656   0.835  11.808 -2.1519 -0.7741 -0.4500
12091TIP3    H257689   1.688   0.694  11.853 -2.8445 -1.4665 -2.0328
12092TIP3   OH257690   3.550   6.588   6.618  0.7184  0.2680  0.1424
12092TIP3    H157691   3.464   6.546   6.619  0.3286  1.0125  2.0240
12092TIP3    H257692   3.598   6.543   6.548 -0.4671 -1.6569  0.4796
12093TIP3   OH257693   3.381   3.834  12.526 -0.0370 -0.3572 -0.0204
12093TIP3    H157694   3.383   3.765  12.592 -1.1787  0.2229  0.6710
12093TIP3    H257695   3.459   3.887  12.545  0.3131 -0.8957  0.0702
12094TIP3   OH257696   5.053   1.515   2.818 -0.4391 -0.3972  0.3780
12094TIP3    H157697   5.124   1.552   2.870  0.6028 -0.5958 -0.8640
12094TIP3    H257698   5.018   1.588   2.767  0.0726 -0.6419 -0.3386
12095TIP3   OH257699   0.096   2.350  15.402  0.5386  0.0718  0.0987
12095TIP3    H157700   0.124   2.338  15.493 -1.2958 -1.8635  0.4995
12095TIP3    H257701   0.171   2.320  15.350  0.9483 -0.5379  1.0092
12096TIP3   OH257702   2.625   5.481   4.066  0.3215  1.2485  0.4268
12096TIP3    H157703   2.618   5.499   3.972  0.0138  3.6041  0.8352
12096TIP3    H257704   2.534   5.481   4.097  0.4372  0.7443  0.7830
12097TIP3   OH257705   6.043   5.314  12.365 -0.0824 -0.1274 -0.1575
12097TIP3    H157706   6.005   5.229  12.384  0.4523 -0.1101  1.0974
12097TIP3    H257707   5.985   5.353  12.300 -0.6108 -1.2322 -0.3647
12098TIP3   OH257708   6.338   3.323  10.950  0.6764  0.2939  0.4219
12098TIP3    H157709   6.361   3.230  10.960 -1.3890 -0.2511  0.4696
12098TIP3    H257710   6.340   3.337  10.855  0.4854  0.0710  0.3845
12099TIP3   OH257711   2.223   2.482  12.489  0.1154 -0.1282 -0.1857
12099TIP3    H157712   2.211   2.569  12.527  1.4246 -0.8778  2.1066
12099TIP3    H257713   2.178   2.487  12.404 -1.6756  2.0982  0.7801
12100TIP3   OH257714   0.886   4.699  13.359 -0.6300  0.6233 -0.4333
12100TIP3    H157715   0.945   4.643  13.410 -1.4185  0.1824  0.0093
12100TIP3    H257716   0.874   4.652  13.277  0.6485  1.3387 -1.0629
12101TIP3   OH257717   3.816   4.061   1.455  0.4527  0.0997  0.5362
12101TIP3    H157718   3.753   4.133   1.442 -2.5233 -2.2481  0.8461
12101TIP3    H257719   3.791   4.022   1.539 -0.7848 -3.6883 -1.3803
12102TIP3   OH257720   6.066   5.376  14.965  0.4866  0.5438 -0.0245
12102TIP3    H157721   6.077   5.328  14.882  2.3390 -0.4140  0.7144
12102TIP3    H257722   6.139   5.437  14.966  0.2738  0.7853  0.7560
12103TIP3   OH257723   6.389   4.541   1.633 -0.4176  0.2082  0.6092
12103TIP3    H157724   6.395   4.610   1.699  2.2489  0.5624  0.0946
12103TIP3    H257725   6.386   4.460   1.684  3.5182  0.3406  1.3510
12104TIP3   OH257726   3.629   3.106  14.062  0.2588 -0.5043 -0.5664
12104TIP3    H157727   3.597   3.018  14.045  1.4953 -1.2153  0.5849
12104TIP3    H257728   3.575   3.138  14.134  0.6824 -0.8524 -0.0892
12105TIP3   OH257729   4.111   2.842  11.184 -1.1568  0.5053  0.1243
12105TIP3    H157730   4.112   2.806  11.096 -1.5079  1.5040 -0.2937
12105TIP3    H257731   4.025   2.883  11.193 -1.0699  0.5507  0.8822
12106TIP3   OH257732   2.207   3.171  13.553  0.1028  0.1648 -0.1842
12106TIP3    H157733   2.205   3.241  13.488 -0.2960  1.6294  1.3589
12106TIP3    H257734   2.299   3.163  13.577  0.0373  0.7861  0.2845
12107TIP3   OH257735   1.211   5.763  13.231  0.0599  0.2846 -0.2418
12107TIP3    H157736   1.237   5.835  13.173 -3.6590 -0.6461 -3.5479
12107TIP3    H257737   1.262   5.688  13.201  0.3516  0.4705 -0.2131
12108TIP3   OH257738   6.375   6.329  12.676 -0.3699 -0.4833 -0.0299
12108TIP3    H157739   6.301   6.279  12.712 -1.1083 -0.2567 -1.2003
12108TIP3    H257740   6.452   6.288  12.715 -1.0820 -1.0712  0.7942
12109TIP3   OH257741   5.370   0.374  11.468  0.2309 -0.3943 -0.6348
12109TIP3    H157742   5.444   0.394  11.526  0.5760  0.1197 -1.2404
12109TIP3    H257743   5.399   0.296  11.419 -0.4593 -1.4483  0.5624
12110TIP3   OH257744   0.817   2.869  12.577 -0.3434 -0.5267 -0.0017
12110TIP3    H157745   0.807   2.959  12.546  0.1504 -1.1987 -2.2900
12110TIP3    H257746   0.727   2.840  12.593 -0.6727 -0.2442 -1.2092
12111TIP3   OH257747   2.125   2.730  10.966  0.5431  0.6830 -0.1359
12111TIP3    H157748   2.116   2.670  10.891  1.3227  2.1860 -1.4973
12111TIP3    H257749   2.037   2.737  11.002  0.4063 -1.1373 -0.0431
12112TIP3   OH257750   4.365   4.852  15.596 -0.1446  0.4123  0.4431
12112TIP3    H157751   4.282   4.899  15.590  0.0316  0.7391  0.5560
12112TIP3    H257752   4.376   4.813  15.510 -0.5968  0.0590  0.5408
12113TIP3   OH257753   0.680   2.752   2.722  0.3267  0.0889  0.0038
12113TIP3    H157754   0.637   2.678   2.678  0.8383  1.7552 -3.6596
12113TIP3    H257755   0.609   2.794   2.770 -0.7092 -0.8985 -0.5855
12114TIP3   OH257756   2.393   1.395   1.384  0.6336 -0.6462  0.3672
12114TIP3    H157757   2.323   1.420   1.325  1.1697 -1.5063 -0.6661
12114TIP3    H257758   2.380   1.449   1.462 -0.8668 -0.4389 -0.0053
12115TIP3   OH257759   4.709   2.056  10.877 -0.0077 -0.2867 -0.0920
12115TIP3    H157760   4.781   1.995  10.865 -0.2579 -0.3846 -1.2095
12115TIP3    H257761   4.632   2.000  10.891  0.0397 -0.1917  0.5840
12116TIP3   OH257762   2.494   6.721   2.803 -0.3192 -0.1552 -0.9716
12116TIP3    H157763   2.473   6.724   2.709  0.0492  1.7885 -1.0317
12116TIP3    H257764   2.588   6.704   2.805 -0.1391  0.7787 -1.0072
12117TIP3   OH257765   6.733   4.930   2.522  0.0843  0.3862 -0.2298
12117TIP3    H157766   6.771   4.849   2.557  1.7702 -0.0583 -2.7592
12117TIP3    H257767   6.646   4.904   2.490 -0.7102  0.3917  1.7975
12118TIP3   OH257768   0.284   3.567   4.902  0.2173  0.3269  0.5853
12118TIP3    H157769   0.276   3.522   4.986  0.6204 -0.0075  0.4474
12118TIP3    H257770   0.310   3.498   4.841  1.2572  0.8178  0.4566
12119TIP3   OH257771   0.184   1.962   3.642  0.2665 -0.1129 -0.4667
12119TIP3    H157772   0.197   2.023   3.570 -0.5264  1.1571  0.4130
12119TIP3    H257773   0.089   1.963   3.657  0.2529 -1.4734 -0.3462
12120TIP3   OH257774   2.022   1.424   0.047 -0.2707 -0.1857 -0.4084
12120TIP3    H157775   2.087   1.400   0.113 -1.3397  1.6768  1.4269
12120TIP3    H257776   1.941   1.382   0.077 -0.7223  0.4941 -0.6710
12121TIP3   OH257777   0.470   1.273  15.841  0.3352  0.7544  0.1062
12121TIP3    H157778   0.484   1.239  15.753  1.6525 -0.7330  0.8248
12121TIP3    H257779   0.559   1.291  15.874 -0.2014  2.8210  0.5922
12122TIP3   OH257780   2.292   6.382   0.328 -0.5121  0.5618 -0.0334
12122TIP3    H157781   2.367   6.397   0.271 -0.0366  1.9740  0.9071
12122TIP3    H257782   2.272   6.289   0.317  0.9949  0.2877 -0.7464
12123TIP3   OH257783   1.898   5.457  15.256  0.2845  0.4005 -0.3786
12123TIP3    H157784   1.858   5.393  15.197  2.4411 -1.4415 -0.0255
12123TIP3    H257785   1.852   5.445  15.339 -2.4523  2.6830 -1.4122
12124TIP3   OH257786   0.257   1.051  11.944  0.5674  0.1084  0.0126
12124TIP3    H157787   0.164   1.029  11.936  0.7635 -0.5250 -0.6308
12124TIP3    H257788   0.271   1.063  12.038  0.1617 -1.3133  0.2778
12125TIP3   OH257789   0.823   3.159   1.958  0.7215  0.0446 -0.2261
12125TIP3    H157790   0.747   3.216   1.975  1.1277  1.0153 -1.4547
12125TIP3    H257791   0.799   3.112   1.878  1.6933  0.9168 -1.0535
12126TIP3   OH257792   3.505   4.452   4.373 -0.0797  1.0020 -0.5048
12126TIP3    H157793   3.488   4.372   4.322 -0.4288  1.4285 -1.0647
12126TIP3    H257794   3.456   4.438   4.454 -0.8179  0.9926 -0.9401
12127TIP3   OH257795   5.919   2.318   1.780 -0.3828 -0.5742 -0.3380
12127TIP3    H157796   5.862   2.319   1.703 -0.6175 -0.3828 -0.1587
12127TIP3    H257797   5.863   2.290   1.852  0.0328 -1.6149 -0.3902
12128TIP3   OH257798   4.159   5.956  11.630 -0.4087 -0.1540 -0.3214
12128TIP3    H157799   4.195   6.032  11.585 -0.4318 -0.8205 -1.5101
12128TIP3    H257800   4.163   5.979  11.723 -1.7244  1.8839 -0.6990
12129TIP3   OH257801   5.526   0.549   2.733 -0.2161 -0.3533 -0.4564
12129TIP3    H157802   5.481   0.487   2.790 -0.6831  0.6277  0.2853
12129TIP3    H257803   5.516   0.513   2.645 -2.1216 -0.3806 -0.2698
12130TIP3   OH257804   5.319   3.676  14.146  0.1215 -0.2797 -0.2057
12130TIP3    H157805   5.307   3.583  14.165  0.6608 -0.5013 -0.9046
12130TIP3    H257806   5.323   3.718  14.232  1.2109 -1.0738  0.1501
12131TIP3   OH257807   1.687   1.161   5.683 -0.0994 -0.4081  0.3606
12131TIP3    H157808   1.591   1.167   5.683 -0.2496 -1.5604  2.8953
12131TIP3    H257809   1.715   1.225   5.748  0.4585 -3.1642  3.0286
12132TIP3   OH257810   3.476   2.336  15.465  0.2770  0.0470 -0.8575
12132TIP3    H157811   3.439   2.342  15.553  1.5448 -0.1130 -0.2906
12132TIP3    H257812   3.403   2.308  15.410 -0.4228 -0.3140  0.2260
12133TIP3   OH257813   1.105   5.201   0.062  0.0770 -0.1468 -0.1185
12133TIP3    H157814   1.124   5.264  -0.008  1.6055 -0.0178  0.3736
12133TIP3    H257815   1.159   5.125   0.041  2.7158  0.8791  2.2688
12134TIP3   OH257816   5.854   5.646  16.526  0.6284  0.7888 -0.8482
12134TIP3    H157817   5.820   5.670  16.440  1.9705 -0.4817 -1.7932
12134TIP3    H257818   5.948   5.660  16.519  0.6738  1.4284  0.7065
12135TIP3   OH257819   0.203   4.979   0.390 -0.4613  0.3335 -0.1848
12135TIP3    H157820   0.132   4.925   0.424 -0.2385 -0.1816 -0.5346
12135TIP3    H257821   0.220   5.043   0.460 -0.2774 -0.4571  0.5036
12136TIP3   OH257822   4.784   6.342   2.925  0.2890 -0.3919 -0.3480
12136TIP3    H157823   4.848   6.398   2.880 -0.9066 -0.4642 -2.2740
12136TIP3    H257824   4.803   6.254   2.894 -0.7740 -0.3983 -1.0516
12137TIP3   OH257825   4.256   1.478  15.049  0.6933  0.0882  0.4580
12137TIP3    H157826   4.259   1.392  15.008  1.3013 -0.1439  0.9653
12137TIP3    H257827   4.313   1.532  14.995  2.7163 -0.5960  1.7872
12138TIP3   OH257828   2.305   2.079   5.930  0.2584  0.5093 -0.5428
12138TIP3    H157829   2.296   2.140   5.857  0.0200  0.3925 -0.6129
12138TIP3    H257830   2.328   2.134   6.005 -1.4749  0.8805 -0.2577
12139TIP3   OH257831   0.207   2.722   3.892 -0.1939  0.3746 -0.2455
12139TIP3    H157832   0.254   2.736   3.974 -0.8363  1.9546 -0.1035
12139TIP3    H257833   0.168   2.635   3.901 -2.3989  1.4960  2.2858
12140TIP3   OH257834   1.149   5.769   3.917 -0.4477  0.2505 -0.0488
12140TIP3    H157835   1.124   5.756   3.826 -0.4255  0.4339 -0.0804
12140TIP3    H257836   1.227   5.714   3.928 -0.7363 -0.1561 -0.0069
12141TIP3   OH257837   4.221   6.306   1.477  0.2278  0.0989  0.1760
12141TIP3    H157838   4.146   6.365   1.470 -0.0107 -0.1842  0.2791
12141TIP3    H257839   4.197   6.247   1.549  0.8831  0.4788  0.7166
12142TIP3   OH257840   0.024   1.283  15.376 -0.4247 -0.4298  0.0775
12142TIP3    H157841  -0.023   1.204  15.400  0.3135 -1.7483 -2.4656
12142TIP3    H257842  -0.042   1.352  15.379 -1.2947 -1.2686  1.4374
12143TIP3   OH257843   5.396   0.076   0.030  0.0725 -0.1511 -0.2497
12143TIP3    H157844   5.356   0.141  -0.028  0.9714  0.1806 -0.5144
12143TIP3    H257845   5.325   0.017   0.053 -0.3747 -0.0930 -1.4316
12144TIP3   OH257846   5.378   5.504  15.909  0.6423  0.4826 -0.3560
12144TIP3    H157847   5.336   5.423  15.880  0.8400  0.6008 -0.9824
12144TIP3    H257848   5.308   5.569  15.906  0.6824  0.5114 -0.6343
12145TIP3   OH257849   1.500   3.689   2.599 -0.1406 -0.2003  0.0963
12145TIP3    H157850   1.554   3.729   2.667  1.3636  0.5268 -1.4307
12145TIP3    H257851   1.420   3.741   2.598 -0.7650 -1.0320  2.1296
12146TIP3   OH257852   1.517   1.134  14.097  0.0390 -0.2047  0.6294
12146TIP3    H157853   1.450   1.135  14.028 -1.1085  2.2375  1.6407
12146TIP3    H257854   1.467   1.143  14.179  1.5521  1.1205  1.4575
12147TIP3   OH257855   3.944   0.591   6.731 -1.0354 -0.1022 -0.6937
12147TIP3    H157856   3.896   0.523   6.684 -2.0237 -1.6156  2.2184
12147TIP3    H257857   4.028   0.550   6.754 -1.1187  0.0938 -0.0099
12148TIP3   OH257858   6.374   2.851  12.927  0.2930  0.0097  0.6633
12148TIP3    H157859   6.348   2.935  12.967  1.5150 -0.3397  2.2935
12148TIP3    H257860   6.293   2.799  12.927 -0.2952  0.8973  0.3755
12149TIP3   OH257861   6.505   2.322   4.017 -0.1631 -0.5224 -0.5662
12149TIP3    H157862   6.580   2.380   4.021  0.4317 -1.3204  0.4992
12149TIP3    H257863   6.475   2.315   4.108 -2.2539  0.6746 -1.0972
12150TIP3   OH257864   3.232   4.127  16.678 -0.8166  0.0474  0.1019
12150TIP3    H157865   3.326   4.135  16.662 -0.5771 -2.2996 -0.0254
12150TIP3    H257866   3.195   4.208  16.644  1.0175  0.4690 -1.0326
12151TIP3   OH257867   2.304   2.368   5.084  0.3239 -0.0875  0.3933
12151TIP3    H157868   2.322   2.390   4.993  0.8342 -1.1600  0.2307
12151TIP3    H257869   2.369   2.418   5.134 -0.8258  1.6091  0.3089
12152TIP3   OH257870   1.135   4.992   5.730  0.0243  0.1237  0.7650
12152TIP3    H157871   1.086   4.911   5.722  0.1780  0.0664  0.3514
12152TIP3    H257872   1.223   4.969   5.699 -0.2462  0.7371 -0.5218
12153TIP3   OH257873   3.562   0.185  15.758  0.1742  0.2092 -0.3700
12153TIP3    H157874   3.546   0.222  15.671  1.3631 -1.9689 -1.5908
12153TIP3    H257875   3.582   0.093  15.742  0.4039 -0.2655  2.2300
12154TIP3   OH257876   6.587   0.145   0.331  0.1021 -0.3649  0.1794
12154TIP3    H157877   6.609   0.089   0.256  0.5151 -0.1682  0.1440
12154TIP3    H257878   6.531   0.213   0.294 -0.8537 -1.0608  0.3333
12155TIP3   OH257879   3.709   0.848  13.369  0.2961  0.8364  0.5120
12155TIP3    H157880   3.624   0.891  13.375 -1.3788 -1.8853 -1.3407
12155TIP3    H257881   3.745   0.852  13.457 -2.0579  1.4924  1.5081
12156TIP3   OH257882   5.320   5.501   1.973 -0.1352 -0.9752 -0.1994
12156TIP3    H157883   5.372   5.502   1.893  1.5168  1.0654  0.7846
12156TIP3    H257884   5.384   5.494   2.043 -1.3978 -0.9995  1.0058
12157TIP3   OH257885   4.753   1.693   3.789 -0.1105 -0.3195 -0.5987
12157TIP3    H157886   4.744   1.755   3.861  3.6135  0.7943 -0.8873
12157TIP3    H257887   4.663   1.670   3.765 -1.7224  4.3622  0.0210
12158TIP3   OH257888   1.516   6.200  12.852  0.7599  0.5829 -0.2933
12158TIP3    H157889   1.501   6.240  12.766 -0.0159 -0.4958 -0.6829
12158TIP3    H257890   1.550   6.113  12.832  0.1928  0.1712  0.4712
12159TIP3   OH257891   2.174   4.006  11.766  0.1300 -0.5355  0.0419
12159TIP3    H157892   2.178   3.992  11.861  0.4165 -0.2194  0.0771
12159TIP3    H257893   2.119   4.084  11.756  1.0313  0.0984  0.0080
12160TIP3   OH257894   6.118   5.521   1.241 -0.2714  0.0201 -0.0710
12160TIP3    H157895   6.048   5.584   1.227 -0.8508 -0.2370  1.4333
12160TIP3    H257896   6.197   5.565   1.211 -0.9568  0.6027 -1.0893
12161TIP3   OH257897   2.617   0.053  15.077  0.1189  0.2399  0.4528
12161TIP3    H157898   2.685   0.066  15.011 -0.2761 -1.0050 -0.2428
12161TIP3    H257899   2.570  -0.025  15.048 -1.4508  0.9062  1.0508
12162TIP3   OH257900   0.369   4.719   3.788 -0.3875 -0.2401  0.4189
12162TIP3    H157901   0.405   4.800   3.752  0.7345 -0.5207  0.8537
12162TIP3    H257902   0.417   4.650   3.743 -0.6792 -0.6450  0.7220
12163TIP3   OH257903   5.968   6.649  11.901 -0.0424 -0.6723  0.3358
12163TIP3    H157904   6.059   6.622  11.888 -0.3133 -1.5505  0.2103
12163TIP3    H257905   5.967   6.689  11.988  0.7900  0.8209 -0.3190
12164TIP3   OH257906   3.474   3.234  14.236  0.3462 -0.2979  0.0297
12164TIP3    H157907   3.380   3.219  14.237  0.2393 -0.1761 -2.3186
12164TIP3    H257908   3.483   3.330  14.239  0.4708 -0.3321  1.3252
12165TIP3   OH257909   6.590   2.623   4.519  0.8353 -0.0464 -0.1395
12165TIP3    H157910   6.590   2.719   4.524  1.4597 -0.1006  1.4412
12165TIP3    H257911   6.510   2.596   4.565 -0.2408 -0.2814 -2.0233
12166TIP3   OH257912   2.097   1.628   2.005  0.4251 -0.3384  0.1442
12166TIP3    H157913   2.114   1.535   1.987  0.0054 -0.1637 -1.2519
12166TIP3    H257914   2.014   1.629   2.053  0.6346 -0.7037  0.5198
12167TIP3   OH257915   5.954   4.638  13.929 -0.4355  0.2384 -0.1632
12167TIP3    H157916   5.894   4.675  13.864 -0.8788  0.5710  0.4223
12167TIP3    H257917   6.027   4.604  13.878 -1.0640 -0.0608 -0.8819
12168TIP3   OH257918   1.183   5.844   2.419 -0.2946 -0.8480  0.0308
12168TIP3    H157919   1.145   5.771   2.370 -0.4358 -1.0645  0.4520
12168TIP3    H257920   1.120   5.915   2.408  0.3296 -0.4658 -1.2062
12169TIP3   OH257921   3.184   3.223   4.062 -0.1708 -0.5750 -0.4728
12169TIP3    H157922   3.194   3.273   3.981 -0.7558  0.2638 -0.0375
12169TIP3    H257923   3.268   3.233   4.107  0.2614 -1.2810 -1.0844
12170TIP3   OH257924   5.664   3.528  15.295 -0.6062 -0.2191  0.1909
12170TIP3    H157925   5.589   3.544  15.354 -0.8506 -0.9674  0.0891
12170TIP3    H257926   5.629   3.544  15.208 -0.3936  0.3442  0.2064
12171TIP3   OH257927   1.320   6.052  13.647  0.0628 -0.0099 -0.0271
12171TIP3    H157928   1.364   6.114  13.704  0.2843  0.4507 -0.6827
12171TIP3    H257929   1.314   6.097  13.563  0.3458 -0.9132 -0.5518
12172TIP3   OH257930   5.239   3.547   2.796 -0.3304  0.1334  0.4500
12172TIP3    H157931   5.218   3.623   2.851  1.8759  1.4036 -0.3617
12172TIP3    H257932   5.195   3.564   2.713  1.0786  1.1545 -0.1245
12173TIP3   OH257933   5.606   3.900  14.166 -0.4997  0.1358  0.3591
12173TIP3    H157934   5.534   3.959  14.144  0.2546  0.2491 -2.1788
12173TIP3    H257935   5.585   3.819  14.119  0.1108 -0.4816  1.1351
12174TIP3   OH257936   1.141   2.675  14.647  0.3276 -0.3903  0.4537
12174TIP3    H157937   1.224   2.634  14.672  0.4001 -0.6833 -0.2468
12174TIP3    H257938   1.121   2.734  14.719  2.1773  1.2041 -0.2177
12175TIP3   OH257939   3.452   1.617  12.434 -0.4458  0.0432  0.1662
12175TIP3    H157940   3.416   1.703  12.411 -1.2914 -0.5279 -0.7663
12175TIP3    H257941   3.399   1.587  12.508 -0.6146  0.0338  0.0423
12176TIP3   OH257942   5.655   4.807   1.751 -0.0495  0.1959 -0.2427
12176TIP3    H157943   5.744   4.796   1.716 -0.2838  1.5084 -1.3459
12176TIP3    H257944   5.655   4.896   1.787 -0.5406 -0.2846  0.9687
12177TIP3   OH257945   4.520   0.656   1.693  0.3104 -0.4813  0.2568
12177TIP3    H157946   4.497   0.747   1.710 -1.4975 -0.3196 -2.4779
12177TIP3    H257947   4.604   0.662   1.646  1.1257 -0.3875  1.6903
12178TIP3   OH257948   3.797   2.128  12.387  0.0874 -0.0101  0.2474
12178TIP3    H157949   3.744   2.198  12.348  0.0823 -0.4706 -0.5712
12178TIP3    H257950   3.855   2.099  12.317 -1.7570 -2.7123 -0.3127
12179TIP3   OH257951   2.814   1.418   3.389  0.1580  0.2674  0.3147
12179TIP3    H157952   2.777   1.507   3.389 -2.9507 -0.9054  0.1270
12179TIP3    H257953   2.863   1.413   3.307 -1.7307  1.1036 -0.9557
12180TIP3   OH257954   6.256   3.256  13.674  0.3230 -0.2304 -0.1473
12180TIP3    H157955   6.161   3.259  13.681  0.2354  0.3987 -1.3529
12180TIP3    H257956   6.287   3.306  13.750 -0.3511  0.4601 -0.3109
12181TIP3   OH257957   1.156   1.817   5.035 -0.3577  0.4174 -0.0992
12181TIP3    H157958   1.156   1.751   5.105  0.0120  0.7397  0.2144
12181TIP3    H257959   1.082   1.874   5.055 -1.1732 -0.3682 -0.8284
12182TIP3   OH257960   4.438   6.733   4.077 -0.0564  0.2007 -0.0657
12182TIP3    H157961   4.525   6.695   4.071 -0.4834 -0.6372 -1.5089
12182TIP3    H257962   4.405   6.705   4.162  1.1303  0.6709  0.5699
12183TIP3   OH257963   4.383   5.291   0.611  0.0419  0.0487 -0.1933
12183TIP3    H157964   4.468   5.249   0.608  0.9699  1.7188  1.0150
12183TIP3    H257965   4.369   5.322   0.521  0.3886 -0.7755 -0.5462
12184TIP3   OH257966   4.498   5.372  12.247 -0.0642  0.1503  0.2654
12184TIP3    H157967   4.464   5.291  12.209  0.6662 -0.0451  0.0117
12184TIP3    H257968   4.573   5.395  12.192  0.9475 -0.0817  1.4957
12185TIP3   OH257969   1.555   6.305   1.876  0.2449 -0.1300 -0.5475
12185TIP3    H157970   1.581   6.397   1.876  1.3115 -0.4103  0.6716
12185TIP3    H257971   1.632   6.259   1.843  0.7860 -0.8276  1.5702
12186TIP3   OH257972   6.207   5.155   5.279  0.0484 -0.5624  0.1379
12186TIP3    H157973   6.157   5.236   5.293 -0.0663  0.0036 -2.8151
12186TIP3    H257974   6.280   5.161   5.341 -0.2497  1.5504  0.3817
12187TIP3   OH257975   3.481   2.667   0.939 -0.2242 -0.6071 -0.2440
12187TIP3    H157976   3.540   2.638   0.869 -0.3975 -0.2095 -0.5550
12187TIP3    H257977   3.539   2.710   1.003 -0.1830 -0.1499 -0.5845
12188TIP3   OH257978   3.684   4.600   1.131  0.2143  0.1248 -0.1585
12188TIP3    H157979   3.661   4.690   1.106 -0.2783 -0.1288 -0.6312
12188TIP3    H257980   3.773   4.608   1.166 -0.1607  0.9336  0.6513
12189TIP3   OH257981   4.184   0.086   4.876 -0.2783  0.1632  0.1928
12189TIP3    H157982   4.135   0.029   4.817 -0.0590 -0.1385  0.3048
12189TIP3    H257983   4.118   0.147   4.910 -0.6825 -0.5598  0.7379
12190TIP3   OH257984   2.897   3.888   1.265 -0.3609 -0.2722  0.3384
12190TIP3    H157985   2.906   3.918   1.356 -2.1883  0.6778  0.2500
12190TIP3    H257986   2.987   3.876   1.235  0.3303  1.0679  1.7381
12191TIP3   OH257987   5.084   0.962  15.356 -0.4705 -0.0247  0.0291
12191TIP3    H157988   5.098   0.985  15.264 -0.0340 -0.2142  0.0478
12191TIP3    H257989   4.995   0.925  15.358 -0.4084 -0.1960 -0.3486
12192TIP3   OH257990   3.442   5.999   3.421 -0.1983  0.0925  0.0573
12192TIP3    H157991   3.381   5.943   3.374  0.6356  0.3480 -1.3832
12192TIP3    H257992   3.508   6.023   3.356  2.1259 -1.1219  1.8008
12193TIP3   OH257993   1.562   0.206   4.224 -0.0084 -0.6318 -0.4758
12193TIP3    H157994   1.515   0.129   4.257 -1.6359  0.4044 -0.2489
12193TIP3    H257995   1.583   0.183   4.133 -1.7582 -0.8461 -0.8708
12194TIP3   OH257996   1.458   4.815   5.966  0.0804 -0.5245 -0.3599
12194TIP3    H157997   1.548   4.799   5.992 -0.6623 -2.9579  0.9442
12194TIP3    H257998   1.408   4.813   6.047 -1.2846 -0.0992 -1.1443
12195TIP3   OH257999   4.230   2.065   2.027  0.3342 -0.1731  0.1633
12195TIP3    H158000   4.248   2.018   2.108  0.5013 -1.0114 -0.3567
12195TIP3    H258001   4.154   2.022   1.989  0.7941 -0.3652 -0.5729
12196TIP3   OH258002   4.211   0.709  15.214 -0.5807  0.5679 -0.4672
12196TIP3    H158003   4.157   0.680  15.287 -0.7035  0.0158 -0.7702
12196TIP3    H258004   4.201   0.640  15.148 -0.6648  1.1757 -1.1008
12197TIP3   OH258005   2.941   0.853  11.604 -0.4320 -0.5476 -0.1405
12197TIP3    H158006   2.917   0.839  11.512 -1.0390  0.3208 -0.1234
12197TIP3    H258007   3.008   0.786  11.621 -0.8483 -1.2127 -0.9913
12198TIP3   OH258008   3.352   6.176   4.960  0.0677 -0.3877  0.2479
12198TIP3    H158009   3.306   6.253   4.927  1.7777  0.1711 -0.9376
12198TIP3    H258010   3.308   6.102   4.917  1.2989  0.2380 -2.2528
12199TIP3   OH258011   1.487   3.623  14.132  0.0643  0.4569  0.2570
12199TIP3    H158012   1.484   3.630  14.227 -2.6009 -1.2030  0.4224
12199TIP3    H258013   1.405   3.663  14.102  0.1954 -0.2623 -1.1855
12200TIP3   OH258014   3.781   5.057  12.156 -0.1200  0.1287  0.1145
12200TIP3    H158015   3.751   4.991  12.219  2.6807 -0.4753  0.9688
12200TIP3    H258016   3.850   5.013  12.107  0.3918  1.7989 -0.7330
12201TIP3   OH258017   5.182   2.783  14.388 -0.4595 -0.1168 -0.0800
12201TIP3    H158018   5.200   2.778  14.294  0.9402  1.0804  0.1018
12201TIP3    H258019   5.238   2.716  14.426 -0.0708  0.2626  0.0184
12202TIP3   OH258020   3.610   3.861  15.423  0.2828  0.7005 -0.0767
12202TIP3    H158021   3.587   3.873  15.331  0.1251 -0.4398 -0.2017
12202TIP3    H258022   3.701   3.889  15.428  0.5680 -0.0684 -0.7725
12203TIP3   OH258023   3.896   2.936  12.735 -0.3023  0.5226 -0.3877
12203TIP3    H158024   3.846   2.947  12.815 -2.9373  1.5872 -2.0571
12203TIP3    H258025   3.847   2.871  12.684  0.4784  0.9668 -1.7599
12204TIP3   OH258026   2.867   5.432   0.426  0.8134  0.1443  0.2488
12204TIP3    H158027   2.935   5.387   0.375  1.0370 -0.1252  0.7797
12204TIP3    H258028   2.787   5.417   0.376  1.1087  0.2911 -0.2771
12205TIP3   OH258029   6.290   5.106  12.834 -0.1463 -0.1302  0.2438
12205TIP3    H158030   6.263   5.148  12.752  1.1302 -0.3891 -0.3299
12205TIP3    H258031   6.380   5.080  12.819  0.2553  0.2078  1.8935
12206TIP3   OH258032   2.088   0.178  16.281  0.6744 -0.5632  0.1329
12206TIP3    H158033   2.086   0.111  16.212 -0.5428 -0.6628  0.2399
12206TIP3    H258034   2.132   0.135  16.354 -0.1245 -1.2882  0.2094
12207TIP3   OH258035   3.654   2.285   1.587 -0.4671 -0.0731 -0.1252
12207TIP3    H158036   3.680   2.322   1.671  0.8376  1.3782 -1.1099
12207TIP3    H258037   3.697   2.341   1.522  1.1000 -2.9484 -1.7575
12208TIP3   OH258038   5.286   4.939  10.515  0.3451  0.1233 -0.1521
12208TIP3    H158039   5.325   4.852  10.513 -0.1856 -0.1152 -0.4489
12208TIP3    H258040   5.196   4.925  10.546  0.5301  0.6816  0.6748
12209TIP3   OH258041   6.131   3.656   5.919 -0.6708  0.1954 -0.1917
12209TIP3    H158042   6.087   3.576   5.948  0.4013 -1.0458 -1.8271
12209TIP3    H258043   6.210   3.625   5.875  1.6662  2.3362  2.2435
12210TIP3   OH258044   5.702   4.389  15.251  0.3966 -0.0719  0.3824
12210TIP3    H158045   5.649   4.459  15.289 -1.0235 -0.9491  0.0787
12210TIP3    H258046   5.728   4.422  15.165 -0.5117 -0.0317  0.1178
12211TIP3   OH258047   0.857   2.007  11.485 -0.5956  0.3004 -0.1988
12211TIP3    H158048   0.941   2.011  11.529  0.1595 -1.6003 -1.3384
12211TIP3    H258049   0.812   1.932  11.524 -0.9540  0.1530 -0.8659
12212TIP3   OH258050   2.463   0.525   1.480 -0.7742 -0.0769 -0.0970
12212TIP3    H158051   2.439   0.602   1.532 -0.4583  0.1186 -0.2388
12212TIP3    H258052   2.387   0.467   1.487 -1.4039  0.6414 -0.7459
12213TIP3   OH258053   2.411   5.028   3.708  0.3900 -0.1929 -0.3766
12213TIP3    H158054   2.456   4.974   3.643  0.8053  1.3645 -1.4158
12213TIP3    H258055   2.362   5.093   3.657 -0.5772  0.0766  0.8236
12214TIP3   OH258056   3.801   6.203  12.241  0.5009  0.3080 -0.3302
12214TIP3    H158057   3.714   6.175  12.215  0.2920  0.0539  0.6138
12214TIP3    H258058   3.861   6.150  12.189  0.1042  0.7146 -1.2225
12215TIP3   OH258059   4.788   2.820  13.111  0.1739 -0.0165 -0.2598
12215TIP3    H158060   4.723   2.876  13.068  0.6061 -0.3122 -1.3410
12215TIP3    H258061   4.870   2.868  13.102  0.2968 -0.1584  0.0960
12216TIP3   OH258062   1.049   6.591   4.856  0.1495  0.5890 -0.1918
12216TIP3    H158063   0.997   6.549   4.924  0.6502  0.3526  0.0527
12216TIP3    H258064   0.985   6.633   4.799 -0.3885 -0.7445 -0.6053
12217TIP3   OH258065   0.896   1.196  11.926  0.5564  0.2270 -0.1002
12217TIP3    H158066   0.831   1.179  11.858 -0.5816  0.7391  0.8352
12217TIP3    H258067   0.930   1.283  11.906  0.7185  0.0952 -0.4017
12218TIP3   OH258068   0.288   1.554  12.357  0.1091 -0.4541 -0.5074
12218TIP3    H158069   0.325   1.561  12.446 -1.4065 -3.8553  0.5590
12218TIP3    H258070   0.336   1.481  12.317 -1.3493 -1.0207 -1.2888
12219TIP3   OH258071   6.076   5.371   4.895  0.4976 -0.0486 -0.1614
12219TIP3    H158072   6.023   5.451   4.898  0.5773 -0.0432  2.0457
12219TIP3    H258073   6.029   5.315   4.833 -1.7675  0.2188  1.2089
12220TIP3   OH258074   2.906   3.939  11.535  0.0577  0.0081  0.2279
12220TIP3    H158075   2.898   3.856  11.583 -1.0453  0.7017  1.3152
12220TIP3    H258076   2.894   3.914  11.443  0.1283 -1.0936  0.4959
12221TIP3   OH258077   0.407   5.616  14.708 -0.4656 -0.1139 -0.3001
12221TIP3    H158078   0.428   5.571  14.627  1.2141  0.4215 -0.1854
12221TIP3    H258079   0.357   5.693  14.681  0.0843  0.0597 -0.8380
12222TIP3   OH258080   4.280   5.842   5.438  0.4565  0.0654  0.4549
12222TIP3    H158081   4.373   5.820   5.437  0.3837 -0.5317  2.5182
12222TIP3    H258082   4.245   5.797   5.515 -1.4336  0.7434  0.0545
12223TIP3   OH258083   2.434   1.239  15.095 -0.5922 -0.7166 -0.1955
12223TIP3    H158084   2.367   1.307  15.089  0.6920  0.8296  1.5857
12223TIP3    H258085   2.515   1.283  15.071  0.3521 -1.4227  1.4974
12224TIP3   OH258086   5.749   4.976  11.885  0.3375 -0.0013 -0.3588
12224TIP3    H158087   5.780   5.065  11.899  0.3986 -0.2209  1.1285
12224TIP3    H258088   5.788   4.949  11.802  2.4645  0.4678  0.4168
12225TIP3   OH258089   6.671   1.341   4.437 -0.6944  0.8718  0.0031
12225TIP3    H158090   6.638   1.337   4.348 -1.3172  3.1654  0.0595
12225TIP3    H258091   6.766   1.351   4.427 -0.2686 -2.4275 -0.2366
12226TIP3   OH258092   1.300   3.639  15.064 -0.2584 -0.1656  0.4190
12226TIP3    H158093   1.226   3.587  15.036 -1.4117  0.9174  1.3180
12226TIP3    H258094   1.270   3.730  15.056  0.9951  0.2970  0.7332
12227TIP3   OH258095   0.930   0.446  16.559 -0.0516 -0.0314  0.0423
12227TIP3    H158096   0.999   0.403  16.509 -0.7359 -0.7400 -0.3126
12227TIP3    H258097   0.869   0.479  16.493 -0.4993 -0.1833  0.3673
12228TIP3   OH258098   1.146   4.421  15.949  0.8022 -1.1426 -0.3449
12228TIP3    H158099   1.116   4.509  15.973 -2.0458 -1.6716 -1.5222
12228TIP3    H258100   1.172   4.429  15.857 -0.0367 -1.6255 -0.6352
12229TIP3   OH258101   6.816   5.902   3.092  0.1215  0.1514 -0.7433
12229TIP3    H158102   6.755   5.838   3.130 -1.6716  1.6453 -0.9418
12229TIP3    H258103   6.901   5.879   3.130 -1.1167  0.0030  2.2823
12230TIP3   OH258104   2.362   4.426  11.874  0.2657  0.6675 -0.4270
12230TIP3    H158105   2.350   4.485  11.801  1.5940  0.4666 -0.8309
12230TIP3    H258106   2.358   4.338  11.836 -1.4742  0.4659  0.1303
12231TIP3   OH258107   3.611   0.783   0.472  0.2584 -0.0144 -0.3550
12231TIP3    H158108   3.572   0.856   0.424  0.0473 -0.3352 -0.6781
12231TIP3    H258109   3.706   0.795   0.461  0.3273  1.4564  1.4585
12232TIP3   OH258110   4.408   2.856   2.974  0.2952  0.0212 -0.5038
12232TIP3    H158111   4.350   2.831   2.902  0.7595 -0.0472 -0.8602
12232TIP3    H258112   4.436   2.945   2.952 -0.2010  0.3110  0.0117
12233TIP3   OH258113   0.343   4.211   3.014 -0.0797  0.8367 -0.0219
12233TIP3    H158114   0.382   4.297   2.996 -0.2797  0.8311 -0.5013
12233TIP3    H258115   0.286   4.226   3.090  0.1815  1.0385  0.1360
12234TIP3   OH258116   5.618   4.246  16.384  0.0365 -0.3690 -0.0007
12234TIP3    H158117   5.583   4.201  16.307  0.8819  0.6031 -1.0018
12234TIP3    H258118   5.681   4.309  16.348  0.7808 -0.1822  1.5234
12235TIP3   OH258119   0.004   4.469   5.749 -0.2771 -0.3696 -0.3328
12235TIP3    H158120  -0.013   4.418   5.828 -1.4040 -0.1911 -0.4427
12235TIP3    H258121  -0.061   4.437   5.686  1.3690 -1.3903 -1.6178
12236TIP3   OH258122   0.451   0.547  15.325  0.5177  0.6722  0.2134
12236TIP3    H158123   0.507   0.623  15.308  2.6159 -0.4177  1.7644
12236TIP3    H258124   0.469   0.487  15.252  1.1803  0.4602  0.5400
12237TIP3   OH258125   3.612   5.918   4.943  0.0581  0.0858  0.0455
12237TIP3    H158126   3.697   5.876   4.932  0.4396  0.4297  1.5026
12237TIP3    H258127   3.632   6.011   4.949 -0.6107  0.3384 -1.3992
12238TIP3   OH258128   2.525   1.136  11.954 -0.5530 -0.4100  0.0515
12238TIP3    H158129   2.586   1.097  11.891  0.0298 -0.1470  0.4422
12238TIP3    H258130   2.577   1.146  12.034 -0.2210  2.5265 -0.4308
12239TIP3   OH258131   5.242   1.421   6.654  0.4062 -0.2996 -0.7166
12239TIP3    H158132   5.232   1.329   6.680  0.4105  0.0189  0.4733
12239TIP3    H258133   5.152   1.453   6.645  0.3775  0.0378  0.6171
12240TIP3   OH258134   5.374   4.785  13.764  0.3269  0.3999  0.0560
12240TIP3    H158135   5.406   4.698  13.789  1.8189  0.4907 -1.3815
12240TIP3    H258136   5.283   4.771  13.739  0.6723 -0.8414 -0.5846
12241TIP3   OH258137   6.241   1.068   4.940  0.7168 -0.4808 -0.0359
12241TIP3    H158138   6.252   1.054   4.846 -3.0291 -1.5004 -0.4552
12241TIP3    H258139   6.228   0.981   4.976 -0.3510  0.0769  0.9993
12242TIP3   OH258140   2.725   4.998   5.480  0.4750 -0.4838 -0.2553
12242TIP3    H158141   2.790   5.041   5.424 -0.2861  1.3025  0.1501
12242TIP3    H258142   2.762   5.005   5.568  0.6356 -1.2794 -0.2507
12243TIP3   OH258143   3.205   2.212  11.542 -0.3291 -0.2015 -0.1354
12243TIP3    H158144   3.194   2.151  11.615 -0.0182 -1.0288 -0.7509
12243TIP3    H258145   3.174   2.163  11.465  0.0763  0.3605 -0.6736
12244TIP3   OH258146   6.329   0.910  11.477 -0.7031  0.6042 -0.0808
12244TIP3    H158147   6.320   0.821  11.442 -2.2521 -0.2466  2.2339
12244TIP3    H258148   6.422   0.919  11.495 -0.6153 -0.8695  0.3367
12245TIP3   OH258149   5.253   4.807  11.170 -0.0072  0.6934  0.1203
12245TIP3    H158150   5.284   4.808  11.261 -0.3026  0.3324  0.2234
12245TIP3    H258151   5.181   4.869  11.169  1.5420  2.5829 -0.4226
12246TIP3   OH258152   1.655   2.205  13.712  0.3941  0.0440 -1.0433
12246TIP3    H158153   1.699   2.279  13.671 -0.5007 -0.3290 -2.7660
12246TIP3    H258154   1.568   2.238  13.735  0.9463  0.3168  0.8835
12247TIP3   OH258155   3.455   4.955   1.619  0.1198  0.7175  0.6530
12247TIP3    H158156   3.512   4.982   1.546 -0.6739 -1.7623 -1.0090
12247TIP3    H258157   3.494   4.873   1.650 -0.9798  0.4387  1.3393
12248TIP3   OH258158   2.189   3.073   4.045  0.3237  0.1502  0.8295
12248TIP3    H158159   2.141   3.046   3.967 -1.3935  1.5255  1.3612
12248TIP3    H258160   2.193   2.994   4.099  0.4920 -0.5022 -0.1173
12249TIP3   OH258161   4.658   1.152   4.068 -0.0219  0.4875  0.1536
12249TIP3    H158162   4.676   1.176   4.158 -0.5483 -0.9078  0.6598
12249TIP3    H258163   4.564   1.132   4.066 -0.1314  1.0328 -0.8294
12250TIP3   OH258164   3.368   1.484  11.616  0.0420 -0.5760  0.3882
12250TIP3    H158165   3.363   1.390  11.600 -0.1693 -0.5478  0.2861
12250TIP3    H258166   3.314   1.523  11.547  0.8854 -0.3232 -0.1404
12251TIP3   OH258167   0.417   4.801  16.704 -0.4497 -0.2411  0.0430
12251TIP3    H158168   0.414   4.864  16.776 -0.7211  1.5494 -1.4443
12251TIP3    H258169   0.509   4.778  16.695 -0.2588  0.4428  0.2059
12252TIP3   OH258170   3.429   2.631   2.196 -0.4029 -0.2603 -0.0861
12252TIP3    H158171   3.419   2.714   2.148 -1.4794 -1.1895 -1.5751
12252TIP3    H258172   3.493   2.582   2.145  0.0867 -0.4355  0.6856
12253TIP3   OH258173   2.054   2.832   1.740  0.1146  0.1369  0.4409
12253TIP3    H158174   2.124   2.790   1.689  0.3890  1.9328 -0.7675
12253TIP3    H258175   2.082   2.924   1.748 -1.1929  0.4686  1.6225
12254TIP3   OH258176   5.888   1.969  13.660  0.1432  0.6462  0.0106
12254TIP3    H158177   5.820   1.917  13.704  0.4046  0.5383  0.2973
12254TIP3    H258178   5.898   1.928  13.575  0.0983  0.4424  0.1011
12255TIP3   OH258179   2.442   3.387  13.203 -0.2100 -0.1914  0.1072
12255TIP3    H158180   2.353   3.395  13.239  0.4811 -0.0996  1.8467
12255TIP3    H258181   2.461   3.293  13.206  0.8557  0.0550  2.5796
12256TIP3   OH258182   4.861   6.744  12.653 -0.5580 -0.7031  0.0562
12256TIP3    H158183   4.778   6.774  12.616 -0.6153  0.3703  0.9961
12256TIP3    H258184   4.911   6.714  12.577 -0.3566  2.1479 -1.0516
12257TIP3   OH258185   0.843   6.435   5.055  0.1155  0.0763  0.5687
12257TIP3    H158186   0.872   6.369   5.117  0.1150 -1.0645 -0.5960
12257TIP3    H258187   0.772   6.392   5.006  0.4512  0.7518 -0.5446
12258TIP3   OH258188   6.295   3.225   5.157  0.2923  0.2835 -0.0297
12258TIP3    H158189   6.373   3.188   5.115 -0.5524 -1.0173 -0.5230
12258TIP3    H258190   6.286   3.312   5.118  1.2299  0.2718 -0.3054
12259TIP3   OH258191   1.611   6.402  15.226 -0.3003  0.3215 -0.0392
12259TIP3    H158192   1.609   6.452  15.145  0.4599  0.7442  0.1873
12259TIP3    H258193   1.575   6.460  15.293 -2.6821 -0.6814 -0.3787
12260TIP3   OH258194   6.656   5.668   4.394  0.0142 -0.3041  0.3105
12260TIP3    H158195   6.642   5.684   4.487  1.5801  1.2148  0.3420
12260TIP3    H258196   6.750   5.657   4.385  0.0949  1.1487 -1.2675
12261TIP3   OH258197   1.001   5.179  13.845 -0.0829  0.0597 -0.0544
12261TIP3    H158198   1.038   5.187  13.933  0.2231  0.0328 -0.1788
12261TIP3    H258199   1.067   5.129  13.796  0.2771  1.0359 -0.6051
12262TIP3   OH258200   1.650   4.945  11.190 -0.2941  0.0172 -0.1761
12262TIP3    H158201   1.708   4.999  11.243  2.0702 -0.0913 -2.4571
12262TIP3    H258202   1.598   5.009  11.140 -0.6670  0.1220  0.3362
12263TIP3   OH258203   3.565   2.984  11.766 -0.4167 -0.7706 -0.5283
12263TIP3    H158204   3.505   3.045  11.808  0.3613 -1.2322  1.3356
12263TIP3    H258205   3.647   3.033  11.757  0.1213 -1.4041  0.7025
12264TIP3   OH258206   2.720   4.381  12.517 -0.4375  0.3388  0.3215
12264TIP3    H158207   2.668   4.316  12.564 -0.5416  1.5002  1.8706
12264TIP3    H258208   2.778   4.329  12.461 -0.4942 -1.0951  1.5354
12265TIP3   OH258209   6.074   4.296   5.918  0.0060 -0.4048  0.6420
12265TIP3    H158210   6.104   4.237   5.987  0.7792 -1.2536 -0.4005
12265TIP3    H258211   6.019   4.242   5.862 -1.1285  0.4326  0.9130
12266TIP3   OH258212   3.420   2.599  12.772  0.3815 -0.3803 -0.2072
12266TIP3    H158213   3.374   2.623  12.853  1.8431  0.4127  0.4140
12266TIP3    H258214   3.452   2.510  12.789 -2.4975 -1.7716 -1.3927
12267TIP3   OH258215   5.161   1.068   3.197 -0.2755 -0.2549  0.0227
12267TIP3    H158216   5.078   1.022   3.182  0.6265 -2.0008  0.1441
12267TIP3    H258217   5.224   1.022   3.142  1.2033 -0.8833  2.1148
12268TIP3   OH258218   1.254   6.168   4.441  0.4906  0.0554 -0.4014
12268TIP3    H158219   1.263   6.263   4.445  0.5608  0.0102  1.1400
12268TIP3    H258220   1.159   6.153   4.440  0.4310  0.1484 -2.6233
12269TIP3   OH258221   1.689   4.213  11.102  0.3584  0.3762 -0.7209
12269TIP3    H158222   1.696   4.239  11.011 -1.4195 -0.1007 -1.0329
12269TIP3    H258223   1.696   4.118  11.102  1.2314  0.4229 -0.2337
12270TIP3   OH258224   3.751   3.070  13.577  0.4664 -0.0137  0.1579
12270TIP3    H158225   3.669   3.119  13.579  0.5561  0.1404  0.1246
12270TIP3    H258226   3.819   3.137  13.591  0.4914 -0.3730  1.9307
12271TIP3   OH258227   1.936   4.833  13.145  0.4651 -0.0064 -0.2947
12271TIP3    H158228   1.937   4.862  13.236 -2.0341  0.4004 -0.3148
12271TIP3    H258229   1.933   4.914  13.094 -0.0524 -0.2299 -0.6323
12272TIP3   OH258230   3.618   5.602   4.075  0.7491 -0.2702  0.0429
12272TIP3    H158231   3.596   5.686   4.115  0.4174  0.1508 -0.9914
12272TIP3    H258232   3.536   5.570   4.038  0.9049 -0.9825  0.2824
12273TIP3   OH258233   3.078   4.701  16.395 -0.5205 -0.0741  0.1993
12273TIP3    H158234   3.127   4.714  16.476  1.8147  0.6622 -1.2279
12273TIP3    H258235   3.135   4.647  16.340 -2.2206 -0.9292 -0.8359
12274TIP3   OH258236   3.605   0.033   1.689  0.5920 -0.2727  0.2676
12274TIP3    H158237   3.528  -0.024   1.696 -0.0841  0.6895  0.9386
12274TIP3    H258238   3.678  -0.027   1.671 -0.0207 -1.3928  1.3959
12275TIP3   OH258239   2.769   3.810  16.398 -0.3458  0.0583  0.3137
12275TIP3    H158240   2.680   3.843  16.385 -0.2162  0.7074  1.0495
12275TIP3    H258241   2.817   3.883  16.437  0.1605 -0.7177  1.1828
12276TIP3   OH258242   5.316   2.587  12.725  0.2436  0.0110 -0.0089
12276TIP3    H158243   5.391   2.646  12.719  0.8255 -0.6378  0.7036
12276TIP3    H258244   5.327   2.527  12.651  0.2911  0.0624 -0.0433
12277TIP3   OH258245   4.276   6.643   1.908 -0.1268 -0.4588 -0.0378
12277TIP3    H158246   4.353   6.591   1.887  0.1048 -0.3756  0.5825
12277TIP3    H258247   4.294   6.729   1.871 -0.4196 -0.7500 -0.8820
12278TIP3   OH258248   2.513   1.548  12.522  0.4051  0.2938 -0.0280
12278TIP3    H158249   2.486   1.456  12.524 -0.2958  0.4450 -1.5448
12278TIP3    H258250   2.551   1.563  12.609  3.2875 -2.2293 -0.6571
12279TIP3   OH258251   1.761   1.638  12.146 -0.5376  0.5738  0.4863
12279TIP3    H158252   1.771   1.721  12.099  0.8892  0.5438  0.7131
12279TIP3    H258253   1.837   1.633  12.203 -1.1022 -0.4570  1.1776
12280TIP3   OH258254   3.153   3.096  16.130 -0.4873 -0.1959  0.1062
12280TIP3    H158255   3.183   3.131  16.046 -1.8405 -3.2997 -1.8709
12280TIP3    H258256   3.075   3.147  16.151  1.3579  2.4345  1.0206
12281TIP3   OH258257   1.958   5.769   1.861  0.4365 -0.3814 -0.2340
12281TIP3    H158258   1.918   5.765   1.774 -0.3274  0.1952  0.0822
12281TIP3    H258259   1.976   5.862   1.876 -0.3483 -0.3470  0.6138
12282TIP3   OH258260   5.601   4.105  13.604  0.1214  0.5676 -0.3868
12282TIP3    H158261   5.582   4.102  13.698 -1.0452 -0.1537 -0.6210
12282TIP3    H258262   5.694   4.125  13.599  0.2260  0.5129  0.9281
12283TIP3   OH258263   4.359   1.218   5.164  0.4282  0.3287 -0.1918
12283TIP3    H158264   4.393   1.294   5.211 -0.4557  0.5204  0.1452
12283TIP3    H258265   4.397   1.225   5.076 -1.7212  2.6252 -1.0384
12284TIP3   OH258266   2.491   6.500  14.209  0.5862  0.5302  0.0966
12284TIP3    H158267   2.570   6.491  14.156 -0.4802 -0.8608 -1.3558
12284TIP3    H258268   2.424   6.452  14.161 -0.8826  0.6974  1.8546
12285TIP3   OH258269   3.814   5.448   4.282 -0.2116 -0.4506 -0.1144
12285TIP3    H158270   3.734   5.396   4.278 -1.1895  1.0844 -3.1376
12285TIP3    H258271   3.800   5.519   4.220  3.1909  0.3399 -0.1779
12286TIP3   OH258272   4.760   5.827  11.677  0.2329  0.4172 -0.4067
12286TIP3    H158273   4.735   5.879  11.600  0.0263  1.8581  0.6013
12286TIP3    H258274   4.776   5.892  11.746 -2.1872 -0.8744  1.5506
12287TIP3   OH258275   3.147   1.605  11.200 -0.4623 -0.9440 -0.6205
12287TIP3    H158276   3.124   1.698  11.194  0.0791 -0.7547  0.0562
12287TIP3    H258277   3.145   1.586  11.294 -0.4220 -1.5824 -0.7434
12288TIP3   OH258278   5.739   3.047  16.789  0.2079 -0.0061 -0.6687
12288TIP3    H158279   5.655   3.093  16.780  0.1172 -0.3452 -1.7554
12288TIP3    H258280   5.730   2.996  16.870 -0.5964  0.0453 -0.7171
12289TIP3   OH258281   4.445   1.172  14.535  0.2785  0.7252 -0.6415
12289TIP3    H158282   4.446   1.261  14.501 -0.9936 -0.2920 -3.7573
12289TIP3    H258283   4.486   1.178  14.621 -0.4679  4.4101 -0.3796
12290TIP3   OH258284   0.089   0.704   2.477 -0.2358  0.0222 -0.1556
12290TIP3    H158285   0.151   0.769   2.511  1.5932 -1.0613 -1.2533
12290TIP3    H258286   0.075   0.644   2.551 -0.4056  0.5823  0.2711
12291TIP3   OH258287   1.119   6.660  11.896  0.0796 -0.4616  0.2536
12291TIP3    H158288   1.071   6.726  11.847 -0.4083 -0.8092  0.2484
12291TIP3    H258289   1.052   6.596  11.921  0.7994 -1.8554 -1.2095
12292TIP3   OH258290   3.751   5.830  16.708 -0.1200  0.3787  0.1439
12292TIP3    H158291   3.720   5.741  16.727 -0.1346  0.2069 -0.6536
12292TIP3    H258292   3.794   5.823  16.623  0.5433  0.9866  0.4189
12293TIP3   OH258293   4.155   4.394  16.099  0.1504  0.3858  0.1728
12293TIP3    H158294   4.095   4.417  16.028  0.7299 -2.5578 -1.4600
12293TIP3    H258295   4.172   4.301  16.086  4.7432  0.8973  0.7545
12294TIP3   OH258296   0.694   3.869   1.048 -0.2794  0.1983 -0.4740
12294TIP3    H158297   0.664   3.958   1.029  0.9320  0.5699 -0.7495
12294TIP3    H258298   0.761   3.851   0.982 -0.1838 -0.7421 -0.1410
12295TIP3   OH258299   0.018   3.414   3.042 -0.3349  0.0495 -0.3388
12295TIP3    H158300   0.090   3.447   2.989  0.8255 -1.1614  0.4329
12295TIP3    H258301  -0.046   3.485   3.041  0.6662  0.9896 -1.3869
12296TIP3   OH258302   3.467   4.934   3.349 -0.0759  0.4429 -0.1020
12296TIP3    H158303   3.492   4.856   3.398 -0.1865  1.3121  1.4053
12296TIP3    H258304   3.450   5.000   3.416 -1.1272  1.4325 -1.2885
12297TIP3   OH258305   3.910   0.222  14.308  0.2786  0.0262  0.0245
12297TIP3    H158306   3.828   0.225  14.259 -0.1752  1.7167  0.8067
12297TIP3    H258307   3.960   0.296  14.276  0.6838  0.1515  0.9105
12298TIP3   OH258308   6.769   3.742  13.903  0.3670 -0.3398  0.7063
12298TIP3    H158309   6.760   3.808  13.834  0.5680 -1.2096 -0.1761
12298TIP3    H258310   6.860   3.750  13.932 -0.1528  1.1718  2.0982
12299TIP3   OH258311   4.603   3.656  12.477  0.3724 -0.1981  0.3906
12299TIP3    H158312   4.620   3.589  12.544 -0.4802 -0.5116  0.3164
12299TIP3    H258313   4.649   3.733  12.508  1.9812 -1.0028  0.1188
12300TIP3   OH258314   1.337   6.497  15.619  0.6139 -0.8019  0.0219
12300TIP3    H158315   1.285   6.423  15.587  1.0993 -0.1465 -2.5262
12300TIP3    H258316   1.274   6.569  15.626  0.7770 -0.5343 -1.0913
12301TIP3   OH258317   3.806   5.131   3.342 -0.3365 -0.4615 -0.6835
12301TIP3    H158318   3.826   5.225   3.335 -3.1032  0.1450 -2.5366
12301TIP3    H258319   3.767   5.109   3.257  0.6549 -3.4637 -0.4747
12302TIP3   OH258320   3.530   5.283  14.459  0.3031  0.5454  0.0020
12302TIP3    H158321   3.439   5.313  14.454  0.6622  1.9507  1.0639
12302TIP3    H258322   3.558   5.308  14.547  1.3736 -0.9246  0.1134
12303TIP3   OH258323   6.012   1.380   0.432 -0.1952  0.5497  0.2921
12303TIP3    H158324   5.947   1.320   0.468  0.8705 -0.3800  0.7214
12303TIP3    H258325   6.096   1.340   0.455  0.5212  1.2743 -1.0052
12304TIP3   OH258326   2.969   3.361   0.373  0.3369  0.1976 -0.3254
12304TIP3    H158327   3.025   3.415   0.428  0.4948 -1.0216  0.7631
12304TIP3    H258328   2.898   3.418   0.346  2.1303  1.8424 -1.8453
12305TIP3   OH258329   2.945   0.969   4.226 -0.1694 -0.1170 -0.3236
12305TIP3    H158330   2.860   0.984   4.267 -0.0722  0.2622 -0.2635
12305TIP3    H258331   2.982   0.895   4.275 -1.0182 -1.1461 -1.2004
12306TIP3   OH258332   1.677   3.333  12.800 -0.2985 -0.1157 -0.2669
12306TIP3    H158333   1.645   3.246  12.826 -1.5451  0.5758  0.5901
12306TIP3    H258334   1.685   3.380  12.883  1.0297  0.3966 -0.6605
12307TIP3   OH258335   5.655   4.475   1.911 -0.1582 -0.2864 -0.3810
12307TIP3    H158336   5.709   4.417   1.964  0.2523 -0.1311 -0.6262
12307TIP3    H258337   5.656   4.558   1.959  0.6322  0.0076 -0.8724
12308TIP3   OH258338   2.056   3.008   2.139 -0.0563 -0.7630  0.0163
12308TIP3    H158339   1.985   2.943   2.138 -0.0014 -1.0318  3.0132
12308TIP3    H258340   2.135   2.957   2.156  0.4404 -0.1802 -0.5004
12309TIP3   OH258341   2.477   1.413   0.700 -0.2304 -0.0269 -0.6344
12309TIP3    H158342   2.541   1.401   0.771 -0.9211  0.7074  0.1310
12309TIP3    H258343   2.513   1.362   0.627  1.3282  0.5095 -0.2873
12310TIP3   OH258344   5.481   2.205  16.219 -0.6846 -0.0004  0.0497
12310TIP3    H158345   5.422   2.199  16.294 -0.2086  1.4407  0.5792
12310TIP3    H258346   5.424   2.222  16.145 -1.0502  0.1012  0.3503
12311TIP3   OH258347   5.956   1.732   3.982 -0.3527 -0.6625  0.1455
12311TIP3    H158348   5.981   1.715   4.073 -0.3983 -0.3148  0.2248
12311TIP3    H258349   5.880   1.789   3.988 -0.4377 -0.7481 -0.1100
12312TIP3   OH258350   3.140   2.870  15.512  0.1151 -0.1325  0.4064
12312TIP3    H158351   3.207   2.936  15.497 -0.7076  0.7947  0.7188
12312TIP3    H258352   3.139   2.856  15.606 -2.1854  2.1625  0.8398
12313TIP3   OH258353   3.974   3.652   2.858  0.2603  0.0888 -0.8567
12313TIP3    H158354   3.990   3.633   2.766  5.5648  1.3067 -0.5032
12313TIP3    H258355   3.987   3.746   2.866  0.2106 -0.0290  1.1856
12314TIP3   OH258356   2.915   3.899   4.970 -0.0653 -0.1693 -0.4096
12314TIP3    H158357   2.936   3.920   5.061 -0.7973 -1.9818  0.2292
12314TIP3    H258358   2.876   3.980   4.935  0.2151  0.5519  0.8843
12315TIP3   OH258359   4.585   3.462  10.919 -0.1351  0.0912 -0.2498
12315TIP3    H158360   4.656   3.399  10.915  0.4198  0.6965 -0.1206
12315TIP3    H258361   4.513   3.421  10.870  0.6604 -0.0674 -1.3178
12316TIP3   OH258362   2.501   2.017  10.277 -0.3540  0.5392 -0.2378
12316TIP3    H158363   2.597   2.012  10.280 -0.4327 -1.2425  1.9533
12316TIP3    H258364   2.475   2.020  10.369 -2.4040  2.2661 -0.8108
12317TIP3   OH258365   5.331   2.554  14.960  0.0724 -0.1541 -0.3133
12317TIP3    H158366   5.370   2.508  15.034 -1.5940  0.2091  0.8437
12317TIP3    H258367   5.356   2.646  14.973 -2.3232  0.3535  1.3260
12318TIP3   OH258368   6.139   0.071  11.227 -0.1436 -0.6935  0.0433
12318TIP3    H158369   6.206   0.134  11.200 -0.1267 -0.3711  0.8086
12318TIP3    H258370   6.064   0.090  11.170 -0.2391  0.2250  0.4573
12319TIP3   OH258371   2.249   1.697  11.155 -0.2042  0.6250  0.4590
12319TIP3    H158372   2.249   1.631  11.225  2.5153  0.4468  0.4090
12319TIP3    H258373   2.316   1.760  11.182  0.5278  0.8536 -1.7015
12320TIP3   OH258374   0.282   3.570   1.279  0.3172 -0.0058 -0.1351
12320TIP3    H158375   0.237   3.513   1.216  0.3782  0.3565 -0.5121
12320TIP3    H258376   0.213   3.624   1.316  0.5483  1.3446 -1.5419
12321TIP3   OH258377   3.878   5.830  14.125 -0.3728  0.1234  0.2847
12321TIP3    H158378   3.803   5.805  14.178  0.3193 -0.9065  0.8129
12321TIP3    H258379   3.880   5.765  14.054 -0.2275  0.3994  0.0322
12322TIP3   OH258380   6.646   4.748  15.705 -0.0279 -0.0674 -0.1761
12322TIP3    H158381   6.563   4.706  15.684  0.1122  0.7501 -2.6930
12322TIP3    H258382   6.704   4.725  15.633  0.6948  2.6128 -0.5552
12323TIP3   OH258383   5.743   1.533  13.682 -0.3682  0.1045  0.0607
12323TIP3    H158384   5.753   1.448  13.725  0.3054  0.3542  0.4168
12323TIP3    H258385   5.798   1.527  13.603  0.5576  0.5699  0.6479
12324TIP3   OH258386   1.300   1.745   4.356  0.1269 -0.6883  0.3284
12324TIP3    H158387   1.346   1.662   4.364  1.7477  0.2806  1.7987
12324TIP3    H258388   1.350   1.794   4.291  0.6100 -0.0111  1.1878
12325TIP3   OH258389   4.048   6.773  14.524  0.1906 -0.6013  0.7053
12325TIP3    H158390   4.119   6.771  14.459 -1.1905 -0.2138 -0.8787
12325TIP3    H258391   4.072   6.843  14.584 -0.1175  1.4256 -1.3851
12326TIP3   OH258392   2.181   3.611   3.983  0.3877 -0.2920 -0.3786
12326TIP3    H158393   2.115   3.596   3.916  0.5579 -0.8778 -0.4307
12326TIP3    H258394   2.133   3.642   4.059 -0.2166 -2.4666  0.1916
12327TIP3   OH258395   4.905   4.600   4.324 -0.3697 -0.6170 -0.4159
12327TIP3    H158396   4.929   4.649   4.402  2.7870 -2.1949 -0.2344
12327TIP3    H258397   4.848   4.659   4.275 -0.9121  1.1423  2.1624
12328TIP3   OH258398   1.183   4.101  15.767  0.4395 -0.4148 -0.2062
12328TIP3    H158399   1.257   4.148  15.729  0.5172 -1.1810 -1.0228
12328TIP3    H258400   1.129   4.170  15.807  0.4462  0.3875 -1.5274
12329TIP3   OH258401   4.133   4.334   3.409 -0.1792  0.4495 -0.2544
12329TIP3    H158402   4.223   4.360   3.430  0.1061 -0.1433 -0.7220
12329TIP3    H258403   4.123   4.247   3.447 -0.1791  0.0341 -1.1817
12330TIP3   OH258404   6.046   6.736   3.101 -0.1660  0.1724  0.2904
12330TIP3    H158405   5.978   6.713   3.038  1.2552 -1.0442 -0.8793
12330TIP3    H258406   6.047   6.831   3.102 -0.5075  0.2068 -1.1978
12331TIP3   OH258407   4.267   3.397  14.104 -0.2310 -0.4194  0.0885
12331TIP3    H158408   4.309   3.338  14.166 -1.3533 -0.3544  0.9472
12331TIP3    H258409   4.261   3.481  14.151 -0.7078 -0.2518 -0.2608
12332TIP3   OH258410   5.791   2.926  16.537  0.1124  0.2760 -0.0701
12332TIP3    H158411   5.775   2.977  16.617  1.2499  1.4993 -0.5736
12332TIP3    H258412   5.712   2.940  16.485  0.0470  0.8374  0.1615
12333TIP3   OH258413   0.398   3.755  11.736  0.2227  0.6655 -0.8090
12333TIP3    H158414   0.411   3.806  11.656 -1.6725 -0.1227 -1.6695
12333TIP3    H258415   0.350   3.678  11.708  1.1245 -0.5617  0.8255
12334TIP3   OH258416   6.163   3.100   5.393 -0.5206  0.5520 -0.2649
12334TIP3    H158417   6.217   3.075   5.468  0.7759 -0.6921 -1.5311
12334TIP3    H258418   6.220   3.156   5.340 -0.3787 -0.8499 -1.6740
12335TIP3   OH258419   0.602   2.255   4.319 -0.7670 -0.1829 -0.2582
12335TIP3    H158420   0.680   2.279   4.267  0.7043 -1.0305  1.4661
12335TIP3    H258421   0.537   2.321   4.295  1.4350  2.4618  0.4365
12336TIP3   OH258422   6.329   4.644  15.030 -0.1689 -0.8778 -0.0002
12336TIP3    H158423   6.241   4.629  15.065  0.2723 -0.7682  1.2184
12336TIP3    H258424   6.365   4.712  15.088  1.3184 -2.1280  0.5932
12337TIP3   OH258425   6.278   6.749  11.688 -0.0288 -0.3631 -0.3231
12337TIP3    H158426   6.195   6.720  11.650 -0.3491  0.2362 -0.0896
12337TIP3    H258427   6.342   6.738  11.618 -0.5619  0.4786 -0.9522
12338TIP3   OH258428   4.423   4.295  16.632  0.0417 -0.1265 -0.5240
12338TIP3    H158429   4.387   4.331  16.551  0.3144  0.0186 -0.5818
12338TIP3    H258430   4.512   4.328  16.636 -0.3218  0.8127  0.4120
12339TIP3   OH258431   4.601   4.736  13.262  0.3336 -0.6848  0.3090
12339TIP3    H158432   4.659   4.813  13.255  0.2265 -0.7586 -1.9612
12339TIP3    H258433   4.514   4.773  13.277  0.2325 -0.3169 -1.0911
12340TIP3   OH258434   6.708   5.483  14.551  0.2272  0.0340 -0.0594
12340TIP3    H158435   6.648   5.477  14.477  0.1602 -0.6257  0.0521
12340TIP3    H258436   6.687   5.409  14.607 -0.5338  1.1892  1.2415
12341TIP3   OH258437   6.572   6.229  13.376  0.3637 -0.2473  0.5299
12341TIP3    H158438   6.623   6.223  13.296  0.1874 -2.0712  0.5251
12341TIP3    H258439   6.531   6.316  13.372  1.0148  0.0168 -0.9300
12342TIP3   OH258440   2.785   3.516  15.153 -0.3538 -0.5588  0.8199
12342TIP3    H158441   2.717   3.579  15.131  0.5211  0.8333  1.8917
12342TIP3    H258442   2.850   3.526  15.084  0.1988  0.4014  1.4527
12343TIP3   OH258443   4.183   5.193  12.025  0.5965  0.3361 -0.2608
12343TIP3    H158444   4.246   5.259  11.995  0.5072  0.7983  0.5437
12343TIP3    H258445   4.220   5.110  11.995  0.8095  0.7258 -1.1144
12344TIP3   OH258446   3.301   6.245   0.254 -0.0135  0.4633  0.0689
12344TIP3    H158447   3.356   6.249   0.331 -0.2770 -1.7513  0.4518
12344TIP3    H258448   3.268   6.334   0.242  1.5406  1.2454  1.3550
12345TIP3   OH258449   5.395   4.297  15.128 -0.1834 -0.1064  0.5298
12345TIP3    H158450   5.434   4.232  15.186  0.3417  0.4641  0.8277
12345TIP3    H258451   5.390   4.254  15.043  2.1062  0.1537  0.2006
12346TIP3   OH258452   3.553   0.254  11.930 -0.1213 -0.3122 -0.6573
12346TIP3    H158453   3.626   0.289  11.981 -2.0248  0.2506  1.8556
12346TIP3    H258454   3.520   0.330  11.881  0.5135 -0.4223 -1.2813
12347TIP3   OH258455   4.176   2.092   4.783 -0.4760 -0.2131  0.1894
12347TIP3    H158456   4.146   2.129   4.866 -0.9865  3.0583 -1.2870
12347TIP3    H258457   4.098   2.050   4.746 -0.9456  0.6253  0.2151
12348TIP3   OH258458   5.904   0.170  11.447 -0.5105 -0.0869 -0.2361
12348TIP3    H158459   5.965   0.237  11.479  1.3821 -1.5277 -0.6454
12348TIP3    H258460   5.867   0.208  11.367  0.4040  0.5685 -0.3675
12349TIP3   OH258461   2.247   4.954  15.049  0.6202 -0.2992  0.3678
12349TIP3    H158462   2.284   4.867  15.064 -1.4708 -0.8668  3.0435
12349TIP3    H258463   2.307   5.014  15.093  1.3168 -0.5190 -0.2589
12350TIP3   OH258464   1.060   0.838   0.375  0.5631  0.3860  1.0599
12350TIP3    H158465   1.149   0.826   0.344  0.8771  1.9119  1.2806
12350TIP3    H258466   1.017   0.890   0.307 -0.2509 -0.5424  0.8328
12351TIP3   OH258467   5.173   6.235  13.681 -0.1320 -0.0913  0.1839
12351TIP3    H158468   5.204   6.322  13.708 -1.0620  0.7176 -1.2336
12351TIP3    H258469   5.080   6.248  13.661 -0.7059 -1.7952  1.5041
12352TIP3   OH258470   0.596   5.174  15.467 -0.5844  0.3323 -0.2658
12352TIP3    H158471   0.651   5.201  15.394 -1.0112  0.0283 -0.7096
12352TIP3    H258472   0.630   5.087  15.492 -0.2278  0.5772  0.1196
12353TIP3   OH258473   2.949   2.190  11.157  0.3084 -0.1179 -0.1789
12353TIP3    H158474   2.999   2.131  11.214 -0.2394 -0.0176  0.4189
12353TIP3    H258475   2.880   2.135  11.121 -1.0935  0.4299  1.5026
12354TIP3   OH258476   6.397   4.613  15.602 -0.2359  0.2026  0.7331
12354TIP3    H158477   6.333   4.543  15.613 -0.9227  0.5183 -0.9862
12354TIP3    H258478   6.344   4.691  15.586  0.5547  0.4968 -0.5640
12355TIP3   OH258479   1.488   3.377  16.948  0.0280 -0.2097  0.1028
12355TIP3    H158480   1.448   3.338  16.870 -1.7859  2.4160 -0.4361
12355TIP3    H258481   1.464   3.318  17.020 -1.3990 -0.8119 -0.8338
12356TIP3   OH258482   0.716   4.628  10.723  0.1810 -0.2113  0.4712
12356TIP3    H158483   0.626   4.659  10.722  0.6184  1.1892  1.4823
12356TIP3    H258484   0.766   4.696  10.679  0.8059 -0.7630  0.3132
12357TIP3   OH258485   3.838   4.355   1.058 -0.1429 -0.1785  0.2847
12357TIP3    H158486   3.914   4.395   1.016 -0.2715  0.5083  0.6951
12357TIP3    H258487   3.763   4.396   1.014 -0.2972 -1.0611 -0.3234
12358TIP3   OH258488   6.043   6.294   6.149  0.5746  0.0665 -0.5763
12358TIP3    H158489   6.096   6.333   6.219 -0.3033 -0.3392  0.3352
12358TIP3    H258490   5.955   6.288   6.186  0.2836 -0.9941 -1.3989
12359TIP3   OH258491   0.801   6.487  15.219 -0.0052  0.1924  0.4548
12359TIP3    H158492   0.724   6.534  15.249 -1.9497  0.0014 -3.4971
12359TIP3    H258493   0.767   6.406  15.182  2.0392  0.0346 -1.3320
12360TIP3   OH258494   2.523   1.464   5.094  0.3769 -0.1487 -0.1154
12360TIP3    H158495   2.503   1.534   5.155 -1.0834 -0.0133 -0.7148
12360TIP3    H258496   2.615   1.478   5.070  0.5138  0.6905  0.8683
12361TIP3   OH258497   0.547   2.950   1.550 -0.4275  0.7776 -0.1762
12361TIP3    H158498   0.527   2.864   1.513 -1.4282 -0.2169  2.3967
12361TIP3    H258499   0.476   2.966   1.613  1.6944  1.7323  2.1309
12362TIP3   OH258500   2.085   4.362  13.805  0.1116  0.5142 -0.4744
12362TIP3    H158501   2.079   4.457  13.812  0.0888  0.4176  1.3584
12362TIP3    H258502   2.001   4.330  13.839  0.1760 -0.1748 -0.9371
12363TIP3   OH258503   6.160   5.754  15.055 -0.0209 -0.2540  0.2043
12363TIP3    H158504   6.250   5.786  15.050  0.2744 -0.7959  1.5115
12363TIP3    H258505   6.148   5.703  14.976  1.3140 -1.3334  0.6591
12364TIP3   OH258506   1.165   3.069  13.884 -0.0265  0.6804 -0.1455
12364TIP3    H158507   1.179   3.132  13.813 -0.6649  0.2248 -0.6863
12364TIP3    H258508   1.127   2.993  13.841 -1.8706  0.9720  0.8899
12365TIP3   OH258509   4.143   0.959  13.150 -0.0601  0.4205 -0.3740
12365TIP3    H158510   4.195   0.916  13.219  0.2208  0.1867 -0.7275
12365TIP3    H258511   4.060   0.912  13.150  0.1599  0.0240 -0.5975
12366TIP3   OH258512   5.888   4.179  13.616  0.3443  0.2576 -0.4189
12366TIP3    H158513   5.907   4.268  13.645  2.1760 -0.1453 -0.2819
12366TIP3    H258514   5.956   4.160  13.551  0.0368 -1.0642 -0.3725
12367TIP3   OH258515   0.862   0.888   3.841 -0.4181  0.6116  0.1649
12367TIP3    H158516   0.825   0.926   3.921 -0.0965  0.7004  0.2735
12367TIP3    H258517   0.948   0.855   3.868 -0.5469  0.1204 -0.0066
12368TIP3   OH258518   4.005   3.113  12.314  0.7464 -0.5739  0.3322
12368TIP3    H158519   4.014   3.019  12.299  1.4035 -0.5109  0.3075
12368TIP3    H258520   4.092   3.148  12.300  0.7802 -0.1218  1.5275
12369TIP3   OH258521   0.932   4.310   2.015  0.7466 -0.3513  0.2709
12369TIP3    H158522   0.969   4.342   2.097  0.1880 -1.5158  0.9874
12369TIP3    H258523   0.951   4.217   2.014 -0.4172 -0.6071 -0.2801
12370TIP3   OH258524   6.190   3.840   2.464  0.2313 -0.2849  0.4922
12370TIP3    H158525   6.158   3.863   2.552 -1.9254  0.6806 -0.4562
12370TIP3    H258526   6.240   3.916   2.436 -0.5863  0.1771  0.2382
12371TIP3   OH258527   1.760   4.445  15.408  0.6498  0.3197 -0.0995
12371TIP3    H158528   1.851   4.455  15.380  1.8580 -0.2875  3.1872
12371TIP3    H258529   1.740   4.528  15.453 -0.7901  0.8034 -1.5316
12372TIP3   OH258530   5.573   1.059  13.858  0.1662  0.5088  0.5392
12372TIP3    H158531   5.624   0.979  13.848  0.2402  0.5125  0.8974
12372TIP3    H258532   5.583   1.104  13.773 -0.6074 -0.2775  0.0132
12373TIP3   OH258533   6.739   2.453  14.830 -0.1253 -0.1652  0.0956
12373TIP3    H158534   6.734   2.394  14.755 -0.8208 -1.4214  1.0929
12373TIP3    H258535   6.741   2.395  14.906  1.8689  1.0319  1.0388
12374TIP3   OH258536   0.729   4.532   3.225 -0.4726 -0.1724 -0.1700
12374TIP3    H158537   0.678   4.507   3.301 -1.1039  0.3625 -0.3998
12374TIP3    H258538   0.724   4.628   3.224 -2.0045 -0.2054 -1.8666
12375TIP3   OH258539   0.567   3.217   4.189  0.0302 -0.1507 -0.0999
12375TIP3    H158540   0.640   3.186   4.243  1.5470  1.5712 -1.0333
12375TIP3    H258541   0.609   3.268   4.120 -2.0570  0.4168 -1.0125
12376TIP3   OH258542   4.512   5.833   1.308 -0.1261 -0.4770  0.1184
12376TIP3    H158543   4.548   5.783   1.234 -1.0582 -2.5415  0.9781
12376TIP3    H258544   4.417   5.825   1.298 -0.2923  0.7858  0.5475
12377TIP3   OH258545   4.381   2.699  15.176 -0.0156 -0.9464  0.8648
12377TIP3    H158546   4.428   2.636  15.231 -0.0530 -0.6626  1.2250
12377TIP3    H258547   4.309   2.648  15.138  0.5528 -1.3690  0.3419
12378TIP3   OH258548   0.749   0.747  13.338 -0.5520  0.1310 -0.6138
12378TIP3    H158549   0.827   0.803  13.343 -0.4953 -0.0017  0.2118
12378TIP3    H258550   0.684   0.800  13.293 -0.5415  0.9293  0.2876
12379TIP3   OH258551   6.431   5.840  10.840 -0.0330 -0.0955  0.2879
12379TIP3    H158552   6.386   5.910  10.889  2.0099  2.2076 -0.8829
12379TIP3    H258553   6.524   5.857  10.854  0.5536 -1.7945 -1.1700
12380TIP3   OH258554   6.667   2.627  15.089 -0.4443  0.0313 -1.0309
12380TIP3    H158555   6.732   2.608  15.022 -1.0009 -1.6313 -1.1677
12380TIP3    H258556   6.587   2.584  15.057 -0.8121 -0.4875  0.5002
12381TIP3   OH258557   0.115   4.521  11.160  0.3341 -0.5582  0.2241
12381TIP3    H158558   0.027   4.487  11.143  0.0155  1.1492 -2.0379
12381TIP3    H258559   0.101   4.596  11.217  0.1892  0.2515 -0.8509
12382TIP3   OH258560   1.606   1.597  16.291  0.6646 -0.3864 -0.0696
12382TIP3    H158561   1.633   1.670  16.236  2.8531 -0.1016  1.2592
12382TIP3    H258562   1.637   1.620  16.379 -0.9646 -1.7103  0.9251
12383TIP3   OH258563   1.670   3.764   2.358  0.2372 -0.2827 -0.4407
12383TIP3    H158564   1.686   3.796   2.446  0.2300 -1.3727 -0.0233
12383TIP3    H258565   1.580   3.791   2.338  1.0524  2.1344 -1.1183
12384TIP3   OH258566   2.352   1.610   2.503  0.2521 -0.2523  0.2836
12384TIP3    H158567   2.335   1.677   2.569 -0.5863  0.3985 -0.5695
12384TIP3    H258568   2.362   1.529   2.553  0.2942  0.3360  1.2531
12385TIP3   OH258569   3.512   5.244   1.724  0.2164 -0.7684  0.0681
12385TIP3    H158570   3.483   5.156   1.702  0.3745 -0.6017 -0.8380
12385TIP3    H258571   3.596   5.254   1.679  1.4929 -1.0591  2.2157
12386TIP3   OH258572   0.128   3.174   2.927  0.6470  0.5919  0.2459
12386TIP3    H158573   0.177   3.146   3.004  0.6193 -0.6357 -0.1723
12386TIP3    H258574   0.082   3.253   2.956  1.2800  0.6191  1.2348
12387TIP3   OH258575   1.308   0.401   0.472 -0.3291 -0.0412 -0.2908
12387TIP3    H158576   1.282   0.333   0.534 -0.3173  1.2235  1.1655
12387TIP3    H258577   1.283   0.483   0.515  0.1597  0.9078 -1.7467
12388TIP3   OH258578   6.361   0.175  11.104  0.3577 -0.1841  0.4439
12388TIP3    H158579   6.406   0.260  11.104  0.0850 -0.0295 -0.5797
12388TIP3    H258580   6.350   0.154  11.012 -0.8098 -0.6927  0.6888
12389TIP3   OH258581   1.732   5.945  14.604 -0.1559  0.3308  0.2131
12389TIP3    H158582   1.664   5.884  14.575 -0.6591  0.5049  0.9917
12389TIP3    H258583   1.787   5.892  14.662 -1.2784  0.8669  1.8508
12390TIP3   OH258584   0.047   3.366  11.512 -0.3877  0.1228  0.2253
12390TIP3    H158585   0.116   3.418  11.469 -0.8213  0.0087 -0.6306
12390TIP3    H258586   0.077   3.275  11.503 -0.2317  0.1321  0.6273
12391TIP3   OH258587   5.469   3.738  13.599  0.0786 -0.3399 -0.0469
12391TIP3    H158588   5.481   3.782  13.683  0.8602  0.5099 -0.5853
12391TIP3    H258589   5.397   3.677  13.614  0.1722 -0.1618  1.2191
12392TIP3   OH258590   2.731   1.656  12.220  0.3802  0.0076  0.1304
12392TIP3    H158591   2.822   1.674  12.245  0.4520 -0.6572  0.3494
12392TIP3    H258592   2.711   1.572  12.260 -1.1727  1.3105  2.3255
12393TIP3   OH258593   5.072   5.534   6.232  0.1008 -0.2821 -0.6295
12393TIP3    H158594   5.157   5.578   6.232  0.8175 -1.6316 -0.7619
12393TIP3    H258595   5.088   5.450   6.275 -1.0996 -0.6846 -0.9342
12394TIP3   OH258596   4.580   2.225   2.912  0.9450  0.6552 -0.2242
12394TIP3    H158597   4.571   2.141   2.956 -0.9045  0.0452 -1.6240
12394TIP3    H258598   4.548   2.289   2.976  1.7231  0.2455  0.5997
12395TIP3   OH258599   3.149   2.323  16.711 -0.3832  0.0260  0.2012
12395TIP3    H158600   3.197   2.303  16.630 -0.6581  0.2425 -0.0166
12395TIP3    H258601   3.137   2.418  16.708 -1.1969 -0.0812  0.0474
12396TIP3   OH258602   0.576   2.763  12.591 -0.7095  0.1109  0.1946
12396TIP3    H158603   0.519   2.802  12.657  2.0119 -0.9237  3.4705
12396TIP3    H258604   0.567   2.669  12.605 -0.1594 -0.1400 -1.0275
12397TIP3   OH258605   2.822   4.219   4.155  0.2934 -0.5076 -0.3090
12397TIP3    H158606   2.810   4.309   4.125 -0.1218 -0.1820  0.8213
12397TIP3    H258607   2.838   4.169   4.074 -4.0564 -0.2430 -1.5739
12398TIP3   OH258608   5.684   5.428  16.405 -0.2197 -0.4327 -0.1045
12398TIP3    H158609   5.746   5.495  16.375 -0.8954 -0.3804 -1.4934
12398TIP3    H258610   5.601   5.452  16.363 -1.1980 -0.5422  1.6547
12399TIP3   OH258611   0.415   1.943  14.760 -0.3605 -0.0564 -0.2908
12399TIP3    H158612   0.332   1.990  14.750  0.6252  2.0571  0.6536
12399TIP3    H258613   0.411   1.903  14.847 -1.1770 -1.7567 -1.0719
12400TIP3   OH258614   0.527   6.691   3.324 -0.3337 -0.5943  0.1088
12400TIP3    H158615   0.623   6.691   3.333 -0.3361  0.1817  0.2331
12400TIP3    H258616   0.495   6.701   3.414 -0.4840  1.1157 -0.1045
12401TIP3   OH258617   4.402   1.325   1.594  0.0214 -0.5880 -0.2441
12401TIP3    H158618   4.316   1.284   1.602 -0.2928  0.0629 -0.1604
12401TIP3    H258619   4.391   1.388   1.522  0.2459 -0.0717  0.1680
12402TIP3   OH258620   3.215   1.083  13.085  0.7244  0.3858 -0.7616
12402TIP3    H158621   3.288   1.139  13.109  1.2479 -0.5374 -0.1487
12402TIP3    H258622   3.221   1.008  13.145 -0.8998  0.4393 -0.4877
12403TIP3   OH258623   6.453   1.150  10.670 -0.6327  0.2199  0.0562
12403TIP3    H158624   6.451   1.093  10.593 -1.1072  0.2686  0.0331
12403TIP3    H258625   6.366   1.143  10.708  0.5177 -2.5255  2.5964
12404TIP3   OH258626   5.189   6.202   2.678  0.1542  0.0622  0.0301
12404TIP3    H158627   5.184   6.280   2.734  0.5023  0.0768  0.0452
12404TIP3    H258628   5.185   6.129   2.740  1.2754  0.0806  0.1578
12405TIP3   OH258629   6.769   4.212  15.084 -0.9491 -0.1811 -0.4911
12405TIP3    H158630   6.844   4.154  15.085 -0.0326  0.9523 -0.7560
12405TIP3    H258631   6.700   4.163  15.128  0.1246 -1.0078  0.3262
12406TIP3   OH258632   0.866   1.135   4.788 -0.0845 -0.4185 -0.2818
12406TIP3    H158633   0.895   1.056   4.833  2.8898  0.5758 -0.2244
12406TIP3    H258634   0.811   1.180   4.852  2.2836 -0.0843  1.6750
12407TIP3   OH258635   2.432   5.709   2.830  0.1022 -0.0004  0.2131
12407TIP3    H158636   2.430   5.694   2.924 -3.3738 -3.4489 -0.1681
12407TIP3    H258637   2.342   5.735   2.808  0.3599 -0.9727 -2.3152
12408TIP3   OH258638   3.465   6.324   2.739 -0.0603  0.2420 -0.1374
12408TIP3    H158639   3.387   6.375   2.715  0.2225  0.0280 -1.6023
12408TIP3    H258640   3.538   6.383   2.722  0.1084  0.8319  2.2544
12409TIP3   OH258641   4.016   5.026   0.969 -0.2318 -0.1278 -0.4673
12409TIP3    H158642   3.947   5.071   1.019 -0.3806 -0.2427 -0.5694
12409TIP3    H258643   4.052   5.093   0.912  0.7612  0.3265  0.6370
12410TIP3   OH258644   0.610   6.446  13.929 -0.0760 -0.1846  0.2600
12410TIP3    H158645   0.696   6.415  13.901 -0.4800 -1.6945  0.5863
12410TIP3    H258646   0.550   6.411  13.864 -0.6858 -1.2312  1.3269
12411TIP3   OH258647   4.904   5.987   1.593 -0.4943  0.2389 -0.6152
12411TIP3    H158648   4.943   5.956   1.511  0.8423 -1.5169  0.5935
12411TIP3    H258649   4.954   5.942   1.662 -1.1075  2.1631  1.2015
12412TIP3   OH258650   5.755   1.431   1.459 -0.0049 -0.3428  0.2392
12412TIP3    H158651   5.839   1.388   1.477  0.7261  1.1785  0.6289
12412TIP3    H258652   5.772   1.487   1.384 -0.1136  1.4190  1.4654
12413TIP3   OH258653   1.506   4.730  16.126 -0.9118  0.4517 -0.2652
12413TIP3    H158654   1.422   4.708  16.166  0.3861 -2.1812  1.2986
12413TIP3    H258655   1.531   4.650  16.079  1.6547  0.2986  1.1587
12414TIP3   OH258656   5.242   5.559   0.109  0.5171  0.1473 -0.3101
12414TIP3    H158657   5.336   5.573   0.108  0.3367  1.6720  0.0748
12414TIP3    H258658   5.218   5.563   0.202 -0.0084  0.6228 -0.4545
12415TIP3   OH258659   1.923   5.536   2.164 -0.2124 -0.3315  0.4063
12415TIP3    H158660   1.901   5.589   2.241 -0.7901  0.6478 -0.4028
12415TIP3    H258661   1.847   5.479   2.151  0.2816 -1.1757  1.0964
12416TIP3   OH258662   6.791   3.015  12.464  0.4888 -0.4730 -0.2539
12416TIP3    H158663   6.873   3.032  12.510 -0.3979  1.3893  0.7405
12416TIP3    H258664   6.766   3.099  12.425 -0.0688 -1.4128 -2.0812
12417TIP3   OH258665   1.065   5.786   2.107 -0.3842 -0.0012 -0.3594
12417TIP3    H158666   1.158   5.809   2.103 -0.3571 -0.2281 -1.2697
12417TIP3    H258667   1.019   5.868   2.088 -0.3701  0.1028  0.0539
12418TIP3   OH258668   1.164   3.341  12.822  0.0775 -0.3106  0.3148
12418TIP3    H158669   1.179   3.388  12.740  0.0538 -0.4759  0.2169
12418TIP3    H258670   1.121   3.260  12.796 -0.9284  0.1244  0.5883
12419TIP3   OH258671   2.254   1.356   2.206  0.1391  0.0084 -0.3057
12419TIP3    H158672   2.304   1.395   2.278  2.0644 -2.4407 -0.1927
12419TIP3    H258673   2.279   1.407   2.129  0.0687  1.0142  0.3217
12420TIP3   OH258674   0.875   4.999   5.183  0.7738 -0.2394 -0.2361
12420TIP3    H158675   0.864   5.000   5.278  1.5126  1.2175 -0.1299
12420TIP3    H258676   0.968   4.983   5.169  0.9414  0.9310 -0.6388
12421TIP3   OH258677   4.884   4.694  11.116 -0.2965 -0.0285  0.2897
12421TIP3    H158678   4.885   4.648  11.033  0.8785 -0.9550  0.7837
12421TIP3    H258679   4.851   4.629  11.179  0.4997  0.0800  0.8371
12422TIP3   OH258680   1.044   5.628  15.897 -0.0947  0.0300  0.2173
12422TIP3    H158681   1.023   5.677  15.977  0.6588  1.4131 -0.3887
12422TIP3    H258682   0.965   5.634  15.844 -0.8024 -1.3812  1.0628
12423TIP3   OH258683   2.726   4.552   0.284 -0.0614 -0.2697 -0.3289
12423TIP3    H158684   2.745   4.508   0.202  1.5296  0.2186 -0.2538
12423TIP3    H258685   2.633   4.534   0.301 -0.1754 -1.1063 -1.7657
12424TIP3   OH258686   3.792   2.996  14.828  0.1730  0.2508  0.2578
12424TIP3    H158687   3.863   2.940  14.796 -0.6609 -0.3759 -0.5554
12424TIP3    H258688   3.833   3.081  14.843  0.7486  0.4211 -1.9609
12425TIP3   OH258689   1.488   1.535   1.654  0.8241  0.1153  0.4004
12425TIP3    H158690   1.393   1.522   1.657  0.5481  1.5260 -0.8787
12425TIP3    H258691   1.525   1.447   1.660 -0.6508 -0.6893 -1.4711
12426TIP3   OH258692   5.794   2.343   0.981  0.7728  0.2328 -0.3598
12426TIP3    H158693   5.748   2.417   1.021 -0.2683 -0.6443  0.1151
12426TIP3    H258694   5.802   2.279   1.051  2.2155  0.1222 -0.6077
12427TIP3   OH258695   0.823   3.724   4.069  0.0756  0.0705 -0.0469
12427TIP3    H158696   0.899   3.679   4.031 -0.5652  0.6502 -2.2103
12427TIP3    H258697   0.783   3.659   4.127  1.3544 -0.7657 -0.0549
12428TIP3   OH258698   0.244   2.788  15.979  0.0956  0.3045  0.7765
12428TIP3    H158699   0.310   2.855  16.001 -0.0551  0.6888  0.0771
12428TIP3    H258700   0.165   2.817  16.025 -0.4051  1.4669 -0.7192
12429TIP3   OH258701   4.964   4.769   0.930  0.2597  0.6451  0.5383
12429TIP3    H158702   5.013   4.688   0.920  0.0114  0.6292 -0.5934
12429TIP3    H258703   4.956   4.780   1.025  0.4357 -0.5600  0.7053
12430TIP3   OH258704   3.663   5.279  14.708 -0.0327 -0.2790 -0.7096
12430TIP3    H158705   3.676   5.345  14.777 -0.9079 -1.5726  0.7790
12430TIP3    H258706   3.699   5.199  14.746 -1.0633 -1.1536 -1.5344
12431TIP3   OH258707   0.940   2.849  14.220  0.3944  0.1634  0.4364
12431TIP3    H158708   1.026   2.808  14.233  0.1788 -0.2074  0.7153
12431TIP3    H258709   0.938   2.922  14.282  0.8058  0.6428 -0.1058
12432TIP3   OH258710   2.058   4.640  16.490  0.2949 -0.3920  0.1549
12432TIP3    H158711   2.143   4.610  16.459 -0.3006 -2.6092  0.4867
12432TIP3    H258712   2.079   4.700  16.562  1.5811 -0.2556 -0.3110
12433TIP3   OH258713   3.884   6.791   4.976 -0.0780 -0.1958  0.2600
12433TIP3    H158714   3.899   6.820   4.886 -2.3098  1.1208  0.2287
12433TIP3    H258715   3.805   6.838   5.003  0.4132 -0.7277  2.8556
12434TIP3   OH258716   2.064   4.826   5.009  0.4497 -0.3792 -0.1342
12434TIP3    H158717   2.116   4.829   4.929  0.9014  0.4947  0.1936
12434TIP3    H258718   2.103   4.755   5.060  0.6374 -0.4348 -0.3526
12435TIP3   OH258719   1.218   5.522   3.481 -0.2732  0.0503  0.0736
12435TIP3    H158720   1.138   5.501   3.433 -0.0587 -0.0867 -0.2328
12435TIP3    H258721   1.280   5.452   3.456  0.3412  0.8409 -0.7001
12436TIP3   OH258722   2.047   4.816  14.849 -0.2160  0.2887 -0.1718
12436TIP3    H158723   1.971   4.835  14.905  1.5106  0.6805  2.2315
12436TIP3    H258724   2.122   4.832  14.906  1.6802 -4.0912 -1.0371
12437TIP3   OH258725   3.073   0.603   4.729 -0.5648 -0.5664  0.2522
12437TIP3    H158726   3.069   0.526   4.671 -3.0910 -0.6505  0.4209
12437TIP3    H258727   3.111   0.569   4.810  0.5612 -1.0532 -0.4489
12438TIP3   OH258728   2.937   6.405   2.780 -0.2540 -0.1618 -0.3251
12438TIP3    H158729   3.029   6.380   2.783 -0.6564 -2.2843 -2.4109
12438TIP3    H258730   2.892   6.340   2.834 -0.4372  2.0797  2.4488
12439TIP3   OH258731   0.429   0.614  16.663 -0.2357 -0.1822  0.1676
12439TIP3    H158732   0.340   0.649  16.668  0.6582  2.6862 -1.5909
12439TIP3    H258733   0.476   0.656  16.736  0.0528 -0.4449  0.1379
12440TIP3   OH258734   3.488   4.253  16.742 -0.2587  0.3969 -0.0052
12440TIP3    H158735   3.435   4.288  16.813  0.9012  0.4052  0.8839
12440TIP3    H258736   3.570   4.302  16.746  0.3519 -0.5467 -0.4657
12441TIP3   OH258737   3.564   1.321   1.337  0.2298 -0.0082 -0.3233
12441TIP3    H158738   3.598   1.404   1.305  0.9855  0.0881  0.6871
12441TIP3    H258739   3.486   1.345   1.388  0.6842  0.1299  0.3136
12442TIP3   OH258740   6.063   0.821  15.630 -0.6611  0.2351  0.2104
12442TIP3    H158741   6.128   0.863  15.687 -1.5581  2.0523 -0.0447
12442TIP3    H258742   6.061   0.876  15.552 -1.3328 -0.7436 -0.4770
12443TIP3   OH258743   6.759   2.006   2.423  0.3813  0.2619  0.1613
12443TIP3    H158744   6.833   2.061   2.448  0.3435 -0.7527  2.7394
12443TIP3    H258745   6.688   2.034   2.481 -1.1971  0.9027 -1.9463
12444TIP3   OH258746   2.476   0.391  16.738  0.4903  0.8934  0.0845
12444TIP3    H158747   2.388   0.426  16.724  0.3509  1.0407  1.1926
12444TIP3    H258748   2.498   0.347  16.656 -0.4999  1.1051 -0.3093
12445TIP3   OH258749   2.163   0.678   5.380  0.2777 -0.5390  0.2859
12445TIP3    H158750   2.244   0.630   5.398  1.3505  1.2085  0.3293
12445TIP3    H258751   2.191   0.758   5.336 -1.4861 -0.1206 -0.1924
12446TIP3   OH258752   1.162   3.883  16.606  0.2151  0.2106  0.8276
12446TIP3    H158753   1.117   3.912  16.526  1.2775 -1.6026 -0.5172
12446TIP3    H258754   1.106   3.914  16.677 -2.9089 -1.3678 -0.7151
12447TIP3   OH258755   6.330   6.155  13.093  0.0992 -0.5416  0.1363
12447TIP3    H158756   6.399   6.094  13.069  0.2481 -1.3251  2.3461
12447TIP3    H258757   6.296   6.122  13.176 -0.0722  2.1455  1.2352
12448TIP3   OH258758   6.019   3.603  11.369  0.2462 -0.2418 -0.7285
12448TIP3    H158759   5.945   3.663  11.359  0.1467  0.1547  1.7808
12448TIP3    H258760   6.014   3.546  11.292 -2.2848  0.1674 -0.9525
12449TIP3   OH258761   6.105   4.548  12.314 -0.4456 -0.1675  0.0581
12449TIP3    H158762   6.012   4.570  12.326  0.0489  2.1264  0.2320
12449TIP3    H258763   6.138   4.533  12.402 -0.2235  1.1847  0.2358
12450TIP3   OH258764   4.392   3.175  16.165  0.1584  0.2070 -0.4252
12450TIP3    H158765   4.334   3.148  16.236 -0.1159  1.1610 -0.2776
12450TIP3    H258766   4.400   3.097  16.110  0.0154 -0.4083  0.4081
12451TIP3   OH258767   2.489   5.392  11.929  0.0576  0.4209  0.3647
12451TIP3    H158768   2.416   5.428  11.878 -0.5396 -0.8525  0.2821
12451TIP3    H258769   2.530   5.468  11.969 -1.5779  1.1332  0.7540
12452TIP3   OH258770   6.330   6.149   2.912  0.0971 -0.0730 -0.3168
12452TIP3    H158771   6.377   6.074   2.876  0.0886  1.0897 -2.9365
12452TIP3    H258772   6.399   6.206   2.946  0.3173 -0.0242 -0.8387
12453TIP3   OH258773   0.109   6.789   1.149  0.8653 -0.0085 -0.0898
12453TIP3    H158774   0.019   6.820   1.148  1.1229  1.0271  2.5093
12453TIP3    H258775   0.151   6.838   1.078  0.0747  1.9299  0.6856
12454TIP3   OH258776   4.247   5.303  13.845 -0.5020 -0.0605  0.0476
12454TIP3    H158777   4.241   5.356  13.924  1.0823 -0.4126  0.4442
12454TIP3    H258778   4.267   5.366  13.775  0.1476  0.0205  0.2992
12455TIP3   OH258779   5.601   0.135  13.982 -0.2503  0.2546  0.2315
12455TIP3    H158780   5.549   0.113  13.904 -2.3255 -1.5084  1.9830
12455TIP3    H258781   5.596   0.231  13.986 -1.0822  0.3135 -1.1689
12456TIP3   OH258782   1.740   6.501   1.264  0.2250 -0.1716 -0.1518
12456TIP3    H158783   1.710   6.425   1.215 -0.0573 -0.0357 -0.1956
12456TIP3    H258784   1.795   6.466   1.334  0.3682 -0.3890 -0.3741
12457TIP3   OH258785   3.620   5.374  13.148  0.1916  0.1048  0.2896
12457TIP3    H158786   3.687   5.401  13.211  0.6834  2.2956 -1.0589
12457TIP3    H258787   3.669   5.331  13.078  0.0136  0.3301  0.0231
12458TIP3   OH258788   4.551   2.711   4.971 -0.4392  0.1331  0.2719
12458TIP3    H158789   4.482   2.722   5.037 -0.2640  0.1235  0.4563
12458TIP3    H258790   4.523   2.635   4.920 -0.4647  0.0091  0.4712
12459TIP3   OH258791   0.499   1.717  13.255 -0.1694  0.1762 -1.0840
12459TIP3    H158792   0.409   1.744  13.237  0.1414  2.6810  0.6391
12459TIP3    H258793   0.547   1.799  13.265  1.4699 -1.0047  1.9572
12460TIP3   OH258794   4.553   1.628  11.693  0.3787  0.7606  0.4315
12460TIP3    H158795   4.546   1.551  11.637  1.4950 -0.3769  1.7844
12460TIP3    H258796   4.627   1.677  11.657  2.2552 -0.8595  1.8117
12461TIP3   OH258797   0.196   5.674  14.381 -0.0558  0.0632 -0.0122
12461TIP3    H158798   0.222   5.699  14.293  1.1055  0.1895  0.3489
12461TIP3    H258799   0.243   5.735  14.438 -0.0597 -0.6101  0.7258
12462TIP3   OH258800   5.891   6.518  16.949 -0.0666  0.3871 -0.2668
12462TIP3    H158801   5.956   6.586  16.964  1.5725 -1.2337  0.3098
12462TIP3    H258802   5.830   6.556  16.886  1.7049  1.7983 -1.1952
12463TIP3   OH258803   2.021   3.462   4.862  0.3654 -0.1047  0.1408
12463TIP3    H158804   2.002   3.434   4.773  0.6611  1.3559 -0.4235
12463TIP3    H258805   2.087   3.401   4.894 -1.3361 -2.0282  0.2242
12464TIP3   OH258806   2.786   0.905  12.529  0.6437  0.1205 -0.8197
12464TIP3    H158807   2.873   0.873  12.552  0.9059  1.1281 -0.3430
12464TIP3    H258808   2.738   0.827  12.500  1.1261 -0.7498  0.6478
12465TIP3   OH258809   1.429   0.880   4.371  0.4585 -0.5313 -0.0940
12465TIP3    H158810   1.497   0.844   4.427  0.5133 -1.0579 -0.4929
12465TIP3    H258811   1.368   0.923   4.432  1.0892 -0.1443  0.2687
12466TIP3   OH258812   3.407   5.245   6.191 -0.2345 -0.2386 -0.1284
12466TIP3    H158813   3.358   5.165   6.171 -1.2238  0.0263  1.1504
12466TIP3    H258814   3.460   5.223   6.267  0.6561 -0.1124 -0.6933
12467TIP3   OH258815   4.584   3.956  15.665 -0.5682  0.6080 -0.3750
12467TIP3    H158816   4.563   3.866  15.693 -1.2738  0.5023 -1.2081
12467TIP3    H258817   4.535   3.968  15.584 -1.1709  2.0611  0.1753
12468TIP3   OH258818   6.399   4.528   2.585 -0.4336 -0.1842  0.2675
12468TIP3    H158819   6.392   4.432   2.579 -0.3163 -0.1272 -0.8964
12468TIP3    H258820   6.331   4.560   2.526 -0.7228  0.4691  0.9358
12469TIP3   OH258821   6.459   1.249   3.515 -0.0341 -0.1467  0.0820
12469TIP3    H158822   6.467   1.155   3.503  1.6450 -0.1411  0.8957
12469TIP3    H258823   6.394   1.258   3.585  1.4494 -0.8420  1.6158
12470TIP3   OH258824   3.441   0.893   4.147  0.3589 -0.0164 -0.1012
12470TIP3    H158825   3.436   0.929   4.059  0.1236 -0.1661 -0.1489
12470TIP3    H258826   3.353   0.903   4.183  0.9874  2.2432  1.0032
12471TIP3   OH258827   5.805   1.807   3.352 -0.8754  0.8369  0.6823
12471TIP3    H158828   5.883   1.816   3.406  0.4187 -1.4062 -0.6623
12471TIP3    H258829   5.827   1.852   3.270  0.0306 -1.6823 -0.5766
12472TIP3   OH258830   4.172   4.538  11.481 -0.1510 -0.0591 -0.4883
12472TIP3    H158831   4.246   4.574  11.433 -1.2772  0.8946 -1.5670
12472TIP3    H258832   4.116   4.499  11.414 -1.2153  0.3088  0.1561
12473TIP3   OH258833   0.648   2.215  15.696 -0.3870  0.2137  0.1068
12473TIP3    H158834   0.738   2.241  15.714  0.1716 -1.3367 -0.2376
12473TIP3    H258835   0.636   2.134  15.745 -1.0171 -0.5030 -1.1581
12474TIP3   OH258836   0.380   6.439   5.917  0.0955  0.4305 -0.2047
12474TIP3    H158837   0.306   6.500   5.922  1.2851  1.8111  1.8585
12474TIP3    H258838   0.457   6.495   5.912  1.0774 -0.9820 -2.7098
12475TIP3   OH258839   3.514   5.759  16.238  0.1935  0.3152 -0.0081
12475TIP3    H158840   3.523   5.853  16.255  0.3333  0.0361  1.5352
12475TIP3    H258841   3.458   5.755  16.160 -0.5075  1.6609  0.3856
12476TIP3   OH258842   2.932   5.021  11.347  0.8236 -0.5074  0.3704
12476TIP3    H158843   2.958   4.942  11.395 -0.4525 -0.7617  0.6876
12476TIP3    H258844   3.002   5.035  11.284  1.2510 -1.6882  0.5601
12477TIP3   OH258845   2.961   4.278  16.351 -0.4655  0.3676 -0.2340
12477TIP3    H158846   2.897   4.211  16.375  0.0999  0.0437  0.4478
12477TIP3    H258847   2.911   4.347  16.308 -1.3733  0.4158  0.8538
12478TIP3   OH258848   2.055   1.087   4.622  0.4293 -0.1375  0.3790
12478TIP3    H158849   2.138   1.085   4.670  0.8345 -1.0757 -0.3371
12478TIP3    H258850   2.072   1.037   4.543 -0.6699  0.1368 -0.0450
12479TIP3   OH258851   6.480   5.818   2.133 -0.1880 -0.5467 -0.0311
12479TIP3    H158852   6.413   5.749   2.135  0.5405 -1.2803 -0.3220
12479TIP3    H258853   6.437   5.892   2.090 -0.7470 -1.0854 -0.4213
12480TIP3   OH258854   2.078   2.326  12.730 -0.5053  0.6385  0.2326
12480TIP3    H158855   2.106   2.328  12.638 -0.1313  1.0193  0.3485
12480TIP3    H258856   2.154   2.359  12.778 -0.6570  0.3228  0.6908
12481TIP3   OH258857   0.264   5.769  15.273 -0.4552  0.2085  0.3121
12481TIP3    H158858   0.325   5.755  15.200 -0.4017  0.0815  0.3809
12481TIP3    H258859   0.312   5.823  15.335 -0.2170 -0.3499  0.6181
12482TIP3   OH258860   3.893   4.968  11.581  0.4049  0.2205  0.1835
12482TIP3    H158861   3.899   5.040  11.518  0.3053 -1.6300 -2.0882
12482TIP3    H258862   3.835   5.001  11.649 -0.2526  2.0292 -1.1585
12483TIP3   OH258863   6.645   4.316   5.576  0.2657  0.1408  0.9958
12483TIP3    H158864   6.611   4.374   5.508 -0.0997  0.5944  1.5528
12483TIP3    H258865   6.643   4.229   5.538  0.2354  0.4144  0.3669
12484TIP3   OH258866   4.021   1.863  13.776 -0.7049 -0.0196 -0.1941
12484TIP3    H158867   3.958   1.885  13.844  0.2136 -1.0432  1.0529
12484TIP3    H258868   4.103   1.848  13.824  0.4232  0.9807 -1.7167
12485TIP3   OH258869   3.813   1.225   5.249 -0.5148  0.9655 -0.0865
12485TIP3    H158870   3.747   1.262   5.190  1.0697  0.8564 -2.0204
12485TIP3    H258871   3.864   1.301   5.277 -0.4555  0.8583  0.0936
12486TIP3   OH258872   5.815   3.542   3.652  0.4408 -0.4011 -0.5002
12486TIP3    H158873   5.770   3.567   3.572 -0.1582  0.5706  0.1193
12486TIP3    H258874   5.906   3.531   3.626  0.6871  2.0701 -0.9306
12487TIP3   OH258875   1.421   1.396   1.362  0.6005 -0.0036 -0.1895
12487TIP3    H158876   1.491   1.456   1.389  0.6897 -0.5808  0.9288
12487TIP3    H258877   1.464   1.335   1.301  0.7581  0.4349 -0.5180
12488TIP3   OH258878   2.302   4.174  11.382 -0.1239 -0.4114 -0.0096
12488TIP3    H158879   2.208   4.187  11.399  0.0666  1.0055  0.0063
12488TIP3    H258880   2.346   4.227  11.448  0.7100 -1.3300  0.1961
12489TIP3   OH258881   5.160   3.755   3.220  0.4798 -0.1305 -0.6820
12489TIP3    H158882   5.121   3.831   3.263  0.7802 -0.1058 -0.4427
12489TIP3    H258883   5.126   3.680   3.268  1.3860 -0.0686  0.0874
12490TIP3   OH258884   5.206   1.279  12.954  0.2631 -0.9086 -0.5312
12490TIP3    H158885   5.198   1.365  12.997  0.1817 -0.8508 -0.6610
12490TIP3    H258886   5.296   1.252  12.971 -0.4942 -2.1574  2.0630
12491TIP3   OH258887   2.484   2.037   2.168  0.4317 -0.5517  0.0102
12491TIP3    H158888   2.422   2.097   2.209 -0.5217 -0.0030 -2.0892
12491TIP3    H258889   2.569   2.078   2.181 -0.1479  1.0531 -0.9620
12492TIP3   OH258890   5.863   0.918   0.386 -0.1522  0.0907  0.0316
12492TIP3    H158891   5.863   0.848   0.451 -1.5708  0.3194  0.3130
12492TIP3    H258892   5.918   0.986   0.424  2.1422 -1.2225 -0.7099
12493TIP3   OH258893   4.136   2.536   5.187  0.0054  0.2102 -0.0207
12493TIP3    H158894   4.059   2.534   5.243  1.0690 -0.1075  1.5143
12493TIP3    H258895   4.203   2.488   5.237  1.2721  0.7016 -1.1727
12494TIP3   OH258896   5.432   3.431  12.408 -0.2620 -0.3400 -0.1851
12494TIP3    H158897   5.409   3.347  12.369 -1.9155  0.0590 -0.1565
12494TIP3    H258898   5.518   3.417  12.449  0.6180 -1.3055 -2.2515
12495TIP3   OH258899   0.579   6.310   2.489  0.1857  0.1247  0.0032
12495TIP3    H158900   0.518   6.268   2.429  1.0695  0.0192 -0.8347
12495TIP3    H258901   0.657   6.255   2.488  1.1917  1.5049 -0.7622
12496TIP3   OH258902   5.146   0.565   5.138 -0.2838  0.0941  0.0337
12496TIP3    H158903   5.146   0.480   5.094 -1.2669  0.5566 -0.8848
12496TIP3    H258904   5.188   0.547   5.223  0.1445 -1.1528 -0.4139
12497TIP3   OH258905   3.947   3.045  15.498  0.1378 -0.2025 -0.6291
12497TIP3    H158906   4.012   3.070  15.432  1.6842 -1.9173  0.1700
12497TIP3    H258907   3.933   3.125  15.549  3.0429 -0.1987  0.3051
12498TIP3   OH258908   3.858   5.824   2.754 -0.2266  0.0404 -0.2717
12498TIP3    H158909   3.801   5.899   2.770 -1.3128 -1.0806  1.5026
12498TIP3    H258910   3.932   5.836   2.814  0.3899  0.4395 -1.0890
12499TIP3   OH258911   2.534   3.425  13.529  0.0185  0.2887 -0.6625
12499TIP3    H158912   2.479   3.408  13.606  1.0344 -0.1875 -0.0205
12499TIP3    H258913   2.542   3.340  13.486  2.6172 -0.3429  0.8774
12500TIP3   OH258914   4.853   4.403   3.577  0.5510  0.1084 -0.4825
12500TIP3    H158915   4.855   4.314   3.542 -0.2059 -1.1869  2.4366
12500TIP3    H258916   4.760   4.422   3.590  0.7827  0.5141  0.7350
12501TIP3   OH258917   1.421   0.690  13.446  0.5246  0.6974 -0.1105
12501TIP3    H158918   1.356   0.625  13.419  0.2354  0.9204  0.0458
12501TIP3    H258919   1.495   0.675  13.387 -0.4047  1.7193 -1.5848
12502TIP3   OH258920   4.217   1.500  12.808 -0.2841  0.2654 -0.6992
12502TIP3    H158921   4.128   1.503  12.843 -0.0754 -0.5422 -0.0665
12502TIP3    H258922   4.205   1.479  12.715 -0.8237  2.0587 -1.0798
12503TIP3   OH258923   3.048   5.638   3.687 -0.4043  0.4777  0.1315
12503TIP3    H158924   3.097   5.720   3.695 -0.1214  0.4212 -0.9275
12503TIP3    H258925   3.011   5.624   3.774 -2.1301  2.7587 -0.1593
12504TIP3   OH258926   0.740   4.223  14.659 -0.8556  0.0008  0.0123
12504TIP3    H158927   0.734   4.300  14.603  0.5619 -1.3765 -2.1533
12504TIP3    H258928   0.698   4.153  14.608 -1.6376 -0.8207  1.7015
12505TIP3   OH258929   6.513   4.560  13.966 -0.4867 -0.3548 -0.0987
12505TIP3    H158930   6.480   4.641  14.006  2.4882 -0.0268  2.0793
12505TIP3    H258931   6.548   4.588  13.882 -0.8940  0.2997 -0.0630
12506TIP3   OH258932   0.906   3.954  12.567 -0.2542  0.0027 -0.4345
12506TIP3    H158933   0.884   4.037  12.524 -0.9701  0.9828  1.6834
12506TIP3    H258934   0.822   3.908  12.576  0.2375 -1.4072 -2.3333
12507TIP3   OH258935   3.162   2.748   3.194  0.1938 -0.3587  0.2261
12507TIP3    H158936   3.079   2.763   3.149  0.1341 -0.3241  0.3476
12507TIP3    H258937   3.151   2.791   3.279  0.5736  0.2169 -0.0094
12508TIP3   OH258938   3.124   1.938   2.472 -0.3804 -1.1547  0.2870
12508TIP3    H158939   3.066   2.008   2.442  0.1264  0.3237  2.4910
12508TIP3    H258940   3.175   1.978   2.542  1.4889 -3.1516  0.1571
12509TIP3   OH258941   5.535   3.390   0.665  0.1640 -0.2709  0.3962
12509TIP3    H158942   5.488   3.376   0.747  0.2764 -0.3184  0.4539
12509TIP3    H258943   5.473   3.364   0.597  0.3057 -0.8987  0.4969
12510TIP3   OH258944   1.259   0.391  15.305 -0.0280 -0.6328 -0.4652
12510TIP3    H158945   1.274   0.485  15.308  3.1124 -0.9756 -1.8519
12510TIP3    H258946   1.253   0.370  15.211  4.1250 -2.2751 -0.5708
12511TIP3   OH258947   4.144   0.867  16.121 -0.5261  0.1797 -0.2730
12511TIP3    H158948   4.238   0.881  16.125 -0.8862  3.5124 -0.4826
12511TIP3    H258949   4.131   0.814  16.042  1.1280 -0.1289 -0.3732
12512TIP3   OH258950   6.618   4.271  10.824  0.1372  0.0413 -0.1714
12512TIP3    H158951   6.575   4.266  10.738 -1.1364  1.6444  0.3134
12512TIP3    H258952   6.546   4.287  10.885  1.2402  0.9600  0.9281
12513TIP3   OH258953   6.346   4.704   3.048  0.1622  0.3262 -0.3137
12513TIP3    H158954   6.280   4.685   3.114  0.1369 -1.0786 -0.7056
12513TIP3    H258955   6.355   4.799   3.049 -1.9512  0.5669 -0.3266
12514TIP3   OH258956   6.055   0.767   4.975 -0.3710 -0.2325  0.1049
12514TIP3    H158957   6.081   0.676   4.957 -0.2031 -0.0301 -0.7269
12514TIP3    H258958   6.021   0.765   5.064  2.3346 -0.5443  1.2170
12515TIP3   OH258959   1.501   6.667   1.146 -0.0559 -0.4271  0.7401
12515TIP3    H158960   1.569   6.609   1.180  0.0414 -0.6303  0.2166
12515TIP3    H258961   1.431   6.608   1.118  0.9299 -0.5195 -1.8384
12516TIP3   OH258962   4.996   1.137   0.984 -0.2740 -0.2087 -0.0716
12516TIP3    H158963   5.030   1.227   0.978 -1.3909  0.1861 -0.7778
12516TIP3    H258964   5.004   1.114   1.077 -1.5753  1.2848  0.4636
12517TIP3   OH258965   1.257   4.547   0.953 -0.0844 -0.2265 -0.0316
12517TIP3    H158966   1.258   4.531   1.047  1.6703  0.7301  0.1439
12517TIP3    H258967   1.188   4.488   0.920 -0.5060 -0.8213  1.7787
12518TIP3   OH258968   1.353   5.913   3.539 -0.1900  0.2456  0.4957
12518TIP3    H158969   1.336   6.004   3.515 -1.2017  0.0467  0.4092
12518TIP3    H258970   1.417   5.883   3.475 -0.0788  0.8079  0.3348
12519TIP3   OH258971   3.773   1.966  13.251 -0.7799 -0.0077  0.0918
12519TIP3    H158972   3.767   2.048  13.203 -2.1296  0.0200  0.2600
12519TIP3    H258973   3.736   1.901  13.191 -1.1603 -0.2178  0.5506
12520TIP3   OH258974   1.447   5.485   5.330 -0.3290 -0.6976  0.2220
12520TIP3    H158975   1.429   5.548   5.260  1.0954 -0.6560 -0.1533
12520TIP3    H258976   1.541   5.470   5.323 -0.3692 -1.5682  1.4133
12521TIP3   OH258977   5.613   5.722   0.883 -0.7524 -0.0600  0.3275
12521TIP3    H158978   5.521   5.707   0.859 -0.1745 -1.2347 -1.3643
12521TIP3    H258979   5.657   5.639   0.862  1.3012  1.5377 -2.2932
12522TIP3   OH258980   5.542   6.000   1.641 -0.3634 -0.0254 -0.0976
12522TIP3    H158981   5.454   6.030   1.664 -0.2305  1.6120 -1.4970
12522TIP3    H258982   5.588   5.992   1.725 -1.8556 -1.0379  0.6609
12523TIP3   OH258983   3.936   6.348  16.203 -0.4918 -0.6810 -0.1966
12523TIP3    H158984   3.897   6.319  16.286  0.1359  1.3281  0.8756
12523TIP3    H258985   4.000   6.415  16.229  2.5738 -2.6881 -1.9951
12524TIP3   OH258986   4.315   6.270  14.877 -0.1129 -0.0723 -0.0602
12524TIP3    H158987   4.285   6.328  14.947  1.6053 -0.9556  1.4950
12524TIP3    H258988   4.274   6.186  14.896  0.6822 -0.4228  0.1455
12525TIP3   OH258989   6.699   6.407   3.005 -0.2351  0.1546 -0.6888
12525TIP3    H158990   6.763   6.465   2.963 -0.0735  1.1688  0.8959
12525TIP3    H258991   6.693   6.332   2.945  0.8446  0.9986 -1.9266
12526TIP3   OH258992   5.314   5.062  15.213 -0.0384  0.2011  0.0717
12526TIP3    H158993   5.389   5.025  15.260 -1.0767 -2.5245 -0.1937
12526TIP3    H258994   5.242   5.057  15.276 -0.3060  1.5146 -0.1166
12527TIP3   OH258995   2.347   6.465  11.683 -0.2245 -0.4740 -0.3004
12527TIP3    H158996   2.316   6.553  11.702 -1.0577 -0.9582  0.6999
12527TIP3    H258997   2.438   6.464  11.712 -0.4085 -0.1304  0.2996
12528TIP3   OH258998   6.530   6.759  15.713 -0.3368  0.7965  0.1192
12528TIP3    H158999   6.465   6.805  15.660 -2.5680 -1.3091  0.8271
12528TIP3    H259000   6.562   6.826  15.775 -2.5642  1.7202  0.3660
12529TIP3   OH259001   5.064   4.754   4.004 -1.3854 -0.3507  0.1438
12529TIP3    H159002   5.027   4.666   3.997  1.2185 -1.6697  1.4375
12529TIP3    H259003   4.991   4.809   4.033 -3.3218 -1.8060 -1.6640
12530TIP3   OH259004   6.375   5.842  11.650 -0.2936 -0.2545  0.2453
12530TIP3    H159005   6.423   5.793  11.583 -1.5632 -0.3411 -0.6267
12530TIP3    H259006   6.421   5.926  11.656 -0.2814 -0.1655 -0.8796
12531TIP3   OH259007   2.278   6.302  12.724  0.4121  0.6164 -0.5541
12531TIP3    H159008   2.264   6.357  12.648 -3.3192 -1.3203 -1.5166
12531TIP3    H259009   2.239   6.351  12.797 -0.8149  0.2838 -0.9653
12532TIP3   OH259010   0.778   2.974  11.856 -0.3327 -0.2609  0.2940
12532TIP3    H159011   0.778   3.021  11.940 -1.1926  0.0241  0.1516
12532TIP3    H259012   0.870   2.964  11.833 -0.0798 -0.5662  1.4005
12533TIP3   OH259013   3.146   5.776  15.991 -0.6053  0.2992  0.3147
12533TIP3    H159014   3.086   5.715  15.948 -0.8626 -0.9323  2.3197
12533TIP3    H259015   3.155   5.848  15.928 -0.5629 -1.5989 -2.0098
12534TIP3   OH259016   1.800   2.826   5.500 -0.2120 -0.3338 -0.3488
12534TIP3    H159017   1.819   2.771   5.576 -1.3994  1.1731  1.1285
12534TIP3    H259018   1.806   2.915   5.533  2.1847  0.5384 -2.8000
12535TIP3   OH259019   1.999   1.771  16.744 -0.5517 -0.0257  0.2090
12535TIP3    H159020   1.964   1.854  16.715  0.8916  0.8247  0.7826
12535TIP3    H259021   2.088   1.791  16.775 -0.6638 -1.5095  1.6806
12536TIP3   OH259022   1.280   2.236  11.307 -0.0286 -0.4829 -0.2384
12536TIP3    H159023   1.333   2.242  11.387 -1.3656  0.5894  0.6114
12536TIP3    H259024   1.274   2.326  11.275 -1.1021 -0.6221 -0.4631
12537TIP3   OH259025   6.421   6.103   0.532  0.8174 -0.4077  0.4477
12537TIP3    H159026   6.435   6.196   0.550 -0.8513  0.3078 -1.5010
12537TIP3    H259027   6.389   6.067   0.614  0.6936  0.9482  1.0158
12538TIP3   OH259028   2.032   5.256   3.937  0.2126 -0.3183 -0.3262
12538TIP3    H159029   2.068   5.312   4.006 -0.5791  0.7892 -0.7881
12538TIP3    H259030   2.071   5.170   3.953  0.3632  0.0178  1.2536
12539TIP3   OH259031   5.633   2.871   4.371 -0.5015 -0.1527  0.3494
12539TIP3    H159032   5.667   2.878   4.461 -0.9008  0.0366  0.4872
12539TIP3    H259033   5.694   2.923   4.319 -0.9048  0.6780  0.6879
12540TIP3   OH259034   0.919   1.945   3.606  0.0119  0.3226  0.3526
12540TIP3    H159035   1.007   1.951   3.568 -0.6092 -0.4134 -1.2996
12540TIP3    H259036   0.889   2.036   3.609  0.5863  0.5202  0.3184
12541TIP3   OH259037   2.849   6.333  12.277  0.3098  0.0760  0.0331
12541TIP3    H159038   2.820   6.420  12.305 -1.5290 -0.1043 -1.1336
12541TIP3    H259039   2.768   6.288  12.250  1.4366 -1.2619 -1.3084
12542TIP3   OH259040   6.314   0.209  10.817 -0.4383  0.6946  0.3695
12542TIP3    H159041   6.398   0.239  10.785  0.6077 -0.2801  2.0132
12542TIP3    H259042   6.278   0.283  10.865 -1.1955  1.5643 -1.4592
12543TIP3   OH259043   6.432   6.505  15.811 -0.0096 -0.7671 -0.4249
12543TIP3    H159044   6.475   6.582  15.774 -0.0457 -1.0094 -0.9750
12543TIP3    H259045   6.418   6.446  15.737  0.9391 -1.7551  0.1404
12544TIP3   OH259046   2.866   1.849   1.797  0.2847 -0.2622  0.1028
12544TIP3    H159047   2.783   1.833   1.842  0.1858  0.8472  0.3428
12544TIP3    H259048   2.903   1.762   1.784 -1.2220 -0.8320 -0.6220
12545TIP3   OH259049   0.181   1.726  14.790  0.0548 -0.1854  0.4085
12545TIP3    H159050   0.158   1.776  14.868  0.6844 -0.4521  0.7646
12545TIP3    H259051   0.099   1.684  14.764 -0.8742  2.1479 -0.7455
12546TIP3   OH259052   1.922   1.424   5.231 -0.1275 -0.2802  0.7539
12546TIP3    H159053   1.911   1.385   5.318 -0.3286  0.8489  1.2534
12546TIP3    H259054   1.887   1.512   5.240 -0.9248 -0.4221 -0.7205
12547TIP3   OH259055   5.778   0.797  15.605  0.3384 -0.1322 -0.1099
12547TIP3    H159056   5.781   0.866  15.671 -1.0656  2.7712 -2.8174
12547TIP3    H259057   5.870   0.776  15.588  0.7990  0.8947  0.9603
12548TIP3   OH259058   2.374   4.872  10.367  0.0028  0.2315  0.7051
12548TIP3    H159059   2.285   4.862  10.402 -0.5896  1.6011 -0.2710
12548TIP3    H259060   2.366   4.946  10.306  1.7413  0.1284  0.3210
12549TIP3   OH259061   2.423   6.239   3.632 -0.3684 -0.0938  1.2467
12549TIP3    H159062   2.339   6.280   3.611  0.2618  1.2008  1.1500
12549TIP3    H259063   2.476   6.251   3.553  0.7035  1.3010  2.1215
12550TIP3   OH259064   5.334   3.791   1.592 -0.2975 -0.1484  0.9596
12550TIP3    H159065   5.410   3.740   1.563  0.0106  0.2513  1.0588
12550TIP3    H259066   5.326   3.860   1.527 -0.2130  0.1589  1.2733
12551TIP3   OH259067   2.557   6.583   3.069 -0.0871 -0.0060  0.2660
12551TIP3    H159068   2.611   6.605   2.994  0.8307 -2.3281  0.1726
12551TIP3    H259069   2.503   6.509   3.040 -1.7615  0.8380  1.0483
12552TIP3   OH259070   2.317   1.027  12.075 -0.8002  0.3206  0.2219
12552TIP3    H159071   2.396   1.045  12.025 -0.3432  0.9309  1.1313
12552TIP3    H259072   2.253   0.998  12.010 -0.5218  1.9902 -0.8477
12553TIP3   OH259073   3.546   4.785   3.778 -0.0626  0.6569 -0.2917
12553TIP3    H159074   3.564   4.842   3.704  0.5121  0.2625 -0.4644
12553TIP3    H259075   3.482   4.722   3.746 -0.5536  1.0861 -0.1575
12554TIP3   OH259076   6.551   6.303   4.948  0.2700  0.1062  0.0867
12554TIP3    H159077   6.516   6.260   5.026  0.6634  0.3596  0.4122
12554TIP3    H259078   6.584   6.387   4.980  0.5465  0.1607 -0.3317
12555TIP3   OH259079   2.238   2.779  13.359  0.0317 -0.7194  0.6997
12555TIP3    H159080   2.149   2.764  13.326  0.0970  0.9648 -0.3848
12555TIP3    H259081   2.270   2.854  13.308  2.9031 -2.6262 -0.5546
12556TIP3   OH259082   1.869   1.839  12.958  0.4236  0.0342  0.2572
12556TIP3    H159083   1.792   1.785  12.939  0.1250 -0.0055  1.4900
12556TIP3    H259084   1.914   1.847  12.874 -0.1643 -1.1303 -0.1919
12557TIP3   OH259085   0.324   4.449   4.860 -0.6274  0.0097  0.0841
12557TIP3    H159086   0.370   4.527   4.827 -1.5000  0.8771  0.8610
12557TIP3    H259087   0.343   4.381   4.795  1.5243  0.3961  0.2513
12558TIP3   OH259088   0.434   3.204  12.476  0.3122 -0.1938  0.2286
12558TIP3    H159089   0.360   3.166  12.430 -0.0242 -0.1461  0.7267
12558TIP3    H259090   0.498   3.224  12.407 -0.5981  0.8459 -0.3372
12559TIP3   OH259091   1.073   3.231   4.580 -0.9532  0.4421  0.2163
12559TIP3    H159092   1.047   3.270   4.663  3.2448  3.2583  0.5368
12559TIP3    H259093   1.055   3.298   4.515  0.2526  0.2684 -0.3224
12560TIP3   OH259094   0.978   6.517   2.619 -0.1947  0.2374 -0.5647
12560TIP3    H159095   1.015   6.589   2.670  1.1410 -0.7194 -0.1302
12560TIP3    H259096   0.886   6.542   2.605 -0.9742  0.0631  3.2311
12561TIP3   OH259097   2.046   3.731  14.497 -0.2559 -1.0315 -0.4006
12561TIP3    H159098   2.141   3.718  14.498 -0.1242 -0.0679  0.3573
12561TIP3    H259099   2.034   3.821  14.468 -0.7772 -0.1081  2.3703
12562TIP3   OH259100   5.380   1.633   4.262  0.1894 -0.2624  0.4224
12562TIP3    H159101   5.461   1.685   4.266 -0.4336  1.4072 -3.5990
12562TIP3    H259102   5.409   1.547   4.230  0.5141 -0.1877  0.5093
12563TIP3   OH259103   6.687   1.756  14.157  0.3130 -0.1454  0.4350
12563TIP3    H159104   6.645   1.809  14.224 -0.7148  1.5743 -1.4563
12563TIP3    H259105   6.660   1.796  14.074  4.4523  0.1284 -1.0099
12564TIP3   OH259106   2.357   3.719   1.346  0.2405 -0.3935  0.4499
12564TIP3    H159107   2.335   3.717   1.439 -1.8880  0.1914  0.0276
12564TIP3    H259108   2.441   3.763   1.341  0.2942 -0.2708  2.0768
12565TIP3   OH259109   0.126   3.031  15.769  0.1437 -0.0249 -0.5155
12565TIP3    H159110   0.189   3.100  15.746  0.5211  0.5608  1.9807
12565TIP3    H259111   0.068   3.071  15.833 -2.0682 -0.9450 -1.8127
12566TIP3   OH259112   3.242   1.249   2.505 -0.3397 -0.1873  0.6110
12566TIP3    H159113   3.292   1.171   2.531 -0.5859  0.0689  1.8614
12566TIP3    H259114   3.209   1.227   2.417  1.4707 -0.5878 -0.0225
12567TIP3   OH259115   1.318   2.250   2.351  0.4744  0.2857  0.1037
12567TIP3    H159116   1.334   2.229   2.444 -0.2204 -0.9888 -0.0377
12567TIP3    H259117   1.395   2.216   2.306  0.4903  0.2698  0.1420
12568TIP3   OH259118   2.931   2.162   1.076  0.2809 -0.6646  0.3615
12568TIP3    H159119   2.933   2.164   0.981  0.2371  0.5040  0.3658
12568TIP3    H259120   3.021   2.146   1.102  0.4397 -0.1644  0.1270
12569TIP3   OH259121   4.668   1.517  10.573 -0.2529 -0.1480 -0.0984
12569TIP3    H159122   4.633   1.507  10.485  1.4754 -1.4028 -0.7094
12569TIP3    H259123   4.706   1.605  10.575  0.0448 -0.2576 -0.7565
12570TIP3   OH259124   4.057   6.292   5.117  1.0867 -0.1394  0.4510
12570TIP3    H159125   4.119   6.293   5.044  1.3753  0.8182  0.6960
12570TIP3    H259126   4.111   6.289   5.195  0.8289  0.4020  0.6576
12571TIP3   OH259127   2.870   0.356  12.263  0.0404 -0.2167  0.2671
12571TIP3    H159128   2.957   0.316  12.264  0.9976  1.7542  1.1300
12571TIP3    H259129   2.845   0.363  12.355 -0.6266  0.0514  0.0727
12572TIP3   OH259130   0.350   4.174  15.738 -0.1728 -0.1404  0.4205
12572TIP3    H159131   0.305   4.093  15.758  2.5266 -2.1140 -0.8016
12572TIP3    H259132   0.283   4.229  15.697 -1.5295 -2.8409 -1.2873
12573TIP3   OH259133   3.385   3.002   2.453  0.3350 -0.2300 -0.0274
12573TIP3    H159134   3.452   3.015   2.387  0.5890 -0.8537  0.1008
12573TIP3    H259135   3.306   3.040   2.415  0.4541 -0.6801 -0.7366
12574TIP3   OH259136   1.653   5.501  15.408 -0.4959 -0.2093 -0.1970
12574TIP3    H159137   1.642   5.595  15.414  0.0283  0.0892 -2.7226
12574TIP3    H259138   1.689   5.475  15.493  1.3866  2.1884 -0.1451
12575TIP3   OH259139   3.218   6.086  12.338 -0.3735 -0.2898 -0.0498
12575TIP3    H159140   3.261   6.133  12.409 -1.0543 -0.5936  0.5726
12575TIP3    H259141   3.146   6.144  12.311 -0.8220 -0.6942  0.2865
12576TIP3   OH259142   2.962   2.103  13.080  0.2023  0.1822  0.5280
12576TIP3    H159143   3.046   2.065  13.055  0.2053  0.1886  0.5282
12576TIP3    H259144   2.915   2.113  12.997  0.7386  1.4842  0.3531
12577TIP3   OH259145   4.815   4.811  13.975 -0.5280  0.3327  0.5106
12577TIP3    H159146   4.760   4.887  13.993  0.5556  1.5667 -1.1845
12577TIP3    H259147   4.867   4.836  13.899  2.7583 -0.5755  2.2908
12578TIP3   OH259148   5.107   6.170   0.721  0.4922 -0.6935 -0.2245
12578TIP3    H159149   5.136   6.176   0.812  0.9779  0.9717 -0.4675
12578TIP3    H259150   5.012   6.162   0.727  0.0702  3.1441  0.4229
12579TIP3   OH259151   0.216   4.819  12.974 -0.1679  0.0787 -0.2804
12579TIP3    H159152   0.268   4.869  13.036 -0.2618  1.0015 -0.9128
12579TIP3    H259153   0.219   4.729  13.006  0.1362  0.4610  0.8045
12580TIP3   OH259154   6.328   2.615   5.272 -0.0040 -0.2460  0.1952
12580TIP3    H159155   6.294   2.671   5.341  1.5381  2.3780 -1.0306
12580TIP3    H259156   6.256   2.608   5.209 -0.8770 -1.3754  1.2605
12581TIP3   OH259157   3.080   3.305   0.988 -0.0107 -0.1254  0.2365
12581TIP3    H159158   2.999   3.348   1.014 -0.0374  0.1906 -0.3603
12581TIP3    H259159   3.090   3.326   0.895 -0.3792 -1.9393 -0.2571
12582TIP3   OH259160   5.394   2.868   2.948  0.5477 -0.0146 -0.1278
12582TIP3    H159161   5.483   2.868   2.984  0.1594  0.0409  0.8620
12582TIP3    H259162   5.341   2.826   3.016 -0.5115  1.7110  0.1706
12583TIP3   OH259163   4.925   0.547   3.857  0.1049  0.0662 -0.3772
12583TIP3    H159164   4.978   0.480   3.899  0.9472  1.1556  0.3620
12583TIP3    H259165   4.876   0.587   3.929 -0.4298  0.1945 -0.8127
12584TIP3   OH259166   3.068   3.579   0.499 -0.1750 -0.3403  0.4045
12584TIP3    H159167   3.032   3.656   0.543 -0.0417  0.1785 -0.3700
12584TIP3    H259168   3.157   3.604   0.476 -0.6544 -0.0996 -1.3266
12585TIP3   OH259169   6.698   5.830  15.507 -0.2291 -0.1353  0.1120
12585TIP3    H159170   6.697   5.779  15.426 -0.5224  0.5624 -0.3319
12585TIP3    H259171   6.749   5.777  15.569  2.5305  0.6154 -1.3667
12586TIP3   OH259172   0.935   5.496   5.397  0.0893  0.4587  0.1940
12586TIP3    H159173   1.020   5.518   5.359  1.5946 -2.3405  1.6023
12586TIP3    H259174   0.949   5.501   5.492 -0.9078 -1.2032  0.4724
12587TIP3   OH259175   0.863   3.334  15.762 -0.1377 -0.2310  0.2570
12587TIP3    H159176   0.954   3.317  15.735 -0.0126  1.4320 -0.4498
12587TIP3    H259177   0.814   3.258  15.729  0.4980  0.3334 -2.1936
12588TIP3   OH259178   5.940   6.469  14.205 -0.2630 -0.0478 -0.4212
12588TIP3    H159179   6.019   6.419  14.184 -2.2076 -3.8242  0.3721
12588TIP3    H259180   5.899   6.484  14.120 -0.9028 -2.3083 -0.5951
12589TIP3   OH259181   1.422   2.800  11.500 -0.3588 -0.4826  0.1443
12589TIP3    H159182   1.472   2.846  11.568 -0.2371  0.4004 -0.5164
12589TIP3    H259183   1.469   2.820  11.419 -0.1082 -2.0834 -0.1338
12590TIP3   OH259184   6.652   0.054   5.044  0.4958  0.5652 -0.2792
12590TIP3    H159185   6.687   0.138   5.074  1.0495  0.8110 -1.5593
12590TIP3    H259186   6.576   0.077   4.991 -1.9513  0.0278  2.6800
12591TIP3   OH259187   6.712   3.830  14.546  0.3050 -0.1669  0.4477
12591TIP3    H159188   6.740   3.743  14.575 -0.1961 -0.9603 -1.3394
12591TIP3    H259189   6.689   3.819  14.454  1.0850  2.0568 -0.0837
12592TIP3   OH259190   4.870   5.576  13.676 -0.2452 -0.1814  1.0072
12592TIP3    H159191   4.841   5.488  13.650  2.5216 -1.0925  0.7379
12592TIP3    H259192   4.865   5.628  13.596 -1.0469 -0.3194  0.9608
12593TIP3   OH259193   5.374   4.135   0.518  0.5603 -0.2456  0.5409
12593TIP3    H159194   5.396   4.172   0.432 -0.1730  1.4853  1.0433
12593TIP3    H259195   5.328   4.054   0.498 -0.1000  0.4043 -0.7472
12594TIP3   OH259196   0.745   0.847  11.472  0.0570  0.6457  0.2481
12594TIP3    H159197   0.737   0.935  11.506 -0.0456  0.4095  0.8431
12594TIP3    H259198   0.835   0.821  11.493 -0.4454 -0.0474  1.7041
12595TIP3   OH259199   1.354   2.668  13.167  0.0224 -0.5705  0.4566
12595TIP3    H159200   1.279   2.704  13.215 -1.0249 -1.5694 -0.3568
12595TIP3    H259201   1.316   2.600  13.111  1.2259  0.2913 -1.5220
12596TIP3   OH259202   3.977   3.196  11.634 -0.1370  0.7355  0.2529
12596TIP3    H159203   4.025   3.226  11.557 -1.9322  1.8173 -0.4919
12596TIP3    H259204   3.932   3.116  11.605  1.1743 -0.3031  0.9609
12597TIP3   OH259205   6.473   0.670   2.213 -0.0839 -0.3141  0.1317
12597TIP3    H159206   6.504   0.598   2.158  0.2058 -1.0013  1.1639
12597TIP3    H259207   6.537   0.740   2.200  1.3886 -1.3539  1.4596
12598TIP3   OH259208   4.803   5.361   5.204  0.2609 -0.0338  0.7331
12598TIP3    H159209   4.897   5.355   5.190  0.4808  0.1417  2.0010
12598TIP3    H259210   4.789   5.324   5.291 -0.8352 -0.0190  0.5818
12599TIP3   OH259211   3.910   2.956  13.159  0.2771 -0.0165 -0.4196
12599TIP3    H159212   3.885   2.913  13.241 -0.1492  0.5192 -0.2649
12599TIP3    H259213   3.833   2.949  13.104 -1.0780  3.4662  0.7862
12600TIP3   OH259214   0.129   6.527   3.636 -0.4808 -0.2535 -0.7891
12600TIP3    H159215   0.105   6.441   3.600  0.8489 -0.6789 -0.7031
12600TIP3    H259216   0.059   6.547   3.698 -0.3058 -1.7277 -0.0828
12601TIP3   OH259217   1.316   0.878  16.757  0.5225 -0.0309  0.1461
12601TIP3    H159218   1.337   0.970  16.742 -2.4543  0.5858 -1.0592
12601TIP3    H259219   1.281   0.876  16.847  1.6238 -0.2350  0.5835
12602TIP3   OH259220   6.437   5.665  10.603 -0.4374  0.6448  0.2445
12602TIP3    H159221   6.432   5.745  10.654  0.6670  1.4391 -0.8379
12602TIP3    H259222   6.349   5.629  10.606 -0.7136  1.3725  1.5559
12603TIP3   OH259223   2.419   2.709   5.587  0.5111  0.5139  0.5430
12603TIP3    H159224   2.339   2.735   5.541 -0.4140 -0.6224  1.4458
12603TIP3    H259225   2.476   2.676   5.518 -0.3997 -0.0695  0.0406
12604TIP3   OH259226   6.309   6.687   3.136  0.6697 -0.5422 -0.0202
12604TIP3    H159227   6.218   6.713   3.150  0.8182 -0.9055  1.8930
12604TIP3    H259228   6.316   6.671   3.041 -1.5166 -1.5364 -0.0474
12605TIP3   OH259229   1.201   1.972   1.249 -0.2139  0.0000  0.5871
12605TIP3    H159230   1.216   2.063   1.222  2.1047  0.3275  2.5918
12605TIP3    H259231   1.281   1.926   1.225 -2.1194 -2.1904 -2.3523
12606TIP3   OH259232   0.810   1.363  12.621  0.8093  0.1530 -0.1105
12606TIP3    H159233   0.734   1.421  12.613  0.2713 -0.7674 -3.3927
12606TIP3    H259234   0.881   1.412  12.580  1.5016  0.2073  1.1211
12607TIP3   OH259235   5.209   6.505   5.212  0.3115  0.4400 -0.1284
12607TIP3    H159236   5.156   6.569   5.261  0.6922  1.4212 -0.9569
12607TIP3    H259237   5.259   6.459   5.280 -1.3161 -0.2850  0.6496
12608TIP3   OH259238   4.078   3.003   4.595 -0.3777  0.0106 -0.3079
12608TIP3    H159239   4.119   2.929   4.640  1.1861  0.3403 -1.1109
12608TIP3    H259240   3.987   2.977   4.582 -0.5443 -0.6520  1.7915
12609TIP3   OH259241   2.863   5.987   1.874 -0.1096  0.1424  0.1146
12609TIP3    H159242   2.912   5.946   1.803 -1.1256  1.7416 -1.5969
12609TIP3    H259243   2.777   6.006   1.836 -1.2063 -0.2331  2.2346
12610TIP3   OH259244   4.826   0.936  11.092 -0.3300  0.1163 -0.0837
12610TIP3    H159245   4.818   1.003  11.024  0.1690 -0.4609 -0.7292
12610TIP3    H259246   4.745   0.887  11.087 -0.5961  0.5182  0.2291
12611TIP3   OH259247   3.000   3.007  13.226  0.1542 -0.0112 -0.0086
12611TIP3    H159248   2.999   2.982  13.319 -1.3422 -0.4849 -0.1213
12611TIP3    H259249   3.066   3.076  13.221  1.7618 -1.3864  1.0102
12612TIP3   OH259250   5.289   1.323   2.359  0.2322  0.8382 -0.1068
12612TIP3    H159251   5.375   1.283   2.368  0.0436  0.8024  2.1289
12612TIP3    H259252   5.229   1.250   2.345 -0.0058  0.2778  3.1507
12613TIP3   OH259253   4.428   1.463   5.272 -0.2446 -0.1650  0.3311
12613TIP3    H159254   4.362   1.470   5.341  0.2169 -0.2739  0.7849
12613TIP3    H259255   4.509   1.443   5.318  0.2720  0.7700 -0.1460
12614TIP3   OH259256   5.712   5.262   4.551 -0.0190  0.0593 -0.4453
12614TIP3    H159257   5.701   5.173   4.517  1.6428 -0.5639  0.5589
12614TIP3    H259258   5.627   5.282   4.592 -0.7957 -0.5862 -1.6681
12615TIP3   OH259259   3.255   1.597  16.910 -0.4520 -0.0350  0.3797
12615TIP3    H159260   3.214   1.527  16.860 -0.6016 -1.0426  1.8572
12615TIP3    H259261   3.309   1.644  16.847 -0.6502 -1.2445 -0.7136
12616TIP3   OH259262   3.200   6.693   3.722  0.8177 -0.2285  0.0080
12616TIP3    H159263   3.219   6.784   3.697  0.2561  0.3755  1.6001
12616TIP3    H259264   3.281   6.645   3.702  1.3792  0.7773 -0.2021
12617TIP3   OH259265   4.668   0.562  16.109 -0.0532 -0.5844  0.0612
12617TIP3    H159266   4.586   0.514  16.120 -1.3892  1.2078 -1.3750
12617TIP3    H259267   4.652   0.646  16.152  0.4214  0.3828 -1.5847
12618TIP3   OH259268   5.600   1.598   4.033  0.3273 -0.0107  0.1053
12618TIP3    H159269   5.660   1.618   4.105 -0.2308 -0.1786  0.6235
12618TIP3    H259270   5.544   1.529   4.067  1.4113 -1.6413 -1.2187
12619TIP3   OH259271   1.932   3.605  15.161 -0.1937  0.3612 -0.0243
12619TIP3    H159272   1.886   3.593  15.078 -1.1342 -1.3048  0.6868
12619TIP3    H259273   2.024   3.610  15.137 -0.4265 -0.4899 -1.1456
12620TIP3   OH259274   5.906   5.268  15.499  0.2900 -0.3020  0.3389
12620TIP3    H159275   5.868   5.296  15.415  1.2248 -0.5260 -0.1684
12620TIP3    H259276   5.837   5.285  15.563 -0.5427 -0.3820 -0.5135
12621TIP3   OH259277   4.193   3.424   6.803  0.4770 -0.4690  0.4249
12621TIP3    H159278   4.243   3.441   6.723 -1.8312  0.7734 -0.8281
12621TIP3    H259279   4.214   3.497   6.861 -0.4846  0.4990 -0.4209
12622TIP3   OH259280   1.042   5.305   3.185  0.3915 -0.0856 -0.5464
12622TIP3    H159281   1.009   5.272   3.101  1.1804 -0.5660 -0.6820
12622TIP3    H259282   1.126   5.260   3.196  0.4085  0.1710  0.3825
12623TIP3   OH259283   0.445   5.359   3.740 -0.0866 -0.2031 -0.0492
12623TIP3    H159284   0.455   5.452   3.720  0.3421 -0.8303 -3.1560
12623TIP3    H259285   0.504   5.315   3.679  1.3560 -2.4872  2.7516
12624TIP3   OH259286   5.587   1.541   5.468 -0.4070  0.2544  0.1937
12624TIP3    H159287   5.610   1.549   5.561  0.6011  1.4376 -0.1278
12624TIP3    H259288   5.655   1.590   5.423 -0.2505 -1.2123 -1.2640
12625TIP3   OH259289   1.993   1.533   2.414  0.6686  0.5373  0.0315
12625TIP3    H159290   2.052   1.507   2.485  1.0235  1.0934 -0.0543
12625TIP3    H259291   1.980   1.453   2.363  1.4085  0.4293  0.0054
12626TIP3   OH259292   3.193   4.596  14.751 -0.2565 -0.0941 -0.2630
12626TIP3    H159293   3.212   4.577  14.659 -0.1937  0.1778 -0.3066
12626TIP3    H259294   3.278   4.597  14.794 -0.2649  0.0386 -0.2506
12627TIP3   OH259295   0.647   2.517   1.319  0.2614 -0.3397 -0.0279
12627TIP3    H159296   0.553   2.503   1.319  0.0738  0.1185  2.8994
12627TIP3    H259297   0.681   2.453   1.382  1.5260  1.0986  0.8282
12628TIP3   OH259298   1.680   3.963   3.980 -0.4882  0.1898  0.3483
12628TIP3    H159299   1.610   3.942   4.042  0.2665  1.5674  1.7481
12628TIP3    H259300   1.760   3.964   4.033  0.5742 -0.9454 -1.1352
12629TIP3   OH259301   6.201   0.586   6.360  0.2959  0.2524 -0.2461
12629TIP3    H159302   6.265   0.526   6.398  0.8852  0.4573 -0.8981
12629TIP3    H259303   6.124   0.577   6.416  0.2670 -1.3152 -0.4979
12630TIP3   OH259304   1.204   4.017  16.141  0.1226 -0.2198 -0.2440
12630TIP3    H159305   1.183   4.038  16.232  0.5787  2.9885 -0.7497
12630TIP3    H259306   1.253   3.935  16.146  1.5496  0.6667  2.5813
12631TIP3   OH259307   3.890   4.268   4.229  0.4088  0.6197  0.7813
12631TIP3    H159308   3.984   4.252   4.219  0.3602  0.1391  1.1100
12631TIP3    H259309   3.873   4.342   4.170  1.0930  1.0630  1.1244
12632TIP3   OH259310   6.216   5.755  13.382  0.3343  0.2102  0.7204
12632TIP3    H159311   6.195   5.685  13.319 -1.5226  0.6692  0.7697
12632TIP3    H259312   6.135   5.807  13.388  1.4366  1.9441  1.2359
12633TIP3   OH259313   6.475   1.169   5.096 -0.3168  0.0712  0.3151
12633TIP3    H159314   6.415   1.127   5.034 -0.9808  2.5680 -0.8941
12633TIP3    H259315   6.470   1.116   5.175 -0.9912 -2.0916 -1.1005
12634TIP3   OH259316   4.305   3.184   3.919  0.1395  0.0319 -0.0723
12634TIP3    H159317   4.380   3.183   3.978 -0.9759  2.6418  1.5479
12634TIP3    H259318   4.229   3.168   3.976 -0.7401 -0.3885 -1.3106
12635TIP3   OH259319   4.231   5.900  12.890 -0.0886  0.3350  0.5657
12635TIP3    H159320   4.286   5.950  12.951  0.4474 -0.5093  0.7861
12635TIP3    H259321   4.174   5.966  12.850  0.4036  1.0798  1.0663
12636TIP3   OH259322   4.275   1.929   4.185 -0.3515  0.5658  0.1387
12636TIP3    H159323   4.259   1.845   4.142  0.0206  0.0893  0.9050
12636TIP3    H259324   4.190   1.973   4.186 -0.2205  0.9665 -1.8210
12637TIP3   OH259325   5.227   2.141  12.523 -0.3458  0.5910 -0.0746
12637TIP3    H159326   5.322   2.148  12.512 -0.3350  1.4692  0.5191
12637TIP3    H259327   5.191   2.159  12.436  0.0462 -0.6766 -0.5350
12638TIP3   OH259328   0.525   4.334   6.372  0.1297 -0.0958 -0.1909
12638TIP3    H159329   0.453   4.395   6.391 -0.6703 -0.9718 -0.3599
12638TIP3    H259330   0.588   4.349   6.443 -0.1246  0.8021 -0.1345
12639TIP3   OH259331   5.616   0.642  10.958 -0.0963  0.4412  0.2586
12639TIP3    H159332   5.564   0.652  10.877 -1.8966 -1.8640  1.0332
12639TIP3    H259333   5.552   0.617  11.024  1.3831  2.0167  2.4092
12640TIP3   OH259334   4.980   5.296   4.542  0.7465 -0.4495  0.3438
12640TIP3    H159335   4.979   5.200   4.534 -0.7675 -0.2599 -3.2777
12640TIP3    H259336   5.037   5.325   4.471 -1.6383  1.3869 -0.9544
12641TIP3   OH259337   4.437   4.862   0.230 -0.1679  0.6419  0.3852
12641TIP3    H159338   4.363   4.802   0.233  0.1105  0.1888 -1.0174
12641TIP3    H259339   4.510   4.811   0.264  0.7650 -1.0073 -3.4796
12642TIP3   OH259340   4.734   4.580   2.134 -0.0787 -0.1595 -0.1837
12642TIP3    H159341   4.778   4.562   2.050  0.2997  0.2525 -0.0794
12642TIP3    H259342   4.795   4.546   2.200 -0.5706 -0.8693 -0.0890
12643TIP3   OH259343   5.965   0.479  13.318 -0.4314 -0.2067  0.0966
12643TIP3    H159344   5.947   0.520  13.233  0.1725 -2.3889 -1.1732
12643TIP3    H259345   5.895   0.415  13.329  0.1523 -0.7768  0.6318
12644TIP3   OH259346   4.893   6.763  14.499  0.3302  0.6335 -0.2523
12644TIP3    H159347   4.854   6.688  14.453  0.6981  0.4196 -0.2163
12644TIP3    H259348   4.819   6.802  14.546  0.2321 -0.0299  0.1653
12645TIP3   OH259349   1.224   1.784   2.619  0.8352 -0.0720  0.5648
12645TIP3    H159350   1.241   1.874   2.644  1.2403  0.0054  0.0146
12645TIP3    H259351   1.269   1.773   2.536 -1.5076  0.0561 -0.7991
12646TIP3   OH259352   6.646   2.446  16.756 -0.3156  0.2680 -0.2879
12646TIP3    H159353   6.726   2.433  16.705  0.4245 -0.1908  0.9579
12646TIP3    H259354   6.654   2.385  16.829 -1.4160  0.8261  0.3239
12647TIP3   OH259355   3.406   3.858   1.712 -0.1346  0.1207 -0.2354
12647TIP3    H159356   3.312   3.846   1.697 -0.3095  1.1683 -0.1105
12647TIP3    H259357   3.431   3.928   1.652  1.2969 -2.2455 -2.6134
12648TIP3   OH259358   1.042   3.244  12.435 -0.0857 -0.2982  0.3176
12648TIP3    H159359   1.036   3.195  12.516 -1.2748  0.9642  1.0434
12648TIP3    H259360   0.988   3.195  12.373 -0.9835 -0.1171  0.9365
12649TIP3   OH259361   1.699   0.528  14.752 -0.2368 -0.5642  0.7812
12649TIP3    H159362   1.661   0.523  14.664 -0.2589 -1.0575  0.8187
12649TIP3    H259363   1.783   0.572  14.739 -1.3172  1.6603  0.8594
12650TIP3   OH259364   0.655   5.221  14.659 -0.3471 -0.3205 -0.1361
12650TIP3    H159365   0.631   5.161  14.730  0.1861 -0.5780 -0.1686
12650TIP3    H259366   0.578   5.225  14.603 -1.0364  0.4340  0.8310
12651TIP3   OH259367   4.870   2.535  12.143 -0.1614  0.9227  0.3818
12651TIP3    H159368   4.924   2.457  12.130 -0.5537  0.6770  0.2312
12651TIP3    H259369   4.933   2.607  12.144  0.1158  0.7123 -0.5025
12652TIP3   OH259370   5.607   2.569   4.276  0.5998 -0.2695 -0.6371
12652TIP3    H159371   5.513   2.567   4.262  0.4818  1.5093 -0.2901
12652TIP3    H259372   5.619   2.616   4.359  1.7623 -1.1722 -0.2560
12653TIP3   OH259373   1.446   6.020   4.075 -0.0477 -0.1618 -0.2423
12653TIP3    H159374   1.369   6.063   4.037 -1.0193 -0.7697  0.9853
12653TIP3    H259375   1.410   5.951   4.130  1.4455 -1.8645 -1.2872
12654TIP3   OH259376   0.655   3.397   4.786 -0.1567  0.2521 -0.2165
12654TIP3    H159377   0.677   3.307   4.765  0.4405 -0.2538  2.2031
12654TIP3    H259378   0.606   3.429   4.711  0.3787 -1.7993 -1.4993
12655TIP3   OH259379   3.313   6.496  14.407 -0.8640  0.9475  0.1331
12655TIP3    H159380   3.370   6.422  14.390 -1.2251  0.7543 -0.2594
12655TIP3    H259381   3.312   6.545  14.325 -2.0170  0.4230 -0.1995
12656TIP3   OH259382   3.013   6.713  16.615  0.2996 -0.4472 -0.3704
12656TIP3    H159383   2.955   6.784  16.642 -2.3160 -2.7390  0.5193
12656TIP3    H259384   2.994   6.701  16.521 -0.0681 -0.6073 -0.2811
12657TIP3   OH259385   1.442   1.810   2.885 -0.8681 -0.5477 -0.2901
12657TIP3    H159386   1.478   1.830   2.972 -0.0365  0.6697 -0.8932
12657TIP3    H259387   1.367   1.868   2.876 -1.2183 -0.9814 -0.2299
12658TIP3   OH259388   5.754   4.777   3.946 -0.0363 -0.0529  0.5064
12658TIP3    H159389   5.749   4.864   3.907  0.6737  0.6375  1.9083
12658TIP3    H259390   5.840   4.774   3.989 -0.5079 -1.0295  1.4320
12659TIP3   OH259391   4.342   4.646   5.076 -0.1076 -0.5441 -0.1972
12659TIP3    H159392   4.263   4.698   5.060  0.9877  1.0733 -0.6188
12659TIP3    H259393   4.414   4.709   5.068  1.2948 -2.1449 -0.7139
12660TIP3   OH259394   3.010   0.315  13.864 -0.2656 -0.4112  0.1739
12660TIP3    H159395   3.078   0.344  13.802  1.0376 -0.9819  1.2940
12660TIP3    H259396   2.972   0.237  13.823 -0.9938  0.4950 -0.9416
12661TIP3   OH259397   6.325   0.472   4.033 -0.2866 -0.8229 -0.2615
12661TIP3    H159398   6.318   0.553   4.083  0.1566 -1.3675  0.7079
12661TIP3    H259399   6.286   0.492   3.948  1.0005  0.8035 -0.5169
12662TIP3   OH259400   0.025   1.951  12.605  0.4328  0.6513 -0.5456
12662TIP3    H159401  -0.032   1.888  12.650  2.7016 -0.0170  1.6088
12662TIP3    H259402  -0.018   2.035  12.618 -1.0570 -0.0501 -0.7124
12663TIP3   OH259403   3.415   0.059  14.396  0.2061 -0.7119 -0.3080
12663TIP3    H159404   3.485   0.001  14.426  1.8818  1.4417  0.2172
12663TIP3    H259405   3.430   0.068  14.302  1.0893  0.2628 -0.0887
12664TIP3   OH259406   6.147   2.015   4.875 -0.2929 -0.4865 -0.3597
12664TIP3    H159407   6.123   2.041   4.964 -0.4024  0.3910 -0.6330
12664TIP3    H259408   6.241   2.000   4.880 -0.0907  0.6592 -0.3302
12665TIP3   OH259409   2.712   0.125  15.447 -0.2170  0.0904  0.0601
12665TIP3    H159410   2.768   0.079  15.510 -0.1305 -0.7767 -0.6279
12665TIP3    H259411   2.752   0.211  15.438  0.2688 -0.0768  0.5336
12666TIP3   OH259412   5.014   0.156   1.992 -0.1272 -0.2008  0.0769
12666TIP3    H159413   5.057   0.106   1.923  0.7115  0.8856 -0.2158
12666TIP3    H259414   4.925   0.168   1.960  0.5983  1.4645 -1.5194
12667TIP3   OH259415   6.466   3.349  11.660  0.0602 -0.6260  0.1228
12667TIP3    H159416   6.381   3.359  11.617 -0.0346 -1.7563  0.0329
12667TIP3    H259417   6.500   3.266  11.628  1.7601  0.3726 -0.7640
12668TIP3   OH259418   6.142   4.026  12.986 -0.1268  0.0865 -0.2796
12668TIP3    H159419   6.136   4.120  12.965  1.8681  0.1945 -0.5456
12668TIP3    H259420   6.205   3.992  12.923  0.5732 -1.0684  1.0029
12669TIP3   OH259421   0.420   1.661  15.045  0.9259 -0.4347  0.1786
12669TIP3    H159422   0.325   1.659  15.058  0.9081  0.1181  0.1479
12669TIP3    H259423   0.444   1.570  15.028 -0.0553 -0.1950 -3.0826
12670TIP3   OH259424   2.679   5.726  16.421  0.3620 -0.2233  0.3390
12670TIP3    H159425   2.721   5.750  16.503  0.9936 -0.2307  0.0190
12670TIP3    H259426   2.604   5.785  16.415  0.3488 -0.1791  0.8879
12671TIP3   OH259427   3.138   3.585   1.266  0.0426 -0.0980  0.2193
12671TIP3    H159428   3.053   3.601   1.307 -0.2579 -0.1761 -0.3650
12671TIP3    H259429   3.148   3.490   1.267  0.5558 -0.0494  1.1362
12672TIP3   OH259430   5.225   5.248  15.029 -0.0695 -0.2340 -0.2732
12672TIP3    H159431   5.162   5.201  14.975 -1.5420  0.2969  0.9238
12672TIP3    H259432   5.248   5.187  15.099 -0.2957  0.0586  0.0569
12673TIP3   OH259433   6.683   1.677   4.771  0.4692 -0.3729 -0.1118
12673TIP3    H159434   6.696   1.691   4.864  0.5728 -0.1780 -0.1554
12673TIP3    H259435   6.730   1.748   4.728  1.8534 -1.3966 -0.3715
12674TIP3   OH259436   1.880   0.914  11.609 -0.1216 -0.8401 -0.4541
12674TIP3    H159437   1.842   1.002  11.602  1.2346 -0.2188 -0.2170
12674TIP3    H259438   1.905   0.906  11.701 -1.5726 -2.0677 -0.1239
12675TIP3   OH259439   2.912   5.677   3.994  0.5034 -0.0414 -0.2019
12675TIP3    H159440   2.855   5.753   4.004  0.4147 -0.2414  0.9532
12675TIP3    H259441   2.866   5.621   3.931 -0.8020 -0.3625  0.9679
12676TIP3   OH259442   0.046   5.326   0.405 -0.0909 -0.2317  0.0915
12676TIP3    H159443   0.053   5.237   0.371 -1.2932 -0.1073 -0.5206
12676TIP3    H259444   0.054   5.382   0.327 -1.2859  0.1149  0.1980
12677TIP3   OH259445   3.249   1.742  16.320  0.2577  0.1484 -0.2991
12677TIP3    H159446   3.247   1.777  16.409 -0.6147 -2.2758  0.7394
12677TIP3    H259447   3.157   1.741  16.293  0.1675 -1.5964 -0.0919
12678TIP3   OH259448   4.067   1.084   1.978  0.3910  0.1718 -0.1219
12678TIP3    H159449   3.985   1.037   1.961 -0.4488  1.3502  0.4629
12678TIP3    H259450   4.039   1.174   1.994  1.8344  0.6302 -0.0495
12679TIP3   OH259451   2.911   6.735  14.568 -0.6243  0.2296  0.2773
12679TIP3    H159452   2.998   6.696  14.571 -1.5556 -1.9653  0.4442
12679TIP3    H259453   2.871   6.712  14.652 -2.2588 -1.0666 -0.8042
12680TIP3   OH259454   4.884   6.182  12.364 -0.0396 -0.6662  0.0134
12680TIP3    H159455   4.869   6.095  12.325  0.7581  0.3130 -2.7267
12680TIP3    H259456   4.946   6.166  12.435 -0.9991 -2.4904  0.5102
12681TIP3   OH259457   3.093   5.672  14.979  0.1658  0.5388  0.2306
12681TIP3    H159458   3.025   5.629  14.927  1.3721 -0.1747 -0.8193
12681TIP3    H259459   3.114   5.751  14.929  0.5030  0.4580  0.2397
12682TIP3   OH259460   2.290   1.751   5.417  0.2711  0.1339 -0.4861
12682TIP3    H159461   2.239   1.701   5.353  0.3493  0.6159 -0.9362
12682TIP3    H259462   2.242   1.833   5.426  0.9636  0.5937 -0.9188
12683TIP3   OH259463   2.451   6.228   3.160 -0.0450 -0.3441  0.0252
12683TIP3    H159464   2.392   6.303   3.162  1.5278  0.9324  1.0065
12683TIP3    H259465   2.498   6.236   3.077  0.0065 -0.3414  0.0546
12684TIP3   OH259466   0.674   0.270  14.405 -0.6093 -0.1108 -0.7034
12684TIP3    H159467   0.762   0.286  14.369 -1.8861  0.9848 -3.6241
12684TIP3    H259468   0.642   0.357  14.429 -1.2149 -0.4087 -0.4213
12685TIP3   OH259469   5.949   1.496   2.375 -0.7472 -0.0102  0.2083
12685TIP3    H159470   6.025   1.496   2.433 -0.9306 -1.6793  0.5035
12685TIP3    H259471   5.957   1.578   2.325  0.0641  0.8746  1.7145
12686TIP3   OH259472   5.029   4.131  13.091 -0.2411 -0.7512  0.0651
12686TIP3    H159473   5.058   4.053  13.139  1.8587  0.5831  1.1029
12686TIP3    H259474   5.021   4.199  13.158  0.1529  0.4985 -1.1080
12687TIP3   OH259475   3.890   6.065  11.478 -0.3303  0.5256  0.0125
12687TIP3    H159476   3.966   6.028  11.524 -0.6768  0.4610  0.5428
12687TIP3    H259477   3.925   6.095  11.394 -0.1700 -1.6647 -0.7711
12688TIP3   OH259478   6.540   1.472  13.683  0.4084 -0.2034  0.1033
12688TIP3    H159479   6.548   1.432  13.769  0.7902 -0.8903 -0.2498
12688TIP3    H259480   6.598   1.422  13.627  2.5696  2.1107  0.0792
12689TIP3   OH259481   2.697   6.114   1.615 -0.0000  0.0094 -0.2594
12689TIP3    H159482   2.638   6.189   1.606  1.2507  1.1204  0.3409
12689TIP3    H259483   2.726   6.095   1.526  0.7952  1.2278 -0.2949
12690TIP3   OH259484   1.584   4.163   4.229 -0.3005  0.4496  0.5152
12690TIP3    H159485   1.601   4.204   4.315  0.2144  0.1138  0.5739
12690TIP3    H259486   1.543   4.233   4.178 -1.2657  0.4545  1.2523
12691TIP3   OH259487   2.251   4.459  12.535  0.8208  0.3155 -0.1274
12691TIP3    H159488   2.245   4.454  12.631  1.0117  1.0906 -0.0722
12691TIP3    H259489   2.304   4.383  12.511  0.9149  0.2102  0.3955
12692TIP3   OH259490   1.777   3.878   2.674 -0.2609 -0.1445  0.1325
12692TIP3    H159491   1.714   3.857   2.743 -0.4538 -0.7538 -0.2230
12692TIP3    H259492   1.828   3.797   2.663  1.0537  0.5445  0.8950
12693TIP3   OH259493   5.347   0.433   3.061  0.8167  0.3485  0.1952
12693TIP3    H159494   5.321   0.524   3.072 -0.3536 -0.1663  2.0104
12693TIP3    H259495   5.366   0.402   3.149 -0.3130 -1.5761 -0.1837
12694TIP3   OH259496   2.210   1.456  12.676  0.0597  0.0817  0.3302
12694TIP3    H159497   2.289   1.508  12.691 -0.6930  0.9125  1.6831
12694TIP3    H259498   2.192   1.415  12.761 -2.4235  2.0728  0.8867
12695TIP3   OH259499   4.312   6.162  11.470  0.3725 -0.2496  0.8195
12695TIP3    H159500   4.403   6.190  11.481 -0.4192  2.3572  1.2311
12695TIP3    H259501   4.310   6.120  11.384  1.6653  1.0197  0.1246
12696TIP3   OH259502   3.577   2.104   4.357  0.3077  0.6039 -0.2852
12696TIP3    H159503   3.589   2.180   4.414  0.6439 -0.0663  0.5644
12696TIP3    H259504   3.485   2.107   4.332  0.5572  1.9200 -1.2077
12697TIP3   OH259505   2.440   0.700  16.639  0.3169 -1.0635  0.5148
12697TIP3    H159506   2.376   0.645  16.594 -0.0053 -1.0362  0.9343
12697TIP3    H259507   2.454   0.774  16.580 -2.1998  0.4219  1.6239
12698TIP3   OH259508   5.860   3.824  14.517  0.1215  0.3609 -0.2446
12698TIP3    H159509   5.912   3.876  14.457  0.9617  1.4311  1.3480
12698TIP3    H259510   5.894   3.735  14.508  0.8151  0.6713 -0.7265
12699TIP3   OH259511   6.659   0.420  14.590 -0.3494 -0.2983  0.3867
12699TIP3    H159512   6.663   0.503  14.542  0.9624 -0.1061  0.7819
12699TIP3    H259513   6.615   0.443  14.672 -0.6344 -0.1540  0.1973
12700TIP3   OH259514   2.972   1.051  11.285  0.0461 -0.0540  0.3176
12700TIP3    H159515   2.934   1.086  11.365 -0.6580 -2.4103  1.0926
12700TIP3    H259516   2.900   1.054  11.221  0.8196  2.5455 -0.5520
12701TIP3   OH259517   3.057   3.099   1.798 -0.4346 -0.0016  0.5408
12701TIP3    H159518   3.020   3.169   1.744 -2.3067  0.2548  2.0686
12701TIP3    H259519   3.003   3.023   1.778  0.5314 -0.6074  0.1483
12702TIP3   OH259520   0.790   1.890   2.026 -0.2124  0.4453 -0.1095
12702TIP3    H159521   0.784   1.969   2.079  0.5686  0.7742 -0.5015
12702TIP3    H259522   0.703   1.879   1.989 -0.2034  1.3856 -0.4271
12703TIP3   OH259523   1.348   4.916   3.291  0.0525 -0.3556 -0.6837
12703TIP3    H159524   1.427   4.892   3.241  1.1284 -0.5685  1.0513
12703TIP3    H259525   1.321   4.834   3.332 -3.4897 -1.3197 -4.2608
12704TIP3   OH259526   6.489   1.657   5.928  0.0374  0.3066  0.3333
12704TIP3    H159527   6.581   1.643   5.952  0.0945 -0.4251 -0.2542
12704TIP3    H259528   6.443   1.664   6.011  0.6493  0.8424  0.6368
12705TIP3   OH259529   6.593   5.509  13.849  0.1621 -0.0590 -0.3657
12705TIP3    H159530   6.678   5.491  13.889 -0.5075  1.0238  1.6654
12705TIP3    H259531   6.608   5.498  13.755  1.8722 -2.5256  0.0841
12706TIP3   OH259532   3.813   4.276  10.949 -0.1095 -0.3939  0.8407
12706TIP3    H159533   3.770   4.201  10.909 -0.2954 -0.1636  0.5964
12706TIP3    H259534   3.887   4.240  10.998 -0.9285 -0.8617  1.7707
12707TIP3   OH259535   2.570   2.709  14.414  0.1845  0.1384 -0.4383
12707TIP3    H159536   2.523   2.649  14.472 -0.3067  0.3341 -0.6313
12707TIP3    H259537   2.653   2.727  14.460  0.4450 -0.8701 -0.4888
12708TIP3   OH259538   4.901   0.166  10.315  0.1946 -0.1259 -0.7130
12708TIP3    H159539   4.872   0.257  10.323 -1.2362 -0.6556  0.8395
12708TIP3    H259540   4.840   0.127  10.253  1.2264  0.1055 -1.9029
12709TIP3   OH259541   4.579   4.383   6.114  0.1395  0.0339 -0.0582
12709TIP3    H159542   4.567   4.305   6.169  0.0422  0.7589  0.9713
12709TIP3    H259543   4.656   4.426   6.149  0.4666  0.1675 -0.9229
12710TIP3   OH259544   6.347   6.810   6.068 -0.1047  0.1731  0.2044
12710TIP3    H159545   6.336   6.749   6.141 -0.9242 -0.3942 -0.3791
12710TIP3    H259546   6.303   6.890   6.097  1.4103  0.7212  1.1828
12711TIP3   OH259547   6.385   5.259   1.505  0.2604 -0.0711  0.2851
12711TIP3    H159548   6.472   5.275   1.542  0.2549  0.8753 -0.0853
12711TIP3    H259549   6.398   5.258   1.410 -0.2517  0.8925  0.1927
12712TIP3   OH259550   3.327   6.396  16.673 -0.4890  0.1205  0.2583
12712TIP3    H159551   3.356   6.406  16.763  2.0832  1.0568 -0.5892
12712TIP3    H259552   3.332   6.302  16.655  0.2665  0.0757  0.7052
12713TIP3   OH259553   2.610   2.234  13.574 -0.1165 -0.4618 -0.7490
12713TIP3    H159554   2.524   2.258  13.541  0.1266 -0.3370 -1.2989
12713TIP3    H259555   2.608   2.138  13.578 -0.3395 -0.4519 -0.5898
12714TIP3   OH259556   5.309   4.187  17.012  0.8846  0.4583 -0.3501
12714TIP3    H159557   5.230   4.228  16.977  0.9738  0.0360 -1.0424
12714TIP3    H259558   5.291   4.093  17.010  1.0213  0.4047  0.4271
12715TIP3   OH259559   0.147   4.519  12.400 -0.4300  0.1828 -0.0683
12715TIP3    H159560   0.235   4.554  12.393 -0.3622  0.1693  0.6232
12715TIP3    H259561   0.137   4.462  12.324  0.2691 -0.0567  0.0164
12716TIP3   OH259562   0.804   4.147  11.298  0.1600  0.3622  0.0708
12716TIP3    H159563   0.880   4.096  11.326  0.3194 -0.0503 -1.0652
12716TIP3    H259564   0.820   4.165  11.205 -1.0953  0.3336 -0.1683
12717TIP3   OH259565   0.230   0.616   2.074  0.2005  0.1402 -0.0784
12717TIP3    H159566   0.181   0.698   2.064  1.1359  0.5644 -1.5846
12717TIP3    H259567   0.303   0.625   2.013  0.2565 -1.8714 -0.3552
12718TIP3   OH259568   6.466   2.130   3.168 -0.0587  0.0845 -0.1386
12718TIP3    H159569   6.535   2.189   3.137  3.3360 -2.4798  1.8381
12718TIP3    H259570   6.451   2.156   3.258 -0.8760 -0.0884 -0.2237
12719TIP3   OH259571   0.205   5.031  15.985 -0.0022  0.3016 -0.3500
12719TIP3    H159572   0.195   5.062  15.896 -2.0368 -1.0236 -0.6346
12719TIP3    H259573   0.162   5.097  16.039  1.3595  1.1798 -0.2818
12720TIP3   OH259574   5.198   4.850   0.772 -0.0280 -0.0070  0.8030
12720TIP3    H159575   5.121   4.805   0.807 -1.5088  1.4840 -0.3768
12720TIP3    H259576   5.228   4.905   0.844 -0.7248  0.1851  0.9550
12721TIP3   OH259577   0.211   0.805   5.368  0.0520  0.0691 -0.3072
12721TIP3    H159578   0.225   0.861   5.292 -1.0008  0.0988 -0.4951
12721TIP3    H259579   0.221   0.863   5.443 -0.6591  0.4268 -0.4866
12722TIP3   OH259580   5.029   5.456  12.964 -0.3371  0.0643  0.3759
12722TIP3    H159581   5.102   5.465  13.026  0.9323  0.1987 -1.0775
12722TIP3    H259582   5.017   5.361  12.957  0.2409  0.0087  0.0337
12723TIP3   OH259583   4.289   6.272  13.478  0.1022 -0.2306  0.2773
12723TIP3    H159584   4.326   6.219  13.548 -1.2151  0.4117  1.5095
12723TIP3    H259585   4.314   6.361  13.499 -2.9188  0.4019  1.8215
12724TIP3   OH259586   2.277   3.297   5.653 -0.5323  0.0322  0.3435
12724TIP3    H159587   2.192   3.287   5.696  0.2489 -2.9047  1.4391
12724TIP3    H259588   2.337   3.318   5.723 -0.0224  0.0328 -0.0883
12725TIP3   OH259589   3.327   4.065  16.222  0.1225  0.3448 -0.8967
12725TIP3    H159590   3.386   3.990  16.227  0.8951  0.7981 -2.4675
12725TIP3    H259591   3.314   4.079  16.128 -0.8284  1.5475 -0.6131
12726TIP3   OH259592   5.653   1.010   3.045  0.0110  0.1132  0.6475
12726TIP3    H159593   5.631   1.091   2.998 -0.3063 -0.8252 -0.8805
12726TIP3    H259594   5.628   0.940   2.986  0.8816 -1.1196  1.6734
12727TIP3   OH259595   6.784   1.508  13.926 -0.4238 -0.3684  0.2402
12727TIP3    H159596   6.721   1.578  13.941 -0.0918 -0.2172  0.9358
12727TIP3    H259597   6.809   1.518  13.834 -0.3394  0.4584  0.3473
12728TIP3   OH259598   4.355   1.042   4.436  0.1633  0.2710  0.0465
12728TIP3    H159599   4.331   1.134   4.448 -1.1020 -0.1542  1.0404
12728TIP3    H259600   4.334   1.024   4.344 -2.6512  0.2017  0.6035
12729TIP3   OH259601   2.363   6.677   4.797 -0.2080 -0.2378  0.4050
12729TIP3    H159602   2.415   6.644   4.724 -0.8551  1.5943 -0.9515
12729TIP3    H259603   2.418   6.661   4.874  1.4010 -0.3596 -0.7179
12730TIP3   OH259604   2.228   1.479  11.355  0.0439  0.3778  0.7262
12730TIP3    H159605   2.201   1.503  11.444  2.4297 -0.8761  1.9020
12730TIP3    H259606   2.192   1.391  11.343  0.3953  0.2271  0.7776
12731TIP3   OH259607   5.881   1.857  15.665  0.1376 -0.9167 -0.1812
12731TIP3    H159608   5.956   1.908  15.635  0.0600  1.1369  2.6631
12731TIP3    H259609   5.917   1.798  15.732 -0.6763  0.1121  1.2326
12732TIP3   OH259610   4.148   1.671   4.198 -0.4243 -0.2243 -0.7936
12732TIP3    H159611   4.056   1.651   4.178 -0.6447  0.0538 -0.0942
12732TIP3    H259612   4.148   1.690   4.292  0.5857 -1.5185 -0.5142
12733TIP3   OH259613   6.240   6.197  11.528 -0.2459  0.1355 -0.3458
12733TIP3    H159614   6.194   6.280  11.514  0.6952  0.5796 -0.8780
12733TIP3    H259615   6.173   6.139  11.565 -0.7057  1.3659  0.8306
12734TIP3   OH259616   4.560   1.449  11.469 -0.7569  0.3100 -0.6052
12734TIP3    H159617   4.535   1.358  11.453 -1.9399  0.5806 -0.3743
12734TIP3    H259618   4.644   1.459  11.424 -0.4011 -1.0045 -0.2717
12735TIP3   OH259619   5.802   1.136  15.457  0.0600 -0.5273 -0.2125
12735TIP3    H159620   5.887   1.093  15.464  0.9063  0.4511 -3.0796
12735TIP3    H259621   5.793   1.156  15.364 -1.3997  3.1960  0.5539
12736TIP3   OH259622   3.246   0.193   2.675 -0.0695 -0.2962  0.2521
12736TIP3    H159623   3.227   0.161   2.587 -1.7751 -1.1450  0.8899
12736TIP3    H259624   3.327   0.244   2.665 -0.3936 -0.1038 -1.8456
12737TIP3   OH259625   0.047   4.527  12.694 -0.1684  0.4117  0.3987
12737TIP3    H159626   0.036   4.543  12.600  0.8010  2.7292  0.6020
12737TIP3    H259627   0.139   4.503  12.704 -0.9822 -3.1596  0.4642
12738TIP3   OH259628   2.342   1.028   2.603 -0.2719 -0.1688 -0.1103
12738TIP3    H159629   2.376   1.108   2.642 -1.5180  0.3991 -0.1680
12738TIP3    H259630   2.380   1.026   2.515  1.8627 -1.0217  0.7367
12739TIP3   OH259631   0.270   6.437  15.181 -0.4669 -0.0310  0.0621
12739TIP3    H159632   0.198   6.497  15.199  0.1788  0.5248  0.8110
12739TIP3    H259633   0.227   6.358  15.147 -1.4893  0.0287  1.1618
12740TIP3   OH259634   0.509   0.865   3.682  0.2379 -0.5080 -0.3729
12740TIP3    H159635   0.480   0.837   3.769  0.6468 -0.1163 -0.1038
12740TIP3    H259636   0.579   0.804   3.659 -0.9092 -1.5884 -1.1156
12741TIP3   OH259637   2.593   2.249   4.334  0.1417 -0.1976 -0.2335
12741TIP3    H159638   2.579   2.193   4.257  0.5639 -0.6067 -0.0189
12741TIP3    H259639   2.637   2.192   4.397 -0.5936  0.0079  0.4805
12742TIP3   OH259640   5.526   5.001   4.883 -0.5528  0.0499 -0.3272
12742TIP3    H159641   5.613   5.007   4.922 -0.8730  4.2907  0.1780
12742TIP3    H259642   5.466   5.001   4.957 -1.0414 -0.4186 -0.7138
12743TIP3   OH259643   6.681   1.378  17.028  0.0176  0.0944 -0.3192
12743TIP3    H159644   6.631   1.324  16.966  1.3551 -0.6482 -0.8027
12743TIP3    H259645   6.767   1.388  16.986  0.7679  0.0619  1.1500
12744TIP3   OH259646   4.461   2.867  11.634 -0.2262 -0.3464 -0.3512
12744TIP3    H159647   4.433   2.913  11.555 -0.2446  0.0168 -0.1349
12744TIP3    H259648   4.385   2.816  11.661 -0.7437  0.7242  0.3000
12745TIP3   OH259649   3.022   3.736   5.427 -0.0991 -0.1949 -0.0670
12745TIP3    H159650   3.062   3.674   5.365  1.0985 -0.7510  1.2220
12745TIP3    H259651   3.019   3.818   5.378 -3.3786 -1.5181 -2.4866
12746TIP3   OH259652   6.045   0.317   3.628  0.2277 -0.4763 -0.2325
12746TIP3    H159653   5.989   0.240   3.620  0.0828 -0.3711 -0.2246
12746TIP3    H259654   6.008   0.381   3.567 -0.2070 -0.0791  0.4494
12747TIP3   OH259655   5.484   2.621  12.290  0.0335  0.1754 -0.0649
12747TIP3    H159656   5.514   2.578  12.210  0.2997 -0.3711  0.3224
12747TIP3    H259657   5.455   2.549  12.346 -0.8351  0.6055  0.0518
12748TIP3   OH259658   3.953   0.841  15.407 -0.2328  0.4679 -0.9094
12748TIP3    H159659   4.035   0.875  15.441 -0.0502 -0.8863  0.0724
12748TIP3    H259660   3.889   0.857  15.476  0.4558 -3.7311  1.0320
12749TIP3   OH259661   5.332   2.330   1.281  0.3305 -0.6506  0.3206
12749TIP3    H159662   5.294   2.332   1.369  3.2062  0.9860  1.6685
12749TIP3    H259663   5.258   2.311   1.223 -2.3298  1.3472  2.7723
12750TIP3   OH259664   1.665   0.851   3.981 -0.3530 -0.1754  0.1915
12750TIP3    H159665   1.657   0.937   3.938  0.1296  1.8200  3.7160
12750TIP3    H259666   1.576   0.816   3.979 -0.6815  0.6400 -0.7811
12751TIP3   OH259667   2.930   5.810  13.038  0.5240  0.2725  0.3027
12751TIP3    H159668   2.863   5.878  13.048 -0.8147 -1.0020  0.2778
12751TIP3    H259669   2.949   5.782  13.127 -0.0315 -0.3486  0.2314
12752TIP3   OH259670   2.877   3.194  16.175 -0.4015 -0.0224  0.3569
12752TIP3    H159671   2.794   3.191  16.222 -1.0893 -3.4711 -0.7891
12752TIP3    H259672   2.867   3.266  16.113 -1.5241  1.1669  1.8454
12753TIP3   OH259673   2.742   4.292  15.684  0.1583 -0.6642 -0.1777
12753TIP3    H159674   2.769   4.283  15.775 -0.3002  1.1652  0.1799
12753TIP3    H259675   2.765   4.382  15.661 -1.5962 -0.4328 -1.2198
12754TIP3   OH259676   1.314   5.853   2.017 -0.0579 -0.4749  0.2125
12754TIP3    H159677   1.308   5.897   1.932 -2.4806 -2.8397 -1.0187
12754TIP3    H259678   1.384   5.789   2.006  0.4886  0.0889  0.4363
12755TIP3   OH259679   4.947   6.087  13.372 -0.3823 -0.0641 -0.1710
12755TIP3    H159680   4.931   6.040  13.290 -0.3545 -1.1822  0.4397
12755TIP3    H259681   5.018   6.147  13.352 -0.0120 -0.7109 -0.8332
12756TIP3   OH259682   6.257   4.192  13.630  0.2294  0.5974 -0.5869
12756TIP3    H159683   6.266   4.284  13.602 -1.7054  0.9574 -0.1906
12756TIP3    H259684   6.323   4.181  13.698  0.0249  1.9513 -0.1255
12757TIP3   OH259685   1.050   1.740  15.509  0.2192  0.5783  0.8982
12757TIP3    H159686   1.102   1.755  15.430  2.6704 -0.3033  2.2441
12757TIP3    H259687   1.033   1.646  15.509 -0.3587  0.6793  1.0880
12758TIP3   OH259688   3.162   6.044   1.334 -0.5233  0.0520 -0.8821
12758TIP3    H159689   3.098   6.063   1.265 -3.1391 -1.5047  0.9556
12758TIP3    H259690   3.163   5.948   1.340  1.2835  0.0825 -0.1735
12759TIP3   OH259691   0.599   3.685  11.365 -0.4559 -0.0827 -0.2545
12759TIP3    H159692   0.672   3.693  11.304  0.5755  0.8057  1.0477
12759TIP3    H259693   0.597   3.592  11.387  0.6733 -0.0231  0.1429
12760TIP3   OH259694   6.055   0.768   5.264 -0.3252  0.3204 -0.0199
12760TIP3    H159695   6.006   0.843   5.297  0.5869  0.9744 -0.1305
12760TIP3    H259696   6.002   0.692   5.289 -2.1077  1.0669 -1.3445
12761TIP3   OH259697   4.104   2.477  14.667 -0.2058 -0.0036 -0.0038
12761TIP3    H159698   4.163   2.418  14.713  0.5492  0.1931 -0.7024
12761TIP3    H259699   4.030   2.423  14.642  0.1108 -0.4690  0.0599
12762TIP3   OH259700   3.944   0.067   1.834 -0.5327  0.0698 -0.2985
12762TIP3    H159701   4.034   0.038   1.818 -0.1255 -0.6059  2.5759
12762TIP3    H259702   3.900  -0.012   1.865 -1.7424  0.7083 -0.3577
12763TIP3   OH259703   0.182   0.634   1.354 -0.7176  0.0922 -0.2437
12763TIP3    H159704   0.208   0.577   1.427  1.8427 -0.1075 -1.1943
12763TIP3    H259705   0.138   0.576   1.293 -4.0596  0.4936  1.5598
12764TIP3   OH259706   4.292   0.081  16.528  0.4245 -0.3151  0.1388
12764TIP3    H159707   4.346   0.097  16.451  0.2191  0.7106  0.1966
12764TIP3    H259708   4.268  -0.012  16.522  2.5448 -0.9177  0.3547
12765TIP3   OH259709   2.506   0.827   4.364 -0.8214  0.3163  0.5324
12765TIP3    H159710   2.490   0.793   4.452  0.3295  0.3269  0.7515
12765TIP3    H259711   2.430   0.883   4.347 -2.1230 -1.3052  0.6622
12766TIP3   OH259712   2.968   5.314   5.831  0.6565  0.0855 -0.4177
12766TIP3    H159713   3.005   5.238   5.876  1.5682  1.2475  0.9113
12766TIP3    H259714   2.875   5.310   5.850  0.8237 -0.2356  0.3872
12767TIP3   OH259715   3.848   0.096   0.975 -0.1318  0.8770  0.0528
12767TIP3    H159716   3.759   0.095   0.940  0.1811  1.2408 -0.7876
12767TIP3    H259717   3.841   0.144   1.058 -0.8583  0.1406  0.4322
12768TIP3   OH259718   6.648   5.078  16.013  0.2667 -0.3648  0.1372
12768TIP3    H159719   6.576   5.140  15.999 -0.1283 -0.3483  2.0610
12768TIP3    H259720   6.609   5.007  16.063  1.2944 -1.0212  0.0284
12769TIP3   OH259721   4.582   5.395  13.419  0.7031  0.2010  0.3538
12769TIP3    H159722   4.642   5.465  13.392  0.8933 -0.4484 -0.9892
12769TIP3    H259723   4.552   5.356  13.337  0.9000 -1.5568  1.0718
12770TIP3   OH259724   4.577   3.948   3.545  0.0990  0.4340  0.0592
12770TIP3    H159725   4.483   3.950   3.527  0.1678 -2.1090 -1.1601
12770TIP3    H259726   4.615   4.008   3.481 -0.5886 -0.0338 -0.8182
12771TIP3   OH259727   5.288   4.485   6.015  0.1901  0.0415 -0.1180
12771TIP3    H159728   5.355   4.457   6.078 -0.0397  0.5585  0.3599
12771TIP3    H259729   5.209   4.439   6.042  0.0808  0.2973 -0.0054
12772TIP3   OH259730   3.997   3.648  14.492 -0.1325  0.0324  0.0640
12772TIP3    H159731   4.073   3.599  14.525 -0.2689 -0.1969  0.0358
12772TIP3    H259732   3.976   3.708  14.563  0.7452  0.8574 -0.3465
12773TIP3   OH259733   1.947   0.792   3.430 -0.4893  0.0235  0.1815
12773TIP3    H159734   1.856   0.813   3.451 -0.2692  1.1414  0.0825
12773TIP3    H259735   1.996   0.816   3.509  0.1456  2.8390 -0.9332
12774TIP3   OH259736   3.275   3.491  11.881 -0.0327 -0.7491 -0.5693
12774TIP3    H159737   3.291   3.548  11.806  1.9190 -0.4529  0.0090
12774TIP3    H259738   3.346   3.426  11.877 -1.3105 -2.2094 -0.3444
12775TIP3   OH259739   2.844   1.603  12.703  0.1401 -0.1458 -0.4656
12775TIP3    H159740   2.891   1.520  12.700 -1.3729 -1.0110 -2.4959
12775TIP3    H259741   2.771   1.587  12.763  2.5062  1.3877  3.1976
12776TIP3   OH259742   5.051   6.503   4.564  0.0612  0.6426 -0.1122
12776TIP3    H159743   4.961   6.536   4.557 -0.4157 -0.7027 -0.7142
12776TIP3    H259744   5.105   6.576   4.534 -0.7407  1.8040  1.1338
12777TIP3   OH259745   5.837   0.558   5.085 -0.3411  0.0831  0.0685
12777TIP3    H159746   5.868   0.576   5.174  0.9027 -1.4295 -0.0238
12777TIP3    H259747   5.773   0.627   5.068  0.3594  1.1744  1.6333
12778TIP3   OH259748   4.476   2.789   1.891  0.1141  0.4789  0.2001
12778TIP3    H159749   4.386   2.806   1.917  0.0630  0.0001  0.3592
12778TIP3    H259750   4.500   2.710   1.940  0.2854  0.0286 -0.6053
12779TIP3   OH259751   0.904   5.467   5.093  0.0778 -0.2072  0.5204
12779TIP3    H159752   0.997   5.450   5.105  0.7268  2.6945  0.4600
12779TIP3    H259753   0.884   5.536   5.157 -1.4497  0.8076 -0.9540
12780TIP3   OH259754   2.833   0.106  10.438 -0.1214 -0.2422 -0.1790
12780TIP3    H159755   2.748   0.072  10.410 -1.5754  2.4975  0.6162
12780TIP3    H259756   2.837   0.087  10.531 -1.1270  1.9559  0.3584
12781TIP3   OH259757   0.323   0.887  15.511 -0.0017  0.4717  0.0560
12781TIP3    H159758   0.277   0.818  15.462  2.0170  0.5169 -2.0874
12781TIP3    H259759   0.411   0.851  15.525  0.1681  1.4166  1.7065
12782TIP3   OH259760   2.911   3.032   2.753 -0.4112  0.2548  0.2062
12782TIP3    H159761   2.967   3.109   2.747 -0.7992  0.5200 -0.1062
12782TIP3    H259762   2.837   3.060   2.807 -0.1342 -0.1618  0.8087
12783TIP3   OH259763   2.109   3.507   4.419 -0.1309 -0.4001 -0.3898
12783TIP3    H159764   2.192   3.489   4.376 -0.9837 -0.4377 -2.1030
12783TIP3    H259765   2.092   3.430   4.473  1.8014  0.3839  1.4846
12784TIP3   OH259766   4.904   6.563   2.749  0.1929 -0.2136  0.1928
12784TIP3    H159767   4.977   6.564   2.687  0.7849 -0.1868  0.8822
12784TIP3    H259768   4.944   6.584   2.833 -0.8204  1.2391  0.3558
12785TIP3   OH259769   4.481   1.816   3.378  0.1795 -0.2762  0.0062
12785TIP3    H159770   4.470   1.902   3.338  0.3076 -1.5407 -2.9628
12785TIP3    H259771   4.437   1.824   3.463 -1.4859  2.1660 -0.9703
12786TIP3   OH259772   4.453   3.969  14.813 -0.3462 -0.0129  0.2962
12786TIP3    H159773   4.363   3.947  14.835 -1.0658  1.1059 -1.3491
12786TIP3    H259774   4.477   4.038  14.875 -0.9988  0.4030  0.0948
12787TIP3   OH259775   5.370   1.885  11.171 -0.2386 -0.2364  0.2765
12787TIP3    H159776   5.385   1.945  11.099  1.9929 -0.6865  0.2977
12787TIP3    H259777   5.379   1.798  11.133  1.9269 -0.4796  1.2238
12788TIP3   OH259778   0.201   6.396  15.459  0.0432  0.2670 -0.0729
12788TIP3    H159779   0.247   6.364  15.537  2.0383  1.5769 -0.6382
12788TIP3    H259780   0.270   6.428  15.401 -1.3689 -0.5800 -2.3892
12789TIP3   OH259781   3.154   2.114   2.090  0.1905  0.1297  0.0791
12789TIP3    H159782   3.226   2.066   2.131  0.7185  1.1287  0.3551
12789TIP3    H259783   3.146   2.194   2.141  0.4916  1.1484 -1.4029
12790TIP3   OH259784   6.098   5.012  13.774 -0.3704  0.3779 -0.0710
12790TIP3    H159785   6.074   4.971  13.857 -1.1153  0.9706  0.0212
12790TIP3    H259786   6.105   5.106  13.794 -0.2158  0.4852 -0.5946
12791TIP3   OH259787   3.839   0.656  15.088 -0.3725 -0.4510 -0.4936
12791TIP3    H159788   3.870   0.585  15.144 -0.5390  0.2026  0.4635
12791TIP3    H259789   3.754   0.681  15.126  0.4756  1.4106  0.2872
12792TIP3   OH259790   6.249   0.936  13.196  0.4572 -0.6298  0.0943
12792TIP3    H159791   6.246   0.851  13.240  3.6930 -0.8077  0.2617
12792TIP3    H259792   6.303   0.991  13.253 -0.6217  1.2200 -0.5669
12793TIP3   OH259793   4.675   3.554  14.355 -0.2562 -0.0617  0.3621
12793TIP3    H159794   4.665   3.564  14.261  0.3338 -1.1661  0.1683
12793TIP3    H259795   4.717   3.636  14.384 -1.1158  0.5966 -0.1975
12794TIP3   OH259796   4.573   2.304  11.296 -0.0334 -0.3002  0.0823
12794TIP3    H159797   4.516   2.333  11.224  0.2233  0.0838  0.0250
12794TIP3    H259798   4.655   2.282  11.253  0.9277  2.1863  0.4714
12795TIP3   OH259799   4.906   3.558   5.643 -0.6925 -0.1281  0.3730
12795TIP3    H159800   4.870   3.646   5.649 -2.7386 -0.7511 -1.5790
12795TIP3    H259801   4.887   3.519   5.728  0.4938  1.3378  1.3663
12796TIP3   OH259802   1.552   3.829   2.842  0.0413  0.2379  0.3148
12796TIP3    H159803   1.458   3.841   2.825  0.1652  0.0201 -0.5784
12796TIP3    H259804   1.558   3.813   2.936 -1.2331 -3.5065 -0.0594
12797TIP3   OH259805   0.175   3.912  16.439  0.1102 -0.2620 -0.1568
12797TIP3    H159806   0.108   3.979  16.454 -1.0516 -0.9973 -1.8199
12797TIP3    H259807   0.204   3.887  16.527 -1.2678  0.5797  0.5686
12798TIP3   OH259808   2.739   4.025  15.747 -0.0199  0.1886  0.2616
12798TIP3    H159809   2.734   4.075  15.665  1.4044 -0.7131 -0.4311
12798TIP3    H259810   2.754   4.092  15.814 -1.0882  0.9361 -0.2160
12799TIP3   OH259811   4.256   4.589  11.791  0.0515  0.3361 -0.0472
12799TIP3    H159812   4.287   4.521  11.731 -0.3734 -0.2962  0.4281
12799TIP3    H259813   4.195   4.641  11.740  1.4222  1.2519 -0.8321
12800TIP3   OH259814   1.633   1.300   1.656 -0.3142 -0.3819 -0.6955
12800TIP3    H159815   1.577   1.262   1.589 -0.5868 -0.1280 -0.6139
12800TIP3    H259816   1.605   1.259   1.737  0.7625 -1.5289 -0.8650
12801TIP3   OH259817   1.911   3.727   4.003 -0.7785  0.2309 -0.1586
12801TIP3    H159818   1.916   3.798   4.067 -0.5544  0.6043 -0.5838
12801TIP3    H259819   1.832   3.679   4.027 -2.2497  1.9778 -1.2333
12802TIP3   OH259820   0.316   2.178   4.199 -0.3114  0.0900  0.2040
12802TIP3    H159821   0.325   2.273   4.211  0.2818 -0.0820  1.2326
12802TIP3    H259822   0.277   2.147   4.281 -0.8998 -0.5064 -0.2963
12803TIP3   OH259823   1.693   6.729  13.987 -0.1412 -0.3702  0.3469
12803TIP3    H159824   1.600   6.750  13.993 -0.5869 -1.7876 -0.9403
12803TIP3    H259825   1.696   6.648  13.936  1.9123  0.7254 -1.4493
12804TIP3   OH259826   5.409   3.417   5.077  0.0919 -0.0222  0.4832
12804TIP3    H159827   5.389   3.450   4.989  1.8363 -1.6693 -0.6314
12804TIP3    H259828   5.505   3.422   5.083  0.0868 -0.9299  1.8643
12805TIP3   OH259829   6.481   4.872  11.373 -0.2079  0.2628 -0.1539
12805TIP3    H159830   6.493   4.885  11.279  0.0534 -2.2502 -0.5606
12805TIP3    H259831   6.395   4.909  11.391 -1.2847 -1.1926 -1.9166
12806TIP3   OH259832   2.785   2.562   2.467  0.1253  0.2503 -0.3216
12806TIP3    H159833   2.721   2.602   2.408 -0.7828  0.9862  1.1141
12806TIP3    H259834   2.807   2.479   2.426 -0.5559  0.6918 -1.6334
12807TIP3   OH259835   0.855   2.123   1.392  0.2418 -0.1666 -0.3915
12807TIP3    H159836   0.867   2.049   1.451 -0.8681 -0.5649 -0.6242
12807TIP3    H259837   0.760   2.127   1.378  0.3326  0.9646 -0.8172
12808TIP3   OH259838   6.470   1.011  14.051  0.2648 -0.7247  0.6560
12808TIP3    H159839   6.413   1.044  13.982  0.2349  0.7097  1.3433
12808TIP3    H259840   6.513   1.089  14.086  1.1973 -1.5697  1.4465
12809TIP3   OH259841   1.596   0.585  11.122 -0.6694 -0.4682  0.6917
12809TIP3    H159842   1.564   0.556  11.207 -0.5916 -1.2976  0.4413
12809TIP3    H259843   1.666   0.648  11.143  0.6800 -2.0922  1.2728
12810TIP3   OH259844   4.111   1.656  12.428  0.2787  0.1468  0.4390
12810TIP3    H159845   4.084   1.718  12.360  0.8104 -0.8051 -0.6969
12810TIP3    H259846   4.204   1.674  12.442 -0.5243  2.6398  3.4908
12811TIP3   OH259847   2.539   6.017  10.468  0.0229  0.2187  0.1485
12811TIP3    H159848   2.598   6.066  10.411  1.1960 -1.5761 -0.2663
12811TIP3    H259849   2.550   5.926  10.441  1.1740 -0.8351  3.6487
12812TIP3   OH259850   0.222   5.527  14.893  0.1383  0.2404 -0.0975
12812TIP3    H159851   0.259   5.526  14.982  2.0246 -5.9232 -0.4535
12812TIP3    H259852   0.295   5.554  14.837  0.3271 -0.0715 -0.0066
12813TIP3   OH259853   6.141   4.685  10.689  0.3840 -0.4120  0.1661
12813TIP3    H159854   6.185   4.644  10.615 -1.3183  0.3020 -1.3182
12813TIP3    H259855   6.137   4.617  10.756  2.5193 -0.8786 -0.1132
12814TIP3   OH259856   2.733   4.700   4.242  0.0549 -0.3114  1.1813
12814TIP3    H159857   2.647   4.705   4.283 -0.7546  0.4016 -0.5126
12814TIP3    H259858   2.774   4.784   4.261 -1.3890  1.1657 -1.5593
12815TIP3   OH259859   1.974   1.936   5.696  0.1605 -0.0419 -0.5535
12815TIP3    H159860   1.990   2.020   5.738 -1.4760  0.5316 -1.0333
12815TIP3    H259861   1.992   1.872   5.765  0.6005  0.7211  0.0645
12816TIP3   OH259862   3.952   1.195   3.910  0.0230  0.0181 -0.5339
12816TIP3    H159863   3.913   1.276   3.876  0.9133  0.6421 -0.1172
12816TIP3    H259864   4.039   1.221   3.939 -0.4816 -0.5950  1.7042
12817TIP3   OH259865   4.408   6.525   3.780  0.8439 -0.4184 -0.0683
12817TIP3    H159866   4.382   6.548   3.869  1.4024  0.2321 -0.0626
12817TIP3    H259867   4.361   6.587   3.724  1.8215  0.3122 -0.1026
12818TIP3   OH259868   1.846   2.909   2.949 -0.3984  0.2036  0.2022
12818TIP3    H159869   1.765   2.935   2.906 -1.2523  1.3190  2.3135
12818TIP3    H259870   1.903   2.879   2.878 -1.4595  2.5104 -1.7526
12819TIP3   OH259871   2.331   4.885   1.315 -0.6322 -0.0107 -0.1466
12819TIP3    H159872   2.398   4.817   1.304 -0.6382 -0.2495  1.1769
12819TIP3    H259873   2.300   4.902   1.226  1.8391  0.7726 -0.9420
12820TIP3   OH259874   4.543   0.403   0.343  0.1708  0.0694  0.1134
12820TIP3    H159875   4.504   0.490   0.347  1.3664  0.6975 -0.9376
12820TIP3    H259876   4.610   0.403   0.412 -0.3383 -0.2975  0.6137
12821TIP3   OH259877   2.241   2.573   1.059 -0.2041 -0.4992 -0.2724
12821TIP3    H159878   2.274   2.564   0.969  0.0352 -0.8416 -0.1536
12821TIP3    H259879   2.167   2.512   1.063  1.2021 -2.2632  0.4312
12822TIP3   OH259880   5.167   2.290  12.315  0.0115  0.0332 -0.4302
12822TIP3    H159881   5.143   2.224  12.249  0.5279 -0.9641  0.3438
12822TIP3    H259882   5.134   2.372  12.279 -2.5689 -0.9257 -0.4803
12823TIP3   OH259883   0.781   3.485   0.959  0.0585 -0.0780  0.3572
12823TIP3    H159884   0.824   3.462   0.877  1.6466 -2.4573  1.7362
12823TIP3    H259885   0.846   3.536   1.007 -1.0161  1.6712  0.0265
12824TIP3   OH259886   5.098   0.818  11.089  0.2597 -0.3220 -0.6585
12824TIP3    H159887   5.117   0.800  10.997  2.7024 -0.1377 -0.2692
12824TIP3    H259888   5.012   0.861  11.089 -0.1111 -0.9828 -2.7514
12825TIP3   OH259889   6.178   1.631   1.004  0.1287  0.0320  0.5337
12825TIP3    H159890   6.193   1.554   0.950 -1.4349  0.1729 -0.1404
12825TIP3    H259891   6.247   1.692   0.978  0.7467 -0.7438  0.3293
12826TIP3   OH259892   1.252   1.155   3.799 -0.2074  0.8684  0.3979
12826TIP3    H159893   1.157   1.169   3.800 -0.3324  0.0554  0.9777
12826TIP3    H259894   1.263   1.063   3.823  0.6936  0.6797 -0.6433
12827TIP3   OH259895   0.685   1.513  13.465 -0.3826  0.0414  0.7793
12827TIP3    H159896   0.601   1.482  13.433 -0.0110 -0.4207  0.2336
12827TIP3    H259897   0.743   1.507  13.389  0.1709  0.2583  1.1782
12828TIP3   OH259898   6.107   5.715   4.284 -0.4924  0.3636 -0.3886
12828TIP3    H159899   6.166   5.752   4.349  0.6439 -0.7889 -0.7022
12828TIP3    H259900   6.021   5.749   4.306  0.1904  1.5836  0.4835
12829TIP3   OH259901   6.305   1.670  12.939  0.1691  0.0535  0.1738
12829TIP3    H159902   6.237   1.683  13.006 -0.1393 -0.8760  0.0589
12829TIP3    H259903   6.347   1.588  12.964  0.8951  0.3484 -0.0684
12830TIP3   OH259904   4.384   5.133   5.621  1.1417  0.5249  0.4704
12830TIP3    H159905   4.397   5.150   5.528  2.4554 -0.3603  0.4692
12830TIP3    H259906   4.289   5.131   5.632  0.9093  3.1809 -0.3494
12831TIP3   OH259907   4.240   0.824   1.840 -0.1871 -0.3708  0.5012
12831TIP3    H159908   4.165   0.825   1.780  1.3357  0.6041 -1.5132
12831TIP3    H259909   4.236   0.910   1.884 -0.3411 -0.3935  0.5337
12832TIP3   OH259910   4.298   5.766  15.788 -0.2988  0.5756  0.0713
12832TIP3    H159911   4.355   5.808  15.852  0.0857 -0.3734  0.3673
12832TIP3    H259912   4.218   5.819  15.788  0.3569  1.5922  0.0612
12833TIP3   OH259913   3.185   3.977  13.567  0.2153  0.2235 -0.2046
12833TIP3    H159914   3.236   4.030  13.505  1.5036  0.0151  0.6286
12833TIP3    H259915   3.094   3.993  13.543  0.6682 -0.0310 -2.2912
12834TIP3   OH259916   0.046   1.134  11.358  0.4669  0.4346 -0.3420
12834TIP3    H159917   0.035   1.088  11.276 -2.0376  1.1030 -0.4660
12834TIP3    H259918   0.007   1.220  11.343  1.9883  1.3997  0.8843
12835TIP3   OH259919   5.878   6.252   4.200 -0.0525  0.3084  0.3906
12835TIP3    H159920   5.916   6.243   4.287  1.1417 -1.3876 -0.2644
12835TIP3    H259921   5.945   6.296   4.148 -0.3946  0.4913  0.0982
12836TIP3   OH259922   0.431   0.569  13.677  0.0653  0.1671  0.2121
12836TIP3    H159923   0.509   0.516  13.660  0.0942  0.3566 -0.2568
12836TIP3    H259924   0.359   0.519  13.640 -0.0265  0.0449  0.5473
12837TIP3   OH259925   4.233   2.497   4.932 -0.0445  0.1859 -0.1641
12837TIP3    H159926   4.219   2.528   5.022 -0.8238  1.6783 -0.7704
12837TIP3    H259927   4.148   2.508   4.889  0.5718  0.4350 -1.3615
12838TIP3   OH259928   4.811   1.622  15.554  0.1559  0.0443 -0.5247
12838TIP3    H159929   4.863   1.616  15.634 -0.1524 -0.1560 -0.3366
12838TIP3    H259930   4.806   1.532  15.522 -1.9845 -0.3378  0.6941
12839TIP3   OH259931   3.370   1.087  16.738 -0.5069  0.0815 -0.6068
12839TIP3    H159932   3.381   1.062  16.830  5.1689  0.1528 -0.9443
12839TIP3    H259933   3.352   1.181  16.741  0.3612  0.2353  0.4678
12840TIP3   OH259934   1.983   0.001   5.310 -0.1829 -0.5785 -0.5775
12840TIP3    H159935   1.907   0.058   5.323 -0.6191 -1.3303  0.2487
12840TIP3    H259936   1.955  -0.084   5.342  1.2359 -0.7215  0.3521
12841TIP3   OH259937   3.666   2.119   2.033 -0.4550 -0.4056 -0.0098
12841TIP3    H159938   3.638   2.208   2.050  0.6713 -0.0517  0.0759
12841TIP3    H259939   3.715   2.093   2.111  2.2118  0.1776 -1.3557
12842TIP3   OH259940   1.356   1.516  16.789 -0.0444  0.4454  0.3535
12842TIP3    H159941   1.386   1.542  16.701 -0.3962  0.3416  0.1996
12842TIP3    H259942   1.355   1.420  16.786  0.7966  0.4121  0.7643
12843TIP3   OH259943   2.170   4.553   4.407 -1.1190  0.6691  0.3856
12843TIP3    H159944   2.228   4.487   4.446 -1.5912 -1.1457 -1.7407
12843TIP3    H259945   2.134   4.600   4.482 -1.6200 -2.2463  2.1670
12844TIP3   OH259946   0.446   4.852   4.335 -0.8176 -0.2109  0.4563
12844TIP3    H159947   0.512   4.810   4.390 -1.1276 -0.6629  0.4857
12844TIP3    H259948   0.496   4.904   4.272 -0.4582  0.5783  1.3644
12845TIP3   OH259949   3.692   2.142  13.025  0.6961  0.6398 -0.5575
12845TIP3    H159950   3.730   2.072  12.972 -1.4967  0.1862 -1.6305
12845TIP3    H259951   3.646   2.198  12.962 -0.3534  1.1856  0.6499
12846TIP3   OH259952   3.366   0.154   4.377 -0.2130 -0.8887 -0.3690
12846TIP3    H159953   3.314   0.097   4.433 -4.3193 -0.7044 -3.4945
12846TIP3    H259954   3.340   0.242   4.402 -0.4916 -0.7377 -1.1742
12847TIP3   OH259955   6.540   5.800  16.957  0.5065  0.2879  0.1148
12847TIP3    H159956   6.554   5.887  16.917 -1.5590  1.0114  0.8215
12847TIP3    H259957   6.510   5.819  17.045  0.6867 -1.1922  0.5159
12848TIP3   OH259958   1.946   0.116  11.914 -0.9612  0.8012  0.2523
12848TIP3    H159959   1.899   0.067  11.847 -0.3319  0.4007  0.0980
12848TIP3    H259960   1.878   0.150  11.971 -1.3783 -0.9978  0.8819
12849TIP3   OH259961   3.978   1.106   5.700 -0.0980  0.0243 -0.2692
12849TIP3    H159962   3.904   1.166   5.693 -0.0864  0.1634  0.6421
12849TIP3    H259963   4.045   1.143   5.642 -0.5988  0.1046 -0.8040
12850TIP3   OH259964   3.977   4.714  15.572  0.3677 -0.1353 -0.5007
12850TIP3    H159965   3.990   4.808  15.559  0.8495 -0.1461 -0.1187
12850TIP3    H259966   3.890   4.707  15.613  0.7221  0.2214  0.3359
12851TIP3   OH259967   2.766   3.883  13.748  0.3340 -0.5157 -0.0567
12851TIP3    H159968   2.795   3.841  13.829 -0.7749 -1.3934 -0.0820
12851TIP3    H259969   2.825   3.849  13.681  1.8282  0.8997  0.4864
12852TIP3   OH259970   6.369   5.243  16.921 -0.0254  0.0658 -0.6237
12852TIP3    H159971   6.290   5.231  16.868  0.1453  1.5118 -1.2468
12852TIP3    H259972   6.341   5.300  16.993  0.0795 -0.7535  0.0907
12853TIP3   OH259973   3.424   4.708   0.817 -0.2100  0.0012  0.5398
12853TIP3    H159974   3.474   4.737   0.894  1.7468 -1.9148  0.0682
12853TIP3    H259975   3.382   4.788   0.785  0.7565  1.2796  2.2703
12854TIP3   OH259976   3.798   3.005   4.625 -0.3952  0.3234 -0.4656
12854TIP3    H159977   3.829   3.074   4.684  0.0475 -0.5497  0.3482
12854TIP3    H259978   3.783   2.930   4.682  1.3540 -0.9795 -1.6306
12855TIP3   OH259979   1.295   0.513   0.847  0.2440  0.0847  0.8570
12855TIP3    H159980   1.387   0.488   0.833  0.1710  0.2326  0.0418
12855TIP3    H259981   1.262   0.530   0.759 -0.5827 -0.0085  1.1441
12856TIP3   OH259982   5.726   0.237  12.213  0.1992  0.2795  0.6751
12856TIP3    H159983   5.693   0.148  12.200  1.1362  0.0013  0.1499
12856TIP3    H259984   5.813   0.237  12.172 -0.9050  2.2354 -1.9799
12857TIP3   OH259985   5.867   6.164   5.040 -0.1425  0.1127  0.2056
12857TIP3    H159986   5.827   6.104   5.103 -1.2273  0.7289  0.1253
12857TIP3    H259987   5.800   6.231   5.025 -0.0996 -0.2534 -1.9291
12858TIP3   OH259988   0.887   5.789  16.706  0.7933  0.2822  0.4313
12858TIP3    H159989   0.876   5.700  16.738 -0.0748  1.0749  2.4977
12858TIP3    H259990   0.856   5.786  16.615  0.3966 -1.4317  0.5957
12859TIP3   OH259991   2.712   3.681   4.942  0.1122 -0.1929 -0.0094
12859TIP3    H159992   2.775   3.749   4.963 -0.0330 -0.1911  0.4219
12859TIP3    H259993   2.758   3.599   4.963  0.0055 -0.1962  0.2055
12860TIP3   OH259994   1.951   6.249   2.168  0.0850  0.6218  0.1460
12860TIP3    H159995   2.004   6.302   2.227  0.8691  0.5863 -0.5159
12860TIP3    H259996   1.994   6.164   2.167 -0.5522  0.2876  0.3564
12861TIP3   OH259997   2.232   5.762  13.617  0.4254  0.2211  0.2359
12861TIP3    H159998   2.181   5.761  13.698 -0.5645  2.0120 -0.3137
12861TIP3    H259999   2.199   5.687  13.567 -0.7035  0.5290  0.4883
12862TIP3   OH260000   0.395   1.228  12.733  0.1336 -0.1459 -0.3307
12862TIP3    H160001   0.310   1.217  12.691 -0.3275  1.0157  0.2432
12862TIP3    H260002   0.432   1.140  12.736 -0.9050 -0.6188 -0.8939
12863TIP3   OH260003   5.059   2.789   3.502 -1.0160 -0.1174 -0.0222
12863TIP3    H160004   5.079   2.850   3.431 -0.3663  0.3101  0.5122
12863TIP3    H260005   4.965   2.798   3.515 -0.6536  2.5117  1.5651
12864TIP3   OH260006   2.835   5.575   2.955  0.0923  0.8106  0.2242
12864TIP3    H160007   2.799   5.640   3.015  0.0614  0.8166  0.1990
12864TIP3    H260008   2.788   5.589   2.873  0.2667  0.9288  0.1424
12865TIP3   OH260009   2.849   3.781  11.041 -0.1364 -0.3758  0.6498
12865TIP3    H160010   2.833   3.733  10.960 -2.7006 -1.4657  1.6668
12865TIP3    H260011   2.908   3.725  11.091 -0.8588 -1.1453  0.6714
12866TIP3   OH260012   1.293   3.889   2.778 -0.0292 -0.0843  0.8002
12866TIP3    H160013   1.237   3.965   2.796  2.0464  0.9458  3.7313
12866TIP3    H260014   1.250   3.816   2.822 -0.4404  0.0825  0.6810
12867TIP3   OH260015   0.908   4.616  11.756  0.2078 -0.0329  0.0766
12867TIP3    H160016   0.933   4.587  11.668  0.8287  0.4808  0.0816
12867TIP3    H260017   0.819   4.648  11.745 -0.9322 -2.8120  0.2626
12868TIP3   OH260018   2.431   1.303  12.490  0.1008 -0.0522 -0.1618
12868TIP3    H160019   2.345   1.263  12.474 -0.2455  0.9824 -1.0497
12868TIP3    H260020   2.493   1.233  12.475 -0.6178 -1.2647  2.0574
12869TIP3   OH260021   3.641   6.657  14.925  0.4619  0.0488  0.5437
12869TIP3    H160022   3.659   6.715  14.851 -1.6863  0.0199 -0.0816
12869TIP3    H260023   3.727   6.630  14.956  1.5634  3.3808  0.7292
12870TIP3   OH260024   6.805   4.653  14.763 -0.4233 -0.0335 -0.0982
12870TIP3    H160025   6.833   4.744  14.758 -0.4193 -0.0695 -0.7359
12870TIP3    H260026   6.854   4.617  14.837  0.2960  0.2206 -0.4518
12871TIP3   OH260027   0.873   5.529   5.656 -0.7080 -0.5330 -0.1702
12871TIP3    H160028   0.884   5.622   5.678 -0.9487 -0.9450  1.8880
12871TIP3    H260029   0.788   5.506   5.694 -0.9354 -1.4479 -1.2181
12872TIP3   OH260030   5.472   6.704   0.481 -0.6831  1.0493  0.0306
12872TIP3    H160031   5.534   6.776   0.487  0.9512 -0.3504  0.7241
12872TIP3    H260032   5.521   6.628   0.511 -1.6769 -0.7539 -2.5465
12873TIP3   OH260033   4.262   6.033   3.734  0.0172  0.0343 -0.1834
12873TIP3    H160034   4.302   6.114   3.768 -0.3630  1.1190 -2.1828
12873TIP3    H260035   4.328   5.996   3.676  0.6666 -1.8208  1.5921
12874TIP3   OH260036   5.497   5.652   4.384  0.5412 -1.1405 -0.3794
12874TIP3    H160037   5.529   5.712   4.316 -0.3731 -2.4036 -1.9947
12874TIP3    H260038   5.481   5.709   4.460  2.0924  0.2357 -1.0189
12875TIP3   OH260039   1.678   5.166   5.877 -0.0560 -0.1695  0.5829
12875TIP3    H160040   1.707   5.257   5.888 -0.6030  0.3231 -1.6187
12875TIP3    H260041   1.589   5.165   5.912 -0.5644  0.5291 -0.6217
12876TIP3   OH260042   2.625   2.829   2.682  0.3081  0.3693 -0.6843
12876TIP3    H160043   2.547   2.779   2.706  1.0533 -1.3231 -1.6167
12876TIP3    H260044   2.607   2.918   2.712 -1.9138 -0.0062 -0.7655
12877TIP3   OH260045   4.335   2.745  12.056 -0.3899  0.0408 -0.1502
12877TIP3    H160046   4.337   2.663  12.105  2.6511  1.1085  1.8865
12877TIP3    H260047   4.344   2.720  11.965  2.2173 -1.9783  0.5278
12878TIP3   OH260048   0.143   4.368  17.026  0.0630  0.2215  0.7109
12878TIP3    H160049   0.097   4.375  16.942 -0.8517  0.9720  1.2506
12878TIP3    H260050   0.213   4.304  17.010  0.2885  0.7907 -0.7899
12879TIP3   OH260051   2.966   1.206  11.522 -0.0650  0.1455 -0.1310
12879TIP3    H160052   2.896   1.263  11.552 -0.4785 -0.0538 -0.7044
12879TIP3    H260053   2.962   1.130  11.580 -1.0629 -0.3816 -0.8676
12880TIP3   OH260054   3.618   6.443  14.234  0.2663  0.3852 -0.3461
12880TIP3    H160055   3.562   6.518  14.255  1.1066  0.4765  1.8526
12880TIP3    H260056   3.561   6.367  14.242  0.0090  0.6116  0.0002
12881TIP3   OH260057   3.995   4.531   6.468  0.4679  0.2640  0.4824
12881TIP3    H160058   3.924   4.490   6.517  0.3115 -0.8763 -0.6434
12881TIP3    H260059   4.069   4.471   6.478  0.3580 -0.1437 -0.8368
12882TIP3   OH260060   2.108   3.619  15.493 -0.6258 -0.2652 -0.2228
12882TIP3    H160061   2.168   3.591  15.562  0.0074 -1.5437 -1.2478
12882TIP3    H260062   2.164   3.661  15.428 -1.2901  1.4413  0.2614
12883TIP3   OH260063   1.354   6.012  15.858 -0.0294  0.0904  0.0169
12883TIP3    H160064   1.400   6.087  15.820  0.8042 -0.4402 -0.0341
12883TIP3    H260065   1.403   5.992  15.938 -0.1891 -0.4552 -0.0203
12884TIP3   OH260066   6.646   3.849  16.217  0.1819 -0.1390 -0.2778
12884TIP3    H160067   6.680   3.938  16.229 -0.3903  0.0164  0.2540
12884TIP3    H260068   6.722   3.793  16.228  0.3197  0.2171  0.7153
12885TIP3   OH260069   5.167   2.796   1.953 -0.5115 -0.2649 -0.0717
12885TIP3    H160070   5.085   2.828   1.915 -0.1402 -1.2550 -1.8097
12885TIP3    H260071   5.216   2.876   1.976 -0.3860  0.4641 -2.5784
12886TIP3   OH260072   0.843   2.093  16.745 -0.1507 -0.4711 -0.3936
12886TIP3    H160073   0.812   2.154  16.812 -0.9588  0.3788 -1.4986
12886TIP3    H260074   0.776   2.025  16.741 -1.3063  0.6878 -1.8861
12887TIP3   OH260075   6.025   0.204   3.115  0.5596  0.8220 -0.4478
12887TIP3    H160076   6.114   0.216   3.148  0.6248  0.3572 -0.4546
12887TIP3    H260077   6.028   0.239   3.026  0.2858  2.4360  0.1356
12888TIP3   OH260078   5.712   2.830  13.401 -0.0810  0.0570 -0.0649
12888TIP3    H160079   5.779   2.864  13.459 -0.8000  1.0706  0.2086
12888TIP3    H260080   5.678   2.753  13.445 -0.8753  1.0219  1.0901
12889TIP3   OH260081   1.016   0.427   0.869 -0.3869  0.5847  0.5284
12889TIP3    H160082   1.108   0.447   0.886  0.2356  0.7294 -2.4038
12889TIP3    H260083   0.973   0.513   0.862 -0.3779  0.5680  0.2515
12890TIP3   OH260084   4.667   5.368  12.477  0.1966 -0.3283 -0.3430
12890TIP3    H160085   4.602   5.392  12.410  1.5829 -0.4039 -1.7675
12890TIP3    H260086   4.693   5.451  12.517 -0.3655 -0.2466 -0.1358
12891TIP3   OH260087   2.640   3.819   1.316  0.1685 -0.3788  0.4108
12891TIP3    H160088   2.721   3.852   1.279 -1.1736  0.1162 -2.3222
12891TIP3    H260089   2.633   3.863   1.401  1.8928  0.8712 -0.0363
12892TIP3   OH260090   0.096   4.758   3.734 -0.0224 -0.3360 -0.0397
12892TIP3    H160091   0.185   4.751   3.771  0.0390  1.1225  0.1669
12892TIP3    H260092   0.066   4.845   3.762 -1.5780 -0.8559 -0.0019
12893TIP3   OH260093   6.637   1.484  14.921 -0.0271  0.4411  0.3321
12893TIP3    H160094   6.664   1.553  14.861  0.0216 -0.3236 -0.5582
12893TIP3    H260095   6.695   1.493  14.996  0.1603  1.1889  0.1077
12894TIP3   OH260096   1.856   6.783   1.961  0.3828 -0.2850 -0.1030
12894TIP3    H160097   1.796   6.851   1.993 -0.7168 -0.0541 -2.4869
12894TIP3    H260098   1.832   6.705   2.012 -1.8491 -0.1420 -0.8190
12895TIP3   OH260099   6.018   1.752  14.988  0.5752  0.1109 -0.7559
12895TIP3    H160100   6.020   1.827  14.928  0.9367 -0.3775 -1.3670
12895TIP3    H260101   6.099   1.759  15.038  0.7843 -0.0678 -1.0654
12896TIP3   OH260102   5.245   4.517  12.250 -0.1504  0.0266 -0.4360
12896TIP3    H160103   5.336   4.518  12.219  0.2755 -0.1356  0.7193
12896TIP3    H260104   5.192   4.536  12.173  1.0602  4.3967 -0.4819
12897TIP3   OH260105   3.755   1.243   2.727 -0.4143  0.1351  0.0655
12897TIP3    H160106   3.679   1.203   2.683 -0.6323 -0.8188  1.2724
12897TIP3    H260107   3.746   1.217   2.819  0.6004  1.2260  0.4945
12898TIP3   OH260108   1.401   4.184   5.803 -0.0179 -0.5781 -0.0842
12898TIP3    H160109   1.410   4.165   5.709  1.4640  1.2097 -0.3821
12898TIP3    H260110   1.355   4.268   5.805  0.9984 -0.0260  0.7220
12899TIP3   OH260111   1.995   0.160  15.881 -0.0303  0.0065  0.6617
12899TIP3    H160112   2.014   0.125  15.968 -0.8341 -1.6263  0.2146
12899TIP3    H260113   2.057   0.233  15.870 -0.2097  0.5229  2.7456
12900TIP3   OH260114   2.838   1.793  12.511 -0.3844 -0.4227 -0.3077
12900TIP3    H160115   2.828   1.716  12.568 -1.1410 -1.7510 -2.1401
12900TIP3    H260116   2.851   1.866  12.572  0.1564 -1.9460  1.5109
12901TIP3   OH260117   5.915   3.933  14.896  0.6343  0.5001  0.7494
12901TIP3    H160118   5.916   3.838  14.909 -0.1670  0.4425  0.4675
12901TIP3    H260119   5.832   3.961  14.935 -1.3845  0.4536 -3.0440
12902TIP3   OH260120   1.409   3.480   0.996 -0.7686 -0.0483 -0.3507
12902TIP3    H160121   1.437   3.473   0.905 -1.7468 -0.7993 -0.6124
12902TIP3    H260122   1.332   3.536   0.993 -0.5303  0.3091  0.0845
12903TIP3   OH260123   6.373   4.414  16.127  0.0922  0.2595 -0.0027
12903TIP3    H160124   6.282   4.389  16.142 -0.5638  1.9057 -1.0213
12903TIP3    H260125   6.413   4.336  16.090 -0.7255 -0.6761  1.0051
12904TIP3   OH260126   0.133   6.158   3.140  0.1776  0.0729  0.0143
12904TIP3    H160127   0.157   6.092   3.075 -0.5754  0.6101 -0.8284
12904TIP3    H260128   0.127   6.109   3.222  0.2649 -0.7884 -0.4778
12905TIP3   OH260129   0.181   5.122   6.260 -0.0711 -0.1155  0.5878
12905TIP3    H160130   0.222   5.097   6.343  0.9163  0.5167  0.3157
12905TIP3    H260131   0.160   5.039   6.218  0.3547 -0.4569  1.0287
12906TIP3   OH260132   3.523   0.046   5.442  0.2283  0.2516 -0.6123
12906TIP3    H160133   3.561  -0.042   5.450  0.9856  0.5708 -0.6403
12906TIP3    H260134   3.572   0.099   5.504  0.8869  1.0068 -1.7327
12907TIP3   OH260135   4.425   1.511  15.912 -0.3746 -0.0102 -0.2465
12907TIP3    H160136   4.505   1.549  15.876  0.9685 -1.1524  1.3700
12907TIP3    H260137   4.393   1.453  15.843  2.1977 -2.2474  0.2535
12908TIP3   OH260138   1.397   0.200  14.238  0.1289 -0.3709  0.0108
12908TIP3    H160139   1.375   0.107  14.247 -1.0082 -0.2171 -1.0201
12908TIP3    H260140   1.389   0.235  14.327  0.2288 -1.1704  0.3470
12909TIP3   OH260141   0.778   4.565  14.216 -0.0496 -0.0355  0.0978
12909TIP3    H160142   0.760   4.629  14.286 -0.5330 -0.1945  0.1274
12909TIP3    H260143   0.812   4.489  14.262 -0.8623 -0.3360  0.2327
12910TIP3   OH260144   1.171   6.017  11.208  0.4915  0.2875 -0.5357
12910TIP3    H160145   1.258   6.042  11.177  1.5143 -1.4660  0.7326
12910TIP3    H260146   1.118   6.096  11.199  2.2797  1.4628 -1.1086
12911TIP3   OH260147   2.002   2.990   2.595  0.1243 -0.6135 -0.8015
12911TIP3    H160148   2.043   3.049   2.531 -1.3953  0.4987 -0.8191
12911TIP3    H260149   1.931   2.948   2.546 -2.3251  1.6998  0.5122
12912TIP3   OH260150   3.478   5.954   0.822  0.2111 -0.1361  0.3985
12912TIP3    H160151   3.541   5.896   0.865  0.6751  0.6247  0.7496
12912TIP3    H260152   3.508   6.042   0.842 -0.7264  0.2395  0.2157
12913TIP3   OH260153   1.498   3.792  10.305 -0.0901  0.2265 -0.4866
12913TIP3    H160154   1.449   3.755  10.232  0.8778 -1.4862 -0.3224
12913TIP3    H260155   1.588   3.763  10.291  0.3316  0.8523  0.7642
12914TIP3   OH260156   0.946   1.286  10.297  0.0640 -0.1652  0.0440
12914TIP3    H160157   0.937   1.278  10.392  0.3969  1.6852  0.2647
12914TIP3    H260158   1.032   1.327  10.285 -0.7364  1.3154 -0.9341
12915TIP3   OH260159   3.260   4.078   0.675  0.1635 -0.2172  0.1021
12915TIP3    H160160   3.171   4.100   0.647 -0.1994 -1.7629 -0.0336
12915TIP3    H260161   3.305   4.163   0.680 -0.8382  0.4599 -1.4400
12916TIP3   OH260162   4.316   4.122  11.141 -0.0875  0.1521  0.2890
12916TIP3    H160163   4.239   4.177  11.154  0.9640  1.4717  1.2517
12916TIP3    H260164   4.308   4.053  11.207 -0.8655 -0.2121 -0.1837
12917TIP3   OH260165   3.210   5.488  15.141  0.6529  0.2390 -0.2533
12917TIP3    H160166   3.148   5.538  15.089  1.2993  1.0371 -0.2768
12917TIP3    H260167   3.160   5.458  15.216 -0.1190 -0.3533 -0.9893
12918TIP3   OH260168   3.660   0.605   3.226 -0.1368  0.1169  0.2430
12918TIP3    H160169   3.590   0.658   3.190 -1.1089 -0.4000  1.2899
12918TIP3    H260170   3.657   0.622   3.320  0.8006 -0.3207  0.3645
12919TIP3   OH260171   1.685   0.275   2.379  0.0917 -0.1199 -0.5279
12919TIP3    H160172   1.771   0.303   2.347  0.1728  2.9114  1.8792
12919TIP3    H260173   1.702   0.241   2.466 -1.1786  1.3900  0.3651
12920TIP3   OH260174   6.259   0.173   0.254  0.1549 -0.7233  0.1297
12920TIP3    H160175   6.240   0.172   0.160  0.2948 -2.6025  0.0811
12920TIP3    H260176   6.322   0.244   0.266  0.4619 -0.7399 -1.2744
12921TIP3   OH260177   4.246   4.168  13.744 -0.3401  1.0286 -0.5931
12921TIP3    H160178   4.239   4.220  13.664  1.1007  1.5668 -0.3899
12921TIP3    H260179   4.215   4.227  13.813 -0.6598  0.8932 -0.6167
12922TIP3   OH260180   0.398   4.355   3.805  0.6594 -0.6359 -0.5380
12922TIP3    H160181   0.372   4.398   3.887  0.8983 -0.2500 -0.6628
12922TIP3    H260182   0.493   4.346   3.812  0.8504  0.5652 -1.3217
12923TIP3   OH260183   0.451   3.059  10.205  0.2863 -0.1127  0.0096
12923TIP3    H160184   0.432   3.127  10.270 -0.3694  0.6419 -0.9413
12923TIP3    H260185   0.397   2.985  10.231  0.7922 -0.1800  0.8964
12924TIP3   OH260186   3.164   3.959   3.472  0.1917 -0.2943 -0.3444
12924TIP3    H160187   3.167   3.906   3.392  2.7066  0.9006 -1.1567
12924TIP3    H260188   3.073   3.954   3.501 -0.5884 -1.5451 -2.7415
12925TIP3   OH260189   4.498   3.267  16.942  0.2522  0.1226 -0.2223
12925TIP3    H160190   4.561   3.339  16.952  0.2107  0.1281  0.0265
12925TIP3    H260191   4.466   3.274  16.852  1.3261 -0.4699 -0.6674
12926TIP3   OH260192   1.199   1.564  13.320 -0.1698  0.1012  0.4431
12926TIP3    H160193   1.256   1.490  13.341 -1.2763 -0.6915  0.7369
12926TIP3    H260194   1.224   1.588  13.230  0.8591  0.0075  0.6935
12927TIP3   OH260195   6.650   0.854  15.302  0.0744  0.2615  0.1494
12927TIP3    H160196   6.611   0.839  15.217  1.7714 -1.5273 -0.3749
12927TIP3    H260197   6.579   0.838  15.365 -1.3218  2.0857 -0.8720
12928TIP3   OH260198   4.085   6.028   0.069 -0.0656 -0.0773  0.6059
12928TIP3    H160199   4.009   5.983   0.034 -0.5730  0.9045  0.4143
12928TIP3    H260200   4.132   5.961   0.119 -1.6739 -0.4345  1.7169
12929TIP3   OH260201   3.955   1.418  14.213  0.6450  0.3523  0.6017
12929TIP3    H160202   3.989   1.507  14.211  0.5799  0.3711 -0.3065
12929TIP3    H260203   4.006   1.374  14.281  2.3968  0.4202 -0.5964
12930TIP3   OH260204   0.006   2.379  16.101 -0.1177 -0.4099  0.3642
12930TIP3    H160205  -0.063   2.314  16.116 -0.1055 -0.7403 -0.8770
12930TIP3    H260206  -0.041   2.457  16.072 -0.0053 -0.4684  0.0244
12931TIP3   OH260207   6.168   5.280  15.593  0.2568  0.5301 -0.4391
12931TIP3    H160208   6.145   5.270  15.686 -0.9820  0.2241 -0.7626
12931TIP3    H260209   6.084   5.283  15.548  0.7955  2.4366 -1.3991
12932TIP3   OH260210   1.457   0.625   5.738  0.3299  0.3814 -0.4217
12932TIP3    H160211   1.387   0.566   5.709 -0.3508  1.0797 -0.2622
12932TIP3    H260212   1.524   0.568   5.773 -1.2416 -0.2467  1.7568
12933TIP3   OH260213   6.384   6.362   0.815  0.3407 -0.0408  0.2986
12933TIP3    H160214   6.417   6.369   0.726  0.3740 -0.9783  0.2294
12933TIP3    H260215   6.448   6.307   0.861 -0.8246 -1.4401  0.2996
12934TIP3   OH260216   2.951   2.954  16.560 -0.0063  0.3604  0.8248
12934TIP3    H160217   2.889   2.972  16.631  0.5768  0.3640  1.3425
12934TIP3    H260218   2.904   2.896  16.501 -0.7775  0.9920  0.8072
12935TIP3   OH260219   3.221   6.556   3.316 -0.7334  0.3684  0.2337
12935TIP3    H160220   3.309   6.558   3.354 -1.1031 -0.3796  1.1551
12935TIP3    H260221   3.188   6.645   3.326 -0.9011  0.1522  1.8759
12936TIP3   OH260222   4.121   2.121   5.395  0.8862 -0.1010 -0.3618
12936TIP3    H160223   4.027   2.113   5.411  0.8010  2.1000  0.5100
12936TIP3    H260224   4.148   2.201   5.441  3.1842 -0.6232 -0.6352
12937TIP3   OH260225   1.855   1.378  16.256  0.3986 -0.6309  0.5394
12937TIP3    H160226   1.787   1.431  16.215  0.0463 -0.5709  1.1887
12937TIP3    H260227   1.929   1.438  16.268  1.2449 -1.1144 -1.7648
12938TIP3   OH260228   6.134   1.196  14.879  0.0341  0.5452 -0.4745
12938TIP3    H160229   6.117   1.180  14.786  1.5960 -0.3898 -0.6364
12938TIP3    H260230   6.166   1.286  14.883 -1.5674  1.1545 -0.5945
12939TIP3   OH260231   2.052   3.885   3.777  0.5571 -0.3982  0.2461
12939TIP3    H160232   2.025   3.820   3.842 -1.1111 -1.5788 -1.5155
12939TIP3    H260233   1.982   3.950   3.778  0.7349 -0.1997 -0.0681
12940TIP3   OH260234   6.201   3.021  15.097 -0.5382 -0.1327  0.0772
12940TIP3    H160235   6.198   2.996  15.004 -0.8589 -0.7812  0.2559
12940TIP3    H260236   6.266   2.962  15.135 -0.7499 -0.1889  0.3545
12941TIP3   OH260237   0.257   3.065  16.493  0.1612  0.1462  0.1633
12941TIP3    H160238   0.186   3.009  16.461 -0.5759  2.1236 -1.8537
12941TIP3    H260239   0.268   3.038  16.585 -2.5391 -0.8686  0.2828
12942TIP3   OH260240   6.004   5.835  13.188  0.4075  0.4999  0.4281
12942TIP3    H160241   5.921   5.881  13.177  0.0153 -0.5493 -1.5773
12942TIP3    H260242   5.980   5.744  13.200  1.2271 -0.0769 -1.7906
12943TIP3   OH260243   5.900   4.052  13.986 -0.1258 -0.0122  0.2713
12943TIP3    H160244   5.889   3.996  13.910 -0.3205  1.3273 -0.7392
12943TIP3    H260245   5.965   4.117  13.959 -0.8776  1.0380  0.8999
12944TIP3   OH260246   1.368   1.752   1.263 -0.0529 -0.0320  0.0114
12944TIP3    H160247   1.306   1.682   1.243 -0.7692  0.5837  0.0117
12944TIP3    H260248   1.436   1.710   1.316 -1.6637 -0.2907  2.0377
12945TIP3   OH260249   1.947   4.145  12.116 -0.1298 -0.1549  0.0933
12945TIP3    H160250   1.936   4.160  12.210  1.6515  0.8823  0.1717
12945TIP3    H260251   1.963   4.231  12.079  0.1555 -0.6658 -1.0237
12946TIP3   OH260252   1.077   4.086   1.624 -0.0296  0.2005  0.4367
12946TIP3    H160253   1.001   4.028   1.617  1.3117 -1.5708 -0.1647
12946TIP3    H260254   1.040   4.174   1.629 -2.0916 -0.5407 -0.6886
12947TIP3   OH260255   3.172   6.283   2.764 -0.6007  0.1084 -0.2760
12947TIP3    H160256   3.162   6.191   2.738 -1.1198  0.7436 -2.5551
12947TIP3    H260257   3.207   6.326   2.685  0.1247  1.7836  0.9102
12948TIP3   OH260258   5.017   3.382  16.162 -0.0958 -0.5862  0.2828
12948TIP3    H160259   5.055   3.423  16.240  0.8605  1.8677 -1.3414
12948TIP3    H260260   4.932   3.424  16.152  0.3253  0.0853 -0.6587
12949TIP3   OH260261   3.339   3.483   5.398  0.0930  0.0308  0.7314
12949TIP3    H160262   3.310   3.540   5.469  1.2250 -0.7872  1.8869
12949TIP3    H260263   3.336   3.539   5.320  2.3212  2.0851  2.0021
12950TIP3   OH260264   5.446   3.214   2.140 -0.1611 -0.3686 -0.8142
12950TIP3    H160265   5.466   3.181   2.228 -0.5130  0.7678 -0.2853
12950TIP3    H260266   5.530   3.211   2.093  0.1583 -0.4292 -0.2460
12951TIP3   OH260267   6.418   2.636  14.141  0.6653  0.4412  0.1920
12951TIP3    H160268   6.371   2.718  14.135 -1.3130 -0.7333 -3.7618
12951TIP3    H260269   6.464   2.628  14.057  0.4566 -2.6181  0.2548
12952TIP3   OH260270   2.424   5.614  16.910 -0.0444 -0.5458 -0.6063
12952TIP3    H160271   2.444   5.582  16.822  1.0559 -0.0596 -0.5577
12952TIP3    H260272   2.354   5.556  16.941  0.6885 -1.7963 -1.1776
12953TIP3   OH260273   5.012   1.836   5.077  0.5437 -0.1571  0.4224
12953TIP3    H160274   4.922   1.839   5.044  1.0574  3.1441 -1.0759
12953TIP3    H260275   5.004   1.812   5.169 -1.7092 -1.1379  0.0270
12954TIP3   OH260276   6.066   1.631  15.735  0.1516  0.3794 -0.3709
12954TIP3    H160277   6.137   1.691  15.714  1.3135 -1.2549 -1.3231
12954TIP3    H260278   6.047   1.585  15.653  0.3521 -1.5811  0.6057
12955TIP3   OH260279   4.442   1.422  14.402  0.2731  0.4261 -0.1144
12955TIP3    H160280   4.479   1.422  14.314  2.0040  0.1427  0.5748
12955TIP3    H260281   4.433   1.515  14.424 -1.1965  0.5234 -0.9556
12956TIP3   OH260282   4.052   0.930  13.772  0.1866  0.3649 -0.9393
12956TIP3    H160283   4.021   1.020  13.779 -0.9100 -0.0306 -0.6441
12956TIP3    H260284   3.974   0.876  13.783  1.0635 -0.6769  0.6311
12957TIP3   OH260285   2.760   5.778   4.883 -0.5896 -0.0944 -0.0037
12957TIP3    H160286   2.692   5.717   4.854 -1.9465  1.2167  0.3240
12957TIP3    H260287   2.841   5.728   4.876 -1.2958 -1.0540 -2.4133
12958TIP3   OH260288   2.074   0.628  12.025  0.1041 -0.4886 -0.0469
12958TIP3    H160289   2.023   0.554  11.993  1.1497 -1.2194 -0.0649
12958TIP3    H260290   2.147   0.589  12.073  0.7699  0.5199 -0.1894
12959TIP3   OH260291   0.771   2.511   5.409  0.0690 -0.3865  0.6421
12959TIP3    H160292   0.853   2.528   5.363  0.8390 -1.1014  1.6918
12959TIP3    H260293   0.707   2.498   5.340  0.6177  1.1196 -0.2095
12960TIP3   OH260294   1.007   4.042   2.000  0.7139  0.1040 -0.5023
12960TIP3    H160295   1.082   4.029   1.943  0.4727 -0.3781 -0.7182
12960TIP3    H260296   0.942   3.977   1.970  0.1173  0.6825 -0.4888
12961TIP3   OH260297   3.876   4.188   1.878 -0.2864  0.0125 -0.2518
12961TIP3    H160298   3.825   4.126   1.826  0.4372  1.5575 -3.0071
12961TIP3    H260299   3.839   4.273   1.857  1.7236  0.9317 -0.3304
12962TIP3   OH260300   2.258   2.972  12.008  0.3427 -0.2537 -0.6632
12962TIP3    H160301   2.238   3.063  11.985  1.2887 -0.1487 -1.1389
12962TIP3    H260302   2.200   2.953  12.082  2.0261  1.6373  1.2820
12963TIP3   OH260303   4.070   2.306  14.956  0.3725  0.0319  0.2028
12963TIP3    H160304   4.082   2.245  15.028 -0.1134  0.8201  0.9623
12963TIP3    H260305   4.125   2.382  14.979  0.7875 -0.0054 -0.6145
12964TIP3   OH260306   0.048   3.575  13.422  0.2322 -0.0602 -0.2205
12964TIP3    H160307   0.022   3.657  13.465  2.5774  1.2565 -1.0838
12964TIP3    H260308   0.111   3.535  13.482 -0.0069 -0.6281 -0.3409
12965TIP3   OH260309   1.580   2.506   3.628 -0.1236 -0.1925 -0.0445
12965TIP3    H160310   1.639   2.488   3.701 -0.3623  0.9107  0.4331
12965TIP3    H260311   1.499   2.460   3.650 -0.4416  0.7142  0.7539
12966TIP3   OH260312   3.139   4.127  11.285  0.4403  0.1294 -0.1078
12966TIP3    H160313   3.067   4.174  11.242 -1.0700 -1.2996  0.7330
12966TIP3    H260314   3.209   4.126  11.220 -0.8951  0.1397 -1.6158
12967TIP3   OH260315   3.849   4.455  15.433  0.1331 -0.1101 -0.1477
12967TIP3    H160316   3.777   4.480  15.376  0.0332  0.8509  0.3794
12967TIP3    H260317   3.906   4.532  15.435 -0.7441  0.5798  2.4081
12968TIP3   OH260318   6.543   0.516  16.803  0.0709 -0.2317 -0.6464
12968TIP3    H160319   6.605   0.479  16.865  1.3861  1.3293 -0.9717
12968TIP3    H260320   6.593   0.579  16.753 -1.7882  1.1754 -0.8674
12969TIP3   OH260321   4.040   5.675   5.887 -0.3050 -0.5818 -0.2092
12969TIP3    H160322   4.050   5.607   5.954 -3.0347  0.2288  1.1965
12969TIP3    H260323   4.027   5.755   5.937  0.7956  0.6348 -1.8053
12970TIP3   OH260324   6.460   3.903   4.011  0.2821 -0.0802 -0.4389
12970TIP3    H160325   6.395   3.921   4.079  0.1682  0.5589 -0.7026
12970TIP3    H260326   6.503   3.823   4.039 -0.3088 -0.2598 -0.0237
12971TIP3   OH260327   1.030   0.445  16.162  0.0862 -0.4802 -0.6743
12971TIP3    H160328   1.015   0.441  16.067 -0.7165  0.7092 -0.6304
12971TIP3    H260329   0.944   0.430  16.201  0.4245 -1.0317 -0.1252
12972TIP3   OH260330   5.808   4.439  10.770 -0.1404  0.1488 -0.5939
12972TIP3    H160331   5.731   4.401  10.729 -1.0747 -1.3484  2.2828
12972TIP3    H260332   5.773   4.504  10.830  0.8578 -0.2261  0.4278
12973TIP3   OH260333   1.621   5.947  12.497  0.2646 -0.1395  0.1605
12973TIP3    H160334   1.658   5.870  12.455  0.8755  0.5565 -0.5999
12973TIP3    H260335   1.544   5.968  12.444 -0.2876 -0.5950  0.7556
12974TIP3   OH260336   1.751   1.727   0.553  0.9738  0.1783  0.2177
12974TIP3    H160337   1.663   1.724   0.591  0.3662 -0.0165 -1.1120
12974TIP3    H260338   1.800   1.660   0.599  0.0297 -0.6042  0.1169
12975TIP3   OH260339   2.107   5.686   0.164  0.2004  0.1979  0.6014
12975TIP3    H160340   2.116   5.731   0.080  0.3204  0.8231  0.9428
12975TIP3    H260341   2.173   5.616   0.161 -0.1888 -0.1572 -0.0508
12976TIP3   OH260342   5.244   6.004  13.529 -0.2742 -0.1717 -0.4945
12976TIP3    H160343   5.220   6.092  13.558 -0.5509 -0.0589 -1.0492
12976TIP3    H260344   5.316   5.979  13.586  0.4831  0.8206 -0.9806
12977TIP3   OH260345   5.310   6.437   1.297  0.2536  0.6121 -0.4002
12977TIP3    H160346   5.390   6.464   1.344  0.3662  0.6067 -0.5859
12977TIP3    H260347   5.303   6.500   1.225  0.6996 -0.0434 -1.0346
12978TIP3   OH260348   5.322   5.517  13.154 -0.1574  0.1690  0.4252
12978TIP3    H160349   5.279   5.602  13.169 -0.2919  0.2215 -0.2416
12978TIP3    H260350   5.369   5.500  13.236  1.0632  1.5764  0.0644
12979TIP3   OH260351   2.611   2.769  16.989 -0.2279  0.6983 -0.2986
12979TIP3    H160352   2.535   2.732  17.034 -0.2743 -0.1618 -1.0585
12979TIP3    H260353   2.639   2.841  17.045 -1.6343  1.0665 -0.0355
12980TIP3   OH260354   2.848   0.432   3.872 -0.0754  0.1837  0.3084
12980TIP3    H160355   2.917   0.494   3.892 -0.5437  0.2376  1.9249
12980TIP3    H260356   2.888   0.369   3.812  1.5288 -0.0551  1.5719
12981TIP3   OH260357   2.750   4.949  16.127  0.0826 -0.0587  0.0896
12981TIP3    H160358   2.676   5.009  16.137 -1.2598 -1.6172 -0.1053
12981TIP3    H260359   2.764   4.942  16.033  0.8102  0.6039  0.1411
12982TIP3   OH260360   2.306   3.804  11.257 -0.0025 -0.0803 -0.0132
12982TIP3    H160361   2.272   3.891  11.237 -0.1474 -0.3287 -0.9317
12982TIP3    H260362   2.373   3.818  11.323  0.0683  0.7451 -0.2506
12983TIP3   OH260363   3.146   3.834   0.300 -0.4118 -0.2335 -0.6832
12983TIP3    H160364   3.227   3.833   0.351 -1.4962 -0.6182  1.1429
12983TIP3    H260365   3.099   3.756   0.329 -2.6935  1.4605  0.5736
12984TIP3   OH260366   0.890   0.026  11.813 -0.1819 -0.1143  0.4931
12984TIP3    H160367   0.845  -0.025  11.880 -0.7567 -0.9376 -0.4962
12984TIP3    H260368   0.893  -0.031  11.737 -0.2287  1.0874 -0.4376
12985TIP3   OH260369   3.860   0.774  13.900 -0.3866 -0.3515 -0.2546
12985TIP3    H160370   3.875   0.682  13.919  0.4955 -0.1018  0.3124
12985TIP3    H260371   3.898   0.821  13.975 -2.9321  0.3902  0.6999
12986TIP3   OH260372   2.384   3.206   5.979  0.3583 -0.7795  0.1161
12986TIP3    H160373   2.454   3.169   5.925  0.5196  0.1775 -0.3588
12986TIP3    H260374   2.381   3.298   5.954 -2.1864 -1.0924 -1.1028
12987TIP3   OH260375   6.070   3.689  15.873  0.2585 -0.6657 -0.4828
12987TIP3    H160376   6.119   3.733  15.942 -0.7484 -0.2597 -0.0114
12987TIP3    H260377   6.104   3.727  15.792  0.0641  0.3113 -0.1204
12988TIP3   OH260378   1.621   0.071  11.060  0.1949 -0.7976 -0.4212
12988TIP3    H160379   1.679   0.035  10.994  1.8795  1.0085 -0.0020
12988TIP3    H260380   1.656   0.041  11.143  1.8312  1.8316 -0.0342
12989TIP3   OH260381   1.374   1.741   2.391  0.1696  0.3827  0.2005
12989TIP3    H160382   1.392   1.799   2.317  1.0920  1.0299  0.9064
12989TIP3    H260383   1.309   1.679   2.358  0.8126  0.4379 -1.2599
12990TIP3   OH260384   3.053   3.780   4.650  0.8113  0.6883  0.2267
12990TIP3    H160385   3.144   3.751   4.647  0.1612 -1.5126 -0.7309
12990TIP3    H260386   3.008   3.712   4.701 -0.8359 -0.2094 -2.2169
12991TIP3   OH260387   0.960   6.303  16.066  0.5375  0.7825  0.4115
12991TIP3    H160388   0.978   6.278  16.157 -1.0449  1.2443  0.8886
12991TIP3    H260389   0.966   6.221  16.017 -0.3435  0.1905  1.2491
12992TIP3   OH260390   5.136   5.252  14.637 -0.0300 -0.3738 -0.1434
12992TIP3    H160391   5.069   5.318  14.654 -0.6428 -0.7212 -1.1153
12992TIP3    H260392   5.092   5.187  14.582  0.8402 -1.0940 -0.0161
12993TIP3   OH260393   0.276   3.794  15.629 -0.3819  0.3154 -0.6428
12993TIP3    H160394   0.360   3.754  15.607 -0.8281 -1.0083 -0.0821
12993TIP3    H260395   0.212   3.741  15.582 -1.0055  0.2987  0.1973
12994TIP3   OH260396   0.324   2.286   3.807  0.6631 -0.6584  0.0367
12994TIP3    H160397   0.242   2.292   3.857  0.6260  1.2488 -0.1884
12994TIP3    H260398   0.323   2.363   3.750  1.7782 -1.5747 -1.2863
12995TIP3   OH260399   6.713   5.328   5.475  0.3687  0.1812 -0.1619
12995TIP3    H160400   6.805   5.344   5.498  0.3389 -0.2722  0.2828
12995TIP3    H260401   6.699   5.236   5.495 -0.4528  0.4728  0.6506
12996TIP3   OH260402   3.156   6.620  11.359 -0.8484 -0.2620 -0.3237
12996TIP3    H160403   3.088   6.680  11.328  0.7398  0.8377 -1.9307
12996TIP3    H260404   3.167   6.558  11.288 -0.8698 -1.0598  0.3608
12997TIP3   OH260405   2.702   2.982  11.560 -0.6036 -0.3963  0.2218
12997TIP3    H160406   2.609   2.976  11.539 -0.3150 -0.4734 -1.1557
12997TIP3    H260407   2.746   2.957  11.479  0.6284  0.5782  0.5597
12998TIP3   OH260408   1.429   4.679   4.853  0.4475  0.5535 -0.4678
12998TIP3    H160409   1.469   4.600   4.815  0.8625 -0.2370  1.4916
12998TIP3    H260410   1.340   4.680   4.818  0.2430 -1.1410 -0.0834
12999TIP3   OH260411   1.966   1.904  14.060 -0.1630  0.0223 -0.5520
12999TIP3    H160412   1.889   1.934  14.010 -0.5398  0.8990  0.5255
12999TIP3    H260413   1.930   1.844  14.125  0.0630  0.4225 -0.0537
13000TIP3   OH260414   5.706   3.826   1.587 -0.1603 -0.3607  0.1231
13000TIP3    H160415   5.673   3.875   1.511  0.0051  0.4633  0.5717
13000TIP3    H260416   5.657   3.744   1.585 -1.3765  0.3382  0.0727
13001TIP3   OH260417   2.221   4.419   1.260  0.5057  0.4422  0.4584
13001TIP3    H160418   2.305   4.435   1.216  1.1750 -0.2485  1.4592
13001TIP3    H260419   2.156   4.434   1.192  1.5717 -2.6450 -1.4509
13002TIP3   OH260420   5.544   1.279   1.569  0.2060 -0.0891 -0.2383
13002TIP3    H160421   5.619   1.305   1.516 -0.4572 -0.4146 -1.3618
13002TIP3    H260422   5.485   1.355   1.567  0.0999 -0.1670 -0.1155
13003TIP3   OH260423   2.780   1.562  13.709 -0.2623 -0.0358  0.5005
13003TIP3    H160424   2.752   1.651  13.732  1.4269  0.7595 -0.3252
13003TIP3    H260425   2.863   1.574  13.663  1.1347 -2.1991  2.2557
13004TIP3   OH260426   3.034   5.802  11.076 -0.2087  0.8189  0.0206
13004TIP3    H160427   3.104   5.852  11.119  0.6556  1.1764 -1.7312
13004TIP3    H260428   3.080   5.741  11.019 -1.3205 -0.1096  0.0845
13005TIP3   OH260429   6.501   2.167  11.925  0.5092  0.0287 -0.0050
13005TIP3    H160430   6.454   2.227  11.867 -1.7227 -1.1565  0.5028
13005TIP3    H260431   6.565   2.222  11.970 -1.3213  2.0016  0.2936
13006TIP3   OH260432   3.222   0.124   4.110  1.0395 -0.7714  0.2093
13006TIP3    H160433   3.160   0.057   4.141 -0.5840  0.8524  0.6769
13006TIP3    H260434   3.294   0.121   4.173  2.0024 -3.3337 -0.8597
13007TIP3   OH260435   1.759   6.689  15.380  0.3310  0.0392 -0.1632
13007TIP3    H160436   1.664   6.678  15.385  0.4409 -0.4448  2.2632
13007TIP3    H260437   1.771   6.782  15.359 -0.6277 -0.3854 -2.8727
13008TIP3   OH260438   4.225   3.223  12.201  0.0405  0.3833 -0.0290
13008TIP3    H160439   4.210   3.138  12.160  0.4341  0.9171 -1.3463
13008TIP3    H260440   4.319   3.227  12.214 -0.2646 -0.8536  3.4711
13009TIP3   OH260441   2.869   4.707   3.219 -0.1061  0.5195  0.4546
13009TIP3    H160442   2.913   4.746   3.294  0.6724  0.0363  0.2588
13009TIP3    H260443   2.822   4.632   3.256  0.0137  0.4720  0.5097
13010TIP3   OH260444   4.136   2.412  16.935 -0.9428  0.2230 -0.3325
13010TIP3    H160445   4.046   2.444  16.922 -0.2195  1.8789 -1.6466
13010TIP3    H260446   4.134   2.322  16.904 -2.1521  0.2398 -0.3516
13011TIP3   OH260447   6.125   4.854   3.478  0.1127 -0.1140 -0.3339
13011TIP3    H160448   6.073   4.840   3.399  1.2913 -3.9355 -0.6066
13011TIP3    H260449   6.062   4.845   3.550 -0.7306  2.1299 -0.7193
13012TIP3   OH260450   2.366   4.649   5.128 -0.5049  0.1871  0.3924
13012TIP3    H160451   2.366   4.717   5.196 -0.2351 -0.2373  0.8294
13012TIP3    H260452   2.442   4.670   5.074  1.4682 -1.4645  2.3170
13013TIP3   OH260453   6.794   5.530   2.883 -0.3358 -0.3517 -0.0854
13013TIP3    H160454   6.782   5.464   2.950  2.6633  3.2357  4.6039
13013TIP3    H260455   6.713   5.581   2.884 -0.5379 -0.6800  0.3058
13014TIP3   OH260456   4.873   1.312  13.951  0.2649 -0.6890  0.0488
13014TIP3    H160457   4.786   1.274  13.966 -0.2627  0.1574 -0.7371
13014TIP3    H260458   4.933   1.240  13.966 -0.7614 -2.3211 -2.7769
13015TIP3   OH260459   5.980   6.299  15.733  0.2833  0.2298 -0.0893
13015TIP3    H160460   5.992   6.204  15.727 -0.2524  0.0247  1.5631
13015TIP3    H260461   5.890   6.309  15.766  1.0074  1.2111  1.7294
13016TIP3   OH260462   5.296   2.847  11.984 -0.2413  0.5554 -0.1162
13016TIP3    H160463   5.227   2.898  11.940  0.9555  0.6836 -1.9343
13016TIP3    H260464   5.354   2.913  12.022 -0.5400  0.4587  0.5272
13017TIP3   OH260465   3.968   1.564   4.608  0.4063  0.5188 -0.0235
13017TIP3    H160466   4.044   1.623   4.606  2.5797 -1.9984  1.1862
13017TIP3    H260467   4.002   1.484   4.647 -2.8912 -0.8530  0.3158
13018TIP3   OH260468   2.171   0.959  15.067  0.2890  0.0671  0.1595
13018TIP3    H160469   2.153   0.868  15.045  2.7037 -0.9942  2.1147
13018TIP3    H260470   2.098   0.985  15.123  0.2377 -1.1127  0.6646
13019TIP3   OH260471   5.052   6.816   3.221  0.2902 -0.7296 -0.7255
13019TIP3    H160472   5.103   6.743   3.186  0.9414 -2.3250  3.0457
13019TIP3    H260473   4.975   6.774   3.260 -0.0036  0.7571  0.3755
13020TIP3   OH260474   3.282   2.370   0.492 -0.1579  0.0027 -0.2224
13020TIP3    H160475   3.310   2.348   0.581 -1.1435 -0.5178 -0.0280
13020TIP3    H260476   3.340   2.321   0.435  0.7166  0.6172  0.1155
13021TIP3   OH260477   1.412   2.940   4.018  0.0016  0.0561 -0.5688
13021TIP3    H160478   1.494   2.904   4.053 -0.3690  0.8177  1.2072
13021TIP3    H260479   1.437   3.023   3.979  0.0603  0.4431  0.2624
13022TIP3   OH260480   4.096   1.731   0.194  0.1245  0.1077  0.1972
13022TIP3    H160481   4.134   1.684   0.120 -0.0351 -0.5661  0.5349
13022TIP3    H260482   4.031   1.670   0.230 -1.4786  1.3042 -0.5139
13023TIP3   OH260483   3.076   6.161  13.706  0.7220 -0.2660 -0.1788
13023TIP3    H160484   3.108   6.176  13.795  0.9325  0.8702 -0.4277
13023TIP3    H260485   3.085   6.067  13.692  2.1978 -0.2277  0.4315
13024TIP3   OH260486   2.726   0.995   4.391  0.1756  0.5237 -0.8402
13024TIP3    H160487   2.655   0.932   4.377  1.3410 -0.6633 -1.8169
13024TIP3    H260488   2.709   1.032   4.477 -1.9016  0.6848 -1.2684
13025TIP3   OH260489   1.065   1.416  11.874 -0.5016  0.0320  0.0635
13025TIP3    H160490   1.159   1.399  11.873 -0.6716 -1.7230  2.5210
13025TIP3    H260491   1.056   1.508  11.848  1.6250 -0.3609 -2.4806
13026TIP3   OH260492   2.641   4.741  14.219 -0.0644 -0.2792  0.6843
13026TIP3    H160493   2.673   4.806  14.281 -1.6363 -1.7099  3.1466
13026TIP3    H260494   2.665   4.657  14.258 -1.1311 -1.2447 -0.6589
13027TIP3   OH260495   1.973   5.351   5.790  0.1481  0.1063  0.2510
13027TIP3    H160496   1.907   5.367   5.723 -0.5503 -1.4779  0.5177
13027TIP3    H260497   1.961   5.423   5.853 -0.8527  0.2344 -0.0700
13028TIP3   OH260498   3.887   6.554  14.925  0.1804  0.6320  0.6052
13028TIP3    H160499   3.926   6.528  14.842  0.3606  0.9536  0.5860
13028TIP3    H260500   3.961   6.565  14.984  0.0137 -0.1835  0.9821
13029TIP3   OH260501   5.714   6.391  15.755  0.3409  0.0192 -0.1420
13029TIP3    H160502   5.745   6.371  15.843  1.6209 -0.6742 -0.7319
13029TIP3    H260503   5.631   6.437  15.769  0.2164 -0.6181  1.4020
13030TIP3   OH260504   2.062   1.845  15.810  0.8478  0.6404 -0.0759
13030TIP3    H160505   2.016   1.813  15.733  2.8779  0.9551 -1.4746
13030TIP3    H260506   2.070   1.768  15.866 -0.0602  0.2597 -0.4395
13031TIP3   OH260507   2.157   6.470   3.782  0.4687  0.1294  0.2480
13031TIP3    H160508   2.108   6.432   3.709  1.2805 -0.9823  0.2593
13031TIP3    H260509   2.090   6.494   3.846 -0.1080 -0.8393  0.0214
13032TIP3   OH260510   3.924   0.613  15.850  0.0190  0.3270 -0.1527
13032TIP3    H160511   3.978   0.568  15.915  1.5473  1.2399 -0.7265
13032TIP3    H260512   3.890   0.543  15.795  1.3065 -0.2506 -0.2590
13033TIP3   OH260513   4.270   1.518  14.040  0.2320  0.2542  0.7311
13033TIP3    H160514   4.347   1.464  14.057 -0.3852 -0.5222  1.1289
13033TIP3    H260515   4.277   1.542  13.947 -0.1362 -1.6005  0.1831
13034TIP3   OH260516   6.512   4.141  10.530  0.0789  0.4643  0.2424
13034TIP3    H160517   6.476   4.224  10.498  0.3761  0.4198 -0.2143
13034TIP3    H260518   6.481   4.076  10.467 -0.5708  0.1457  0.8731
13035TIP3   OH260519   2.653   3.049  14.603  0.0039  0.3518 -0.2816
13035TIP3    H160520   2.713   2.974  14.607 -1.2740 -0.7521 -0.7241
13035TIP3    H260521   2.652   3.084  14.691 -2.1842 -2.5434  1.0342
13036TIP3   OH260522   3.664   6.676   3.836 -0.4875 -0.5228  0.1988
13036TIP3    H160523   3.610   6.700   3.912 -0.7234  0.3467 -0.2273
13036TIP3    H260524   3.689   6.585   3.852  1.1677  0.2323  2.3351
13037TIP3   OH260525   1.239   4.803  14.630  0.3725 -0.0695  0.2840
13037TIP3    H160526   1.224   4.790  14.723  1.0610 -1.5568  0.2097
13037TIP3    H260527   1.333   4.790  14.618  0.3129  0.2085 -0.6132
13038TIP3   OH260528   6.025   1.676   0.644  0.0500 -0.4707  0.6896
13038TIP3    H160529   6.003   1.680   0.551  1.0707  0.3628  0.4616
13038TIP3    H260530   6.120   1.660   0.646  0.4767  1.7966  1.5302
13039TIP3   OH260531   6.549   6.154   3.336  0.1618 -0.0275 -0.0380
13039TIP3    H160532   6.544   6.129   3.244 -0.3714  2.0342 -0.6166
13039TIP3    H260533   6.613   6.225   3.338 -1.6745  1.7136  0.7178
13040TIP3   OH260534   2.872   4.820  13.230 -0.1264  0.1242  0.1340
13040TIP3    H160535   2.949   4.766  13.214  0.5897  0.3222  2.5738
13040TIP3    H260536   2.836   4.836  13.142  2.9755  0.6062 -1.1975
13041TIP3   OH260537   1.244   5.362  13.071  0.1419 -0.3646  0.2722
13041TIP3    H160538   1.150   5.378  13.064  0.3815  0.3954 -1.8442
13041TIP3    H260539   1.274   5.349  12.981  2.4989  2.1499  0.5342
13042TIP3   OH260540   0.064   3.724  11.599  0.0154  0.2023 -1.0801
13042TIP3    H160541   0.071   3.751  11.507  2.0951 -1.7567 -1.5761
13042TIP3    H260542  -0.024   3.686  11.605 -0.6288  1.4684 -1.8984
13043TIP3   OH260543   1.191   0.214  15.792  0.2116  0.0698 -0.3784
13043TIP3    H160544   1.273   0.263  15.783 -0.4269  1.4262  0.7371
13043TIP3    H260545   1.172   0.216  15.886 -0.6556 -0.9841 -0.5117
13044TIP3   OH260546   3.143   4.318  14.784 -0.1390  0.7292 -0.0267
13044TIP3    H160547   3.072   4.379  14.807  1.9028  3.2580  0.1218
13044TIP3    H260548   3.154   4.328  14.690  1.9238  2.8347  0.3186
13045TIP3   OH260549   0.549   1.154  16.613  0.0045 -0.1713  0.7187
13045TIP3    H160550   0.540   1.156  16.709  2.0254 -1.6184  1.0024
13045TIP3    H260551   0.642   1.140  16.598 -0.5148 -1.7961 -1.4274
13046TIP3   OH260552   1.912   0.745  15.259 -0.2044 -0.1062 -0.7020
13046TIP3    H160553   1.836   0.749  15.201 -0.0826 -0.4242 -0.8885
13046TIP3    H260554   1.944   0.835  15.263  0.3807 -0.2308 -1.9370
13047TIP3   OH260555   6.287   6.691  15.499 -0.2069  0.2351  0.5265
13047TIP3    H160556   6.210   6.708  15.553 -0.8378 -0.4451 -0.1240
13047TIP3    H260557   6.254   6.690  15.409  0.5618 -0.0603  0.2348
13048TIP3   OH260558   5.443   4.160  14.905  0.2410 -0.1696  0.2031
13048TIP3    H160559   5.368   4.101  14.891  0.1260  0.1911 -0.8468
13048TIP3    H260560   5.435   4.224  14.834  2.1715 -0.7576 -0.5884
13049TIP3   OH260561   2.872   4.530  15.662 -0.3053 -0.7242  0.9115
13049TIP3    H160562   2.962   4.543  15.691  0.3848  1.8883 -1.7784
13049TIP3    H260563   2.825   4.607  15.696 -1.2195 -1.4065  1.2241
13050TIP3   OH260564   3.079   1.641   1.225 -0.2475 -0.7420 -0.3066
13050TIP3    H160565   3.076   1.727   1.182 -1.0156 -0.4141  0.3911
13050TIP3    H260566   3.095   1.580   1.153  1.0908  0.0334 -0.7281
13051TIP3   OH260567   3.989   6.459  13.565  0.1317 -0.0345  0.4499
13051TIP3    H160568   3.997   6.375  13.611 -0.7524 -0.3442  0.0639
13051TIP3    H260569   4.077   6.478  13.534  0.0690 -1.6464 -0.8675
13052TIP3   OH260570   0.845   1.490  10.584 -0.2177  0.2063 -0.3647
13052TIP3    H160571   0.846   1.397  10.561 -0.8348 -0.5327  2.2064
13052TIP3    H260572   0.756   1.519  10.564 -0.4650 -0.1619  0.1900
13053TIP3   OH260573   3.204   2.050   0.677  0.1018 -0.3995 -0.1957
13053TIP3    H160574   3.256   2.079   0.752 -0.0656 -2.7842  0.9439
13053TIP3    H260575   3.208   1.954   0.681 -2.5477 -0.6376 -1.3995
13054TIP3   OH260576   5.975   1.987   3.841 -0.4328  0.6414  0.9929
13054TIP3    H160577   6.011   1.905   3.874 -1.3468 -0.9776 -1.6836
13054TIP3    H260578   6.048   2.028   3.794 -1.0560 -0.9609 -1.5276
13055TIP3   OH260579   4.454   2.074   2.687  0.3314 -0.0118 -0.2310
13055TIP3    H160580   4.486   2.142   2.627  0.4298 -0.1405 -0.3251
13055TIP3    H260581   4.478   2.105   2.774  0.9130 -0.2146 -0.3166
13056TIP3   OH260582   5.877   3.533   0.813  0.1511 -0.0121  0.1322
13056TIP3    H160583   5.915   3.446   0.823  2.7381  1.0611  0.4716
13056TIP3    H260584   5.854   3.539   0.720 -0.5002 -1.2097  0.2081
13057TIP3   OH260585   4.957   2.876  15.064 -0.0056 -0.7367  0.7703
13057TIP3    H160586   4.961   2.960  15.018 -0.7934 -1.0548  0.0912
13057TIP3    H260587   4.981   2.811  14.998  0.6126 -1.0508  1.2948
13058TIP3   OH260588   5.478   0.720   3.136 -0.1922 -0.4997 -0.2929
13058TIP3    H160589   5.461   0.776   3.060  1.0334 -1.2691 -1.1779
13058TIP3    H260590   5.537   0.653   3.103 -0.2143 -1.2859  1.1839
13059TIP3   OH260591   4.346   0.833   5.741  0.2418 -0.3134 -0.4585
13059TIP3    H160592   4.353   0.748   5.785  2.8094  1.0593  2.1606
13059TIP3    H260593   4.286   0.883   5.796  1.8581  0.7761  0.3742
13060TIP3   OH260594   5.405   5.577   5.883  0.1833 -0.4189 -0.0002
13060TIP3    H160595   5.408   5.515   5.956  0.7154  1.5384  1.7506
13060TIP3    H260596   5.377   5.660   5.923 -1.3018  0.3116 -2.3714
13061TIP3   OH260597   6.021   0.976  15.380 -0.0052 -0.2371  0.3197
13061TIP3    H160598   6.095   1.025  15.344  1.0622 -1.6315  0.5347
13061TIP3    H260599   5.991   0.922  15.307 -0.1311 -0.4539  0.5314
13062TIP3   OH260600   3.296   2.905  13.172 -0.2265  0.7852 -0.6796
13062TIP3    H160601   3.211   2.860  13.175 -0.1641  0.6371 -1.0720
13062TIP3    H260602   3.292   2.967  13.245  1.5443 -3.0972  3.1794
13063TIP3   OH260603   3.632   5.796   3.541  0.3082  0.5061  0.1159
13063TIP3    H160604   3.623   5.713   3.494  1.7934 -0.5428  1.5896
13063TIP3    H260605   3.552   5.804   3.592  0.0617  0.1063 -0.2036
13064TIP3   OH260606   2.143   6.427  12.160 -0.3839 -0.1932 -0.6291
13064TIP3    H160607   2.105   6.346  12.127 -1.4584  0.6588 -1.5655
13064TIP3    H260608   2.093   6.496  12.116  0.9280  0.9759 -0.3357
13065TIP3   OH260609   0.882   0.744  13.029  0.4774 -1.1151 -0.2342
13065TIP3    H160610   0.896   0.741  12.934 -0.9719  1.3251 -0.6088
13065TIP3    H260611   0.787   0.748  13.039  0.6385  1.0247  1.1419
13066TIP3   OH260612   0.760   0.557  12.531 -0.4847  0.3040 -0.2840
13066TIP3    H160613   0.827   0.590  12.472 -0.9001  1.8963  0.0749
13066TIP3    H260614   0.744   0.468  12.502  0.4558  0.5155 -1.5477
13067TIP3   OH260615   2.553   5.199   1.139  0.4448 -0.2139 -0.3874
13067TIP3    H160616   2.460   5.217   1.126  0.6245  0.6354 -0.5248
13067TIP3    H260617   2.555   5.113   1.182 -0.3245 -1.1159 -2.0921
13068TIP3   OH260618   5.807   2.650   4.085  0.6148  0.5178 -0.2492
13068TIP3    H160619   5.796   2.745   4.082  1.8071  0.6749 -0.0666
13068TIP3    H260620   5.745   2.620   4.151 -0.1963  1.0891 -0.7285
13069TIP3   OH260621   1.619   6.000   2.739 -0.0574 -0.8038 -0.1078
13069TIP3    H160622   1.611   5.940   2.813  1.3977  1.3715  1.9681
13069TIP3    H260623   1.565   5.961   2.670 -1.2562 -3.0845  1.9725
13070TIP3   OH260624   3.256   3.867   5.891 -0.1293 -0.4710 -0.3227
13070TIP3    H160625   3.219   3.931   5.952 -0.6469 -1.4724  0.4413
13070TIP3    H260626   3.188   3.800   5.882  1.0001 -1.7171  0.1420
13071TIP3   OH260627   2.047   5.740   3.538  0.0868 -0.7038 -0.1778
13071TIP3    H160628   2.134   5.779   3.552 -0.5231 -0.1995  2.9670
13071TIP3    H260629   1.990   5.814   3.522 -0.0251 -0.9111 -0.7609
13072TIP3   OH260630   5.737   4.019  16.588  0.1392 -0.8245  0.1433
13072TIP3    H160631   5.762   4.087  16.524  3.4766 -1.7503  0.2597
13072TIP3    H260632   5.706   3.946  16.535  0.6702 -0.7519 -0.2746
13073TIP3   OH260633   0.430   1.648   4.154 -0.8419  0.1438 -0.3279
13073TIP3    H160634   0.354   1.654   4.097 -0.9868  1.4916 -0.0337
13073TIP3    H260635   0.431   1.732   4.201  0.8730  0.1844 -0.3916
13074TIP3   OH260636   0.010   4.128  12.161 -0.4248 -0.4244 -0.1468
13074TIP3    H160637  -0.012   4.164  12.247 -0.1215  3.0222 -1.3299
13074TIP3    H260638  -0.067   4.076  12.137  0.7662 -4.3861  3.3958
13075TIP3   OH260639   0.403   1.706  10.931  0.0687  0.2224 -0.0143
13075TIP3    H160640   0.351   1.689  10.853  0.2245 -0.3333 -0.0018
13075TIP3    H260641   0.491   1.678  10.908  0.1421  0.1726  0.3160
13076TIP3   OH260642   3.861   6.029   0.821  0.2987 -0.1196 -0.3287
13076TIP3    H160643   3.817   5.953   0.859 -1.3022  0.8298 -0.2051
13076TIP3    H260644   3.907   6.069   0.895  0.0262 -0.2033 -0.1118
13077TIP3   OH260645   5.628   6.739  12.504 -0.1971 -0.1760 -0.3998
13077TIP3    H160646   5.538   6.749  12.475  0.1947 -0.1189 -1.6565
13077TIP3    H260647   5.631   6.652  12.544 -0.4249 -0.9239 -1.9259
13078TIP3   OH260648   3.808   5.566  15.963 -0.2573  0.0563 -0.3192
13078TIP3    H160649   3.847   5.483  15.990 -2.0558 -0.0963  2.1824
13078TIP3    H260650   3.718   5.561  15.994 -1.0034  2.1592 -1.9107
13079TIP3   OH260651   6.712   4.088   5.109  0.2657 -0.3955 -0.1964
13079TIP3    H160652   6.671   4.134   5.182  0.7616  0.5574 -0.4990
13079TIP3    H260653   6.805   4.086   5.131  0.3473 -0.5852 -0.5459
13080TIP3   OH260654   5.395   1.946   5.181  0.0648  0.1612  0.1537
13080TIP3    H160655   5.396   1.862   5.227  0.7921 -0.8079 -1.5156
13080TIP3    H260656   5.365   2.009   5.246 -2.9597 -1.7445  0.8576
13081TIP3   OH260657   1.453   2.473  16.352 -0.5507  1.2767  0.2163
13081TIP3    H160658   1.451   2.544  16.416 -0.9307  1.7065 -0.2571
13081TIP3    H260659   1.520   2.500  16.289 -0.1035  0.8058  0.4898
13082TIP3   OH260660   1.523   5.233  16.345 -0.2805 -0.0732  0.2694
13082TIP3    H160661   1.587   5.242  16.416  0.6126 -1.5221 -0.2981
13082TIP3    H260662   1.565   5.172  16.283 -2.1922 -1.0608 -0.1295
13083TIP3   OH260663   3.436   0.706   1.968  0.1968  0.2698  0.6183
13083TIP3    H160664   3.390   0.623   1.980  1.0511 -0.4841 -0.9190
13083TIP3    H260665   3.378   0.758   1.912  0.1583  0.2638  0.6529
13084TIP3   OH260666   4.943   0.305   3.660 -0.1100  0.2650  0.3894
13084TIP3    H160667   4.965   0.380   3.606 -1.0667 -0.7142 -1.4525
13084TIP3    H260668   4.898   0.244   3.601 -0.6414 -1.1520  2.1349
13085TIP3   OH260669   5.821   3.010   4.208  0.2514  0.1364 -0.5041
13085TIP3    H160670   5.913   3.000   4.185  0.3703 -0.2622  0.1189
13085TIP3    H260671   5.792   3.086   4.158  1.4544  1.5383  0.8601
13086TIP3   OH260672   4.798   3.187  15.168  0.5070 -0.3207  0.4882
13086TIP3    H160673   4.735   3.141  15.224  0.1386 -0.0498  0.3033
13086TIP3    H260674   4.752   3.198  15.085  0.7032  0.1043  0.4329
13087TIP3   OH260675   1.936   2.371   2.770 -0.5793  0.3038 -0.4243
13087TIP3    H160676   1.940   2.429   2.845  0.2107  0.4684 -0.5809
13087TIP3    H260677   1.964   2.425   2.696 -0.5916 -0.0629 -0.7031
13088TIP3   OH260678   0.175   4.922   3.151  0.3479  0.1648 -0.4157
13088TIP3    H160679   0.258   4.960   3.119  0.9203  0.6469  1.5009
13088TIP3    H260680   0.148   4.981   3.221 -1.0522 -0.6227 -0.2710
13089TIP3   OH260681   3.986   3.928   0.202 -0.0186  0.2514 -0.4557
13089TIP3    H160682   3.960   3.836   0.206 -2.1872  0.8760  1.4099
13089TIP3    H260683   4.065   3.933   0.256 -0.7790 -0.2720  0.7361
13090TIP3   OH260684   3.265   0.474  16.871 -0.0561 -0.0239 -0.3872
13090TIP3    H160685   3.318   0.463  16.792  0.0213  1.2185 -0.5352
13090TIP3    H260686   3.313   0.428  16.939 -0.4605 -1.6860 -1.1848
13091TIP3   OH260687   5.189   6.068  11.878 -0.1817  0.3368 -0.1819
13091TIP3    H160688   5.130   6.010  11.830 -1.6819  0.1443  1.7327
13091TIP3    H260689   5.138   6.095  11.955  1.5412  1.8156  0.5217
13092TIP3   OH260690   2.844   6.659   1.610 -0.6876  0.0667 -0.0060
13092TIP3    H160691   2.787   6.718   1.561 -2.0103 -1.8604 -0.9214
13092TIP3    H260692   2.831   6.573   1.569  3.6339 -0.4038 -0.9344
13093TIP3   OH260693   2.614   1.603   3.751 -0.3138  0.0047  0.1232
13093TIP3    H160694   2.647   1.636   3.835  0.7595  0.6830 -0.5478
13093TIP3    H260695   2.686   1.552   3.715 -1.3625 -1.7303  0.3651
13094TIP3   OH260696   0.960   2.294  15.443 -0.4195  0.0075  0.3924
13094TIP3    H160697   0.872   2.260  15.459 -0.9941  1.1208 -0.2519
13094TIP3    H260698   1.018   2.218  15.454 -1.2636 -0.4162  2.3977
13095TIP3   OH260699   5.076   2.381  12.010  0.5661  0.0482  0.5305
13095TIP3    H160700   5.055   2.468  11.974 -1.8305  0.7217  3.2110
13095TIP3    H260701   5.014   2.322  11.968  3.0636 -0.7600 -2.3036
13096TIP3   OH260702   2.734   6.221  16.096 -0.3564 -0.5289 -0.8066
13096TIP3    H160703   2.671   6.292  16.088 -0.7315 -0.6564  0.7218
13096TIP3    H260704   2.813   6.263  16.130 -0.5706 -0.8243  0.0769
13097TIP3   OH260705   6.030   2.123  16.312  0.0786 -0.3597 -0.5351
13097TIP3    H160706   5.995   2.094  16.396  0.1098 -1.1966 -0.8008
13097TIP3    H260707   6.094   2.056  16.289  1.4058  0.8204 -0.3641
13098TIP3   OH260708   3.608   5.559   0.025 -0.1029  0.2313 -0.4523
13098TIP3    H160709   3.553   5.501  -0.028  2.1379 -0.5557 -2.0258
13098TIP3    H260710   3.632   5.507   0.101 -0.8156  0.2982 -0.1701
13099TIP3   OH260711   1.797   4.595  15.653  0.4321  0.5855  0.3258
13099TIP3    H160712   1.869   4.655  15.636  0.6593 -0.0596 -1.2015
13099TIP3    H260713   1.837   4.521  15.699  0.8739  0.0270 -0.9056
13100TIP3   OH260714   2.334   4.200   0.672 -0.3471 -0.5472  0.0054
13100TIP3    H160715   2.382   4.127   0.633 -1.8622 -2.5094  1.5833
13100TIP3    H260716   2.360   4.199   0.764 -1.8141 -0.3474  0.4438
13101TIP3   OH260717   5.064   0.981  12.435  0.4594 -0.7044  0.4625
13101TIP3    H160718   5.135   0.989  12.372  0.4179  3.2339  0.6776
13101TIP3    H260719   4.985   1.001  12.385  0.2281  0.7485  1.3623
13102TIP3   OH260720   2.382   4.026  15.221 -1.0237 -0.2996 -0.0888
13102TIP3    H160721   2.386   4.009  15.315 -0.7814 -1.4958 -0.2968
13102TIP3    H260722   2.473   4.040  15.195 -1.2608  2.1623  0.1855
13103TIP3   OH260723   5.572   4.923  10.988 -0.3257 -0.5188  0.2701
13103TIP3    H160724   5.664   4.949  10.981 -0.6399  0.3660 -1.1313
13103TIP3    H260725   5.536   4.944  10.902 -1.8895 -0.6376  0.8761
13104TIP3   OH260726   3.816   3.072  11.990  0.3548 -0.4271 -0.1871
13104TIP3    H160727   3.778   3.043  12.073 -0.4277  1.4625  0.1553
13104TIP3    H260728   3.821   2.992  11.937 -0.7901 -1.3470  1.0357
13105TIP3   OH260729   1.505   2.119  14.814  0.1638  0.4645  0.1126
13105TIP3    H160730   1.595   2.086  14.807  0.2426  0.4259  1.1087
13105TIP3    H260731   1.453   2.043  14.838 -0.2114  0.4079 -0.8486
13106TIP3   OH260732   0.526   3.512   0.765  0.2630  0.0970  0.0955
13106TIP3    H160733   0.557   3.600   0.743  1.3050 -0.4777 -0.8189
13106TIP3    H260734   0.435   3.511   0.736  0.8233  0.2429 -1.7886
13107TIP3   OH260735   6.068   3.150   0.639  0.0227  0.6699  0.8602
13107TIP3    H160736   6.012   3.218   0.677 -0.5493 -0.3623  1.9355
13107TIP3    H260737   6.071   3.171   0.546 -0.4883  1.9161  1.1064
13108TIP3   OH260738   1.988   4.659   4.127  0.4288  0.0656 -0.0229
13108TIP3    H160739   1.898   4.692   4.131  0.9060  1.3187  1.6569
13108TIP3    H260740   2.030   4.697   4.205  2.3118 -0.7758 -0.5925
13109TIP3   OH260741   5.893   4.974   4.620 -0.0720  0.3194 -0.2879
13109TIP3    H160742   5.839   4.978   4.541 -2.1366 -0.3679  1.0018
13109TIP3    H260743   5.844   4.917   4.679  2.6558 -1.2306  0.6019
13110TIP3   OH260744   2.901   6.762  12.072 -0.3730 -0.3010  0.0961
13110TIP3    H160745   2.819   6.714  12.069  1.1303 -3.0328 -0.6264
13110TIP3    H260746   2.969   6.695  12.074  1.9497  1.7646 -1.6635
13111TIP3   OH260747   2.745   6.654   4.467 -0.0329  0.1626  0.3783
13111TIP3    H160748   2.797   6.733   4.478 -2.0866  1.5093  0.7736
13111TIP3    H260749   2.809   6.583   4.473  1.8811  1.7569 -0.0729
13112TIP3   OH260750   4.075   2.478   3.041  0.5897  0.6177 -0.3901
13112TIP3    H160751   4.069   2.430   2.958 -0.0097  1.7132 -0.9965
13112TIP3    H260752   3.988   2.517   3.052 -0.2442 -1.6102  2.0950
13113TIP3   OH260753   3.137   1.039  16.992 -0.1528 -0.2656  0.7710
13113TIP3    H160754   3.059   1.025  17.046 -0.1791  0.9148  1.0527
13113TIP3    H260755   3.171   1.124  17.019 -0.1101  0.3199 -0.9995
13114TIP3   OH260756   0.915   2.425  12.295 -0.0328  0.4034 -0.4133
13114TIP3    H160757   0.843   2.484  12.317  1.0080  1.5925 -0.0565
13114TIP3    H260758   0.956   2.404  12.379  1.5682  1.8096 -0.7860
13115TIP3   OH260759   2.187   6.246   2.520 -0.0837 -0.2658  0.0892
13115TIP3    H160760   2.216   6.289   2.601  0.6989 -0.7774  0.0889
13115TIP3    H260761   2.255   6.181   2.502 -0.6036 -0.6212 -0.6105
13116TIP3   OH260762   3.005   4.944  15.295 -0.2861  0.2771 -0.3401
13116TIP3    H160763   2.959   4.870  15.256  0.4558 -0.4208  0.0975
13116TIP3    H260764   2.966   4.954  15.382 -1.4166  1.3609 -0.9287
13117TIP3   OH260765   0.374   3.230  16.308 -0.0272 -0.1002 -0.0809
13117TIP3    H160766   0.340   3.167  16.371  1.5282  0.1388  1.0649
13117TIP3    H260767   0.296   3.272  16.271 -1.0131 -1.1532  0.7321
13118TIP3   OH260768   3.896   5.145  12.562  0.5315 -0.2076 -0.1194
13118TIP3    H160769   3.811   5.108  12.584  0.1631  1.4802  1.4955
13118TIP3    H260770   3.950   5.130  12.640  1.1616  0.3723 -0.4311
13119TIP3   OH260771   1.161   1.571   5.629 -0.3743  0.4345 -0.3349
13119TIP3    H160772   1.222   1.613   5.690 -1.3080 -0.1730  1.0682
13119TIP3    H260773   1.091   1.635   5.619 -0.1041  0.6354 -0.9909
13120TIP3   OH260774   5.409   1.952   4.337  0.1731  0.2401 -0.0159
13120TIP3    H160775   5.321   1.933   4.303 -0.1487 -0.0624  0.9310
13120TIP3    H260776   5.399   2.036   4.382 -0.2115 -0.7914  1.9599
13121TIP3   OH260777   4.132   1.236  13.095 -0.4333 -0.1909  0.1271
13121TIP3    H160778   4.129   1.140  13.099 -0.7395 -0.2116 -0.4615
13121TIP3    H260779   4.102   1.257  13.007 -1.5101  0.5055  0.6396
13122TIP3   OH260780   4.946   0.959   2.037  0.0717 -0.6281  0.0350
13122TIP3    H160781   5.038   0.967   2.011 -0.4573  0.8370 -1.5661
13122TIP3    H260782   4.902   1.032   1.994 -1.8682 -1.3036  0.7473
13123TIP3   OH260783   1.613   2.407  11.708  0.2315  0.8285 -0.6033
13123TIP3    H160784   1.550   2.358  11.761  1.5866  1.1421  1.3854
13123TIP3    H260785   1.577   2.495  11.702  0.8091  1.2393  1.2516
13124TIP3   OH260786   1.646   4.985   2.486  0.0204 -0.0582 -0.7834
13124TIP3    H160787   1.717   5.030   2.440 -0.3944  1.5414  0.0551
13124TIP3    H260788   1.577   5.050   2.493 -1.0542 -1.1928 -0.4619
13125TIP3   OH260789   5.136   1.865  14.677 -0.0013 -0.2514  0.4240
13125TIP3    H160790   5.119   1.898  14.589 -0.5235  3.4692  1.7386
13125TIP3    H260791   5.216   1.813  14.668 -0.2990 -0.3579 -2.2857
13126TIP3   OH260792   0.012   5.081  14.779 -0.2063  0.0440  0.0153
13126TIP3    H160793   0.077   5.014  14.800  0.0619  1.1315  3.1550
13126TIP3    H260794   0.063   5.162  14.774 -0.9967  0.5311 -0.1869
13127TIP3   OH260795   6.067   6.734  16.961 -0.1970  0.0771 -0.2862
13127TIP3    H160796   6.113   6.749  16.878 -0.0536  1.6131  0.0351
13127TIP3    H260797   6.126   6.678  17.011  1.1844  1.6886 -0.0354
13128TIP3   OH260798   3.840   5.292   4.700 -0.3805  0.4285 -0.0745
13128TIP3    H160799   3.773   5.230   4.727  0.3799 -0.8662 -1.0164
13128TIP3    H260800   3.795   5.377   4.695 -1.5574 -0.1295  0.7636
13129TIP3   OH260801   0.216   2.824  12.232  0.0996  0.5770  0.4089
13129TIP3    H160802   0.283   2.858  12.173  0.6716  1.9629  1.7995
13129TIP3    H260803   0.136   2.870  12.207  0.3121  1.0630  0.6197
13130TIP3   OH260804   4.154   0.390   2.501 -0.0051 -0.4937  0.0676
13130TIP3    H160805   4.132   0.406   2.409  0.4299  0.8071  0.1836
13130TIP3    H260806   4.243   0.423   2.511  0.1648 -1.1493  0.8349
13131TIP3   OH260807   1.129   5.136   1.171 -0.1040  0.7988 -0.0743
13131TIP3    H160808   1.098   5.182   1.093  0.3448  0.0727 -0.6965
13131TIP3    H260809   1.092   5.048   1.163  2.0616 -0.1259 -0.8677
13132TIP3   OH260810   1.582   5.965  13.090 -0.1373 -0.6730  0.1970
13132TIP3    H160811   1.638   6.041  13.106  1.0035 -1.5914  0.6675
13132TIP3    H260812   1.603   5.904  13.161 -1.4308 -1.2279  0.1345
13133TIP3   OH260813   4.821   6.787  10.924 -0.0777  0.2059 -0.3489
13133TIP3    H160814   4.893   6.850  10.919  0.2107 -0.0400  0.6226
13133TIP3    H260815   4.831   6.734  10.845  0.7795  0.2077 -0.2518
13134TIP3   OH260816   0.292   1.152   1.271 -0.0057 -0.0682  0.6287
13134TIP3    H160817   0.307   1.237   1.314  0.2830 -0.6629  1.7339
13134TIP3    H260818   0.379   1.118   1.255 -0.1105  0.1907 -0.5582
13135TIP3   OH260819   1.527   3.587  13.816  0.1236  0.2665 -0.0903
13135TIP3    H160820   1.619   3.560  13.815  0.3608  1.0773 -0.2603
13135TIP3    H260821   1.529   3.682  13.819 -0.7151  0.3030 -0.3135
13136TIP3   OH260822   0.734   4.934  15.388 -0.1943  0.7846 -0.4602
13136TIP3    H160823   0.801   4.866  15.395 -1.4054 -0.3154  1.0789
13136TIP3    H260824   0.739   4.964  15.297  1.6107 -0.0475 -0.6682
13137TIP3   OH260825   0.823   1.691   0.094  0.7847 -0.5489  0.3707
13137TIP3    H160826   0.759   1.724   0.031  1.7265  2.4877  0.8524
13137TIP3    H260827   0.773   1.632   0.151 -0.9644 -0.3045 -0.8286
13138TIP3   OH260828   1.214   5.953  15.474 -0.1398  0.7193  0.2358
13138TIP3    H160829   1.291   5.926  15.425 -0.8829  0.7031 -0.9555
13138TIP3    H260830   1.183   6.032  15.429 -1.9247 -0.3624 -0.5238
13139TIP3   OH260831   3.507   0.470  11.245 -0.2826  0.3659  0.3088
13139TIP3    H160832   3.418   0.491  11.274 -0.0661  2.0495 -0.1652
13139TIP3    H260833   3.495   0.405  11.176 -1.3086  1.8993 -1.0423
13140TIP3   OH260834   0.190   4.583  15.797 -0.0443 -0.4863  0.0230
13140TIP3    H160835   0.253   4.642  15.757 -1.4255  0.0090 -1.4982
13140TIP3    H260836   0.140   4.639  15.857 -0.8037 -0.2647 -0.7993
13141TIP3   OH260837   4.171   0.820   0.909 -0.0464 -0.4855  0.4351
13141TIP3    H160838   4.153   0.890   0.846 -1.9194 -0.7049  0.6657
13141TIP3    H260839   4.241   0.855   0.964  0.2224  0.5193 -0.5120
13142TIP3   OH260840   2.122   6.756  14.034 -0.1357  0.3104 -0.0469
13142TIP3    H160841   2.121   6.846  14.002 -0.8956 -0.1303 -1.3753
13142TIP3    H260842   2.131   6.764  14.129  1.8405  1.7167 -0.2839
13143TIP3   OH260843   5.179   5.749  13.198 -0.1147  0.0130 -0.3048
13143TIP3    H160844   5.108   5.759  13.134  1.2133 -0.0637 -1.8623
13143TIP3    H260845   5.223   5.834  13.198  0.6538 -0.3807 -0.4352
13144TIP3   OH260846   5.102   3.300  15.685 -0.9142  0.0262  0.1621
13144TIP3    H160847   5.122   3.231  15.622  1.5678  0.6610  0.1358
13144TIP3    H260848   5.070   3.253  15.763  1.1541 -1.2649  0.3195
13145TIP3   OH260849   0.042   0.568  16.197  0.3930 -0.4058 -0.4572
13145TIP3    H160850   0.034   0.530  16.285 -0.1538 -0.8516 -0.6904
13145TIP3    H260851   0.008   0.657  16.206  0.6032 -0.3527 -0.1581
13146TIP3   OH260852   3.526   6.755  16.674  0.2986  0.6977  0.2417
13146TIP3    H160853   3.585   6.680  16.671  0.5151  0.7064  2.5406
13146TIP3    H260854   3.582   6.828  16.701 -0.2156  1.3491 -0.4130
13147TIP3   OH260855   5.501   2.230   4.732 -0.4255  0.0260 -0.2070
13147TIP3    H160856   5.575   2.231   4.792  0.6424 -1.0448 -1.4449
13147TIP3    H260857   5.497   2.319   4.697 -0.1987  0.2890  0.4267
13148TIP3   OH260858   3.151   0.599  14.009  0.3027 -0.7081 -0.1730
13148TIP3    H160859   3.122   0.655  13.937  1.2860 -0.1208 -0.1318
13148TIP3    H260860   3.099   0.519  14.000 -2.3384  0.8112  0.7499
13149TIP3   OH260861   4.562   5.796  15.629 -0.6094  0.0783  0.1411
13149TIP3    H160862   4.495   5.857  15.660 -0.0637  1.0363 -0.5278
13149TIP3    H260863   4.620   5.849  15.575  0.1937 -0.9247 -0.0110
13150TIP3   OH260864   0.222   4.744   4.023  0.2639  0.1838 -0.1776
13150TIP3    H160865   0.291   4.743   3.956  0.3163  1.1523 -0.1621
13150TIP3    H260866   0.264   4.709   4.102 -0.2513 -2.5796 -1.0170
13151TIP3   OH260867   1.989   2.050   4.971  0.0924 -0.4821 -0.0928
13151TIP3    H160868   1.987   2.145   4.960  0.4569 -0.2883  1.3105
13151TIP3    H260869   1.962   2.015   4.886  2.3275  0.8083 -1.4143
13152TIP3   OH260870   4.153   1.921  11.949  0.4674 -0.0844 -0.0683
13152TIP3    H160871   4.064   1.887  11.955  0.3191  0.4184  0.7053
13152TIP3    H260872   4.208   1.853  11.988  0.4257 -0.3857 -0.5284
13153TIP3   OH260873   1.922   4.127  12.870 -0.1880  0.0204 -0.1446
13153TIP3    H160874   1.955   4.096  12.954 -2.2079  1.3142  1.2030
13153TIP3    H260875   1.971   4.208  12.853  0.2754 -0.2832 -0.2802
13154TIP3   OH260876   3.910   2.038   5.062  0.9572 -0.6191  0.1009
13154TIP3    H160877   3.948   2.121   5.033 -0.7184 -0.1212 -0.8046
13154TIP3    H260878   3.918   2.041   5.158  1.4601  0.3178  0.0462
13155TIP3   OH260879   4.514   5.724  12.723 -0.2809 -0.4054  0.3040
13155TIP3    H160880   4.510   5.801  12.666  1.3817 -0.1978  0.4350
13155TIP3    H260881   4.603   5.692  12.715 -0.5951 -1.5949  1.2287
13156TIP3   OH260882   1.459   1.977  13.232  0.6517  0.3215  0.4914
13156TIP3    H160883   1.435   1.924  13.308  0.2067  1.1025  0.9050
13156TIP3    H260884   1.434   1.922  13.157 -2.0600  0.8468  0.8820
13157TIP3   OH260885   2.475   1.050   2.983  0.0343  0.2891 -0.3504
13157TIP3    H160886   2.562   1.024   3.010  0.6442  1.4981 -1.0523
13157TIP3    H260887   2.416   0.988   3.026  1.3085 -1.4840 -1.0312
13158TIP3   OH260888   2.610   5.974  11.641  0.0991  0.2517  0.0333
13158TIP3    H160889   2.610   5.966  11.546 -0.5964  0.5029  0.0042
13158TIP3    H260890   2.685   5.922  11.670  0.2438  0.0789 -0.6433
13159TIP3   OH260891   4.806   6.680  12.000 -0.1121 -0.3324 -0.3427
13159TIP3    H160892   4.793   6.632  11.918  0.7462  0.4588 -0.9541
13159TIP3    H260893   4.897   6.666  12.023 -0.3860 -0.6945  0.5921
13160TIP3   OH260894   2.834   0.570  16.547 -0.1581  0.8441  0.0346
13160TIP3    H160895   2.874   0.657  16.550  2.3711 -0.2163  0.4933
13160TIP3    H260896   2.766   0.572  16.614  0.0556  2.3735  0.2403
13161TIP3   OH260897   3.530   0.222  13.459  0.0689 -0.0920 -0.1363
13161TIP3    H160898   3.487   0.157  13.403 -2.2284 -0.3217  1.7695
13161TIP3    H260899   3.620   0.189  13.468 -0.3801 -1.7150 -1.1247
13162TIP3   OH260900   6.447   1.347   4.593  0.1872  0.5883  0.2534
13162TIP3    H160901   6.403   1.389   4.520 -0.1150 -1.7107 -0.9643
13162TIP3    H260902   6.536   1.330   4.561  0.0492 -0.4431  0.3745
13163TIP3   OH260903   5.740   4.592  16.840  0.2397 -0.7593 -0.1888
13163TIP3    H160904   5.803   4.626  16.903  1.0364  0.3650 -1.5319
13163TIP3    H260905   5.788   4.523  16.794  0.7460  0.4772 -1.6003
13164TIP3   OH260906   2.992   5.065  14.275  0.5197  0.2425 -0.0708
13164TIP3    H160907   3.045   5.002  14.225 -0.3584  0.2533 -1.0521
13164TIP3    H260908   2.916   5.016  14.304  0.5150  0.5068  0.3784
13165TIP3   OH260909   5.027   3.083  14.903  0.6779 -0.3023 -0.7273
13165TIP3    H160910   4.956   3.147  14.896  1.2494  0.2658 -1.4174
13165TIP3    H260911   5.045   3.057  14.813  1.4878 -0.2846 -0.5754
13166TIP3   OH260912   5.019   0.862   2.427 -0.0428 -0.3379 -0.1770
13166TIP3    H160913   5.019   0.789   2.489 -1.4821  0.2716  0.5831
13166TIP3    H260914   4.977   0.933   2.475  0.0946  0.5754 -1.3903
13167TIP3   OH260915   1.508   1.176   3.365 -0.1891  0.5845  0.2195
13167TIP3    H160916   1.518   1.085   3.392  0.0843  0.1497 -1.2968
13167TIP3    H260917   1.429   1.206   3.410 -0.9154 -0.7378 -0.1440
13168TIP3   OH260918   5.281   2.904  15.549  0.3853  0.5649  0.2818
13168TIP3    H160919   5.281   2.992  15.513  0.6787  0.7480  0.7207
13168TIP3    H260920   5.284   2.846  15.473 -1.8340  0.8743 -0.1135
13169TIP3   OH260921   5.443   2.326  16.980 -0.0743  0.2082 -0.3869
13169TIP3    H160922   5.470   2.303  16.891  0.1962  0.8902 -0.4845
13169TIP3    H260923   5.499   2.400  17.004 -1.9473  1.7911 -0.6573
13170TIP3   OH260924   3.644   2.585   0.748 -0.0668 -0.2022  0.5673
13170TIP3    H160925   3.680   2.584   0.659 -2.6005  2.1265 -0.6560
13170TIP3    H260926   3.679   2.665   0.787  0.6780 -0.9886  1.5571
13171TIP3   OH260927   5.650   1.112  12.880  0.5216 -0.4083 -0.0038
13171TIP3    H160928   5.650   1.125  12.785 -0.2135 -0.9245 -0.0804
13171TIP3    H260929   5.741   1.089  12.901  0.3176 -2.1236 -0.8613
13172TIP3   OH260930   4.948   0.301  12.942 -0.3245  0.1051 -0.5151
13172TIP3    H160931   4.956   0.211  12.913  0.7008 -0.0446  0.1893
13172TIP3    H260932   4.919   0.349  12.864  0.1764 -0.6498 -1.1751
13173TIP3   OH260933   4.496   1.562   5.026 -0.2730  0.1952  0.7001
13173TIP3    H160934   4.461   1.538   5.112 -0.4447  0.1574  0.6210
13173TIP3    H260935   4.564   1.497   5.010 -2.7470 -2.2645 -0.8579
13174TIP3   OH260936   6.711   3.083   2.242 -0.0201 -0.2878 -0.6296
13174TIP3    H160937   6.629   3.073   2.195 -0.6325 -0.8110  0.5101
13174TIP3    H260938   6.709   3.013   2.308  0.8151  0.4050  0.1495
13175TIP3   OH260939   0.404   0.273  11.601  0.3313  0.2259 -0.0194
13175TIP3    H160940   0.417   0.178  11.603 -1.7491 -0.3527 -3.9103
13175TIP3    H260941   0.481   0.307  11.555 -0.3162 -0.0170 -1.3154
13176TIP3   OH260942   2.699   1.258  11.094  0.1479  0.4361 -0.0794
13176TIP3    H160943   2.766   1.326  11.087  1.0028 -0.4824 -1.2692
13176TIP3    H260944   2.647   1.266  11.014  1.0123 -1.0468 -0.8288
13177TIP3   OH260945   0.245   1.365   5.862 -0.0711  0.3148  0.3274
13177TIP3    H160946   0.183   1.292   5.871 -0.2495  0.1213 -1.9902
13177TIP3    H260947   0.193   1.443   5.876 -0.1248  0.0793  1.6182
13178TIP3   OH260948   0.669   6.489   3.556  0.1867  0.1084 -0.2661
13178TIP3    H160949   0.662   6.407   3.507 -0.5585 -0.2592  0.4213
13178TIP3    H260950   0.581   6.506   3.588  0.1324  1.6803 -1.1468
13179TIP3   OH260951   2.029   6.119   0.023 -0.1802 -0.3171 -0.4122
13179TIP3    H160952   2.106   6.098  -0.030  0.5584  2.4471 -0.5941
13179TIP3    H260953   2.040   6.066   0.102  1.9127 -0.0883 -0.4699
13180TIP3   OH260954   1.412   0.393   4.591 -0.2321 -0.0229  0.7188
13180TIP3    H160955   1.466   0.420   4.666 -0.9931 -1.2628  1.7498
13180TIP3    H260956   1.384   0.476   4.551  0.3105  0.6649  1.7059
13181TIP3   OH260957   4.583   2.103   4.372 -0.1525 -0.5776 -0.0286
13181TIP3    H160958   4.578   2.119   4.278 -0.6578  0.3861  0.1500
13181TIP3    H260959   4.509   2.046   4.391  0.7765 -1.9813 -0.4240
13182TIP3   OH260960   1.639   5.024   6.215 -0.1912  0.0021  0.1866
13182TIP3    H160961   1.589   5.092   6.171 -0.2730 -0.1843 -0.0139
13182TIP3    H260962   1.652   4.957   6.148 -0.6118 -0.4423  0.5418
13183TIP3   OH260963   0.778   4.334  15.988 -0.3532 -0.0039  0.0539
13183TIP3    H160964   0.864   4.293  15.978 -1.1767 -1.4258 -1.9466
13183TIP3    H260965   0.766   4.384  15.908 -2.4910 -2.1785 -1.1184
13184TIP3   OH260966   1.302   1.635  13.030  0.1374  0.4002 -0.7616
13184TIP3    H160967   1.356   1.682  12.966  2.0607 -1.9215 -1.0049
13184TIP3    H260968   1.222   1.614  12.983  0.4146  1.0462 -1.5385
13185TIP3   OH260969   6.250   2.441   3.580 -0.4431 -0.1846  0.0480
13185TIP3    H160970   6.160   2.436   3.547 -0.1343  1.8672 -1.2876
13185TIP3    H260971   6.241   2.453   3.674 -1.5132 -1.3468  0.1091
13186TIP3   OH260972   6.055   0.126  10.860  0.1750  0.7056 -0.6224
13186TIP3    H160973   6.001   0.056  10.821  0.1699  0.3773 -0.0347
13186TIP3    H260974   6.140   0.117  10.817  0.4013 -0.1483 -0.0107
13187TIP3   OH260975   3.162   1.799  10.773 -0.5126 -0.1235  0.1345
13187TIP3    H160976   3.232   1.854  10.808 -0.0904 -0.1308 -0.6798
13187TIP3    H260977   3.114   1.857  10.714  1.4718 -1.2110 -2.7615
13188TIP3   OH260978   5.669   2.018  15.714  0.2831 -0.0198 -0.4360
13188TIP3    H160979   5.639   1.998  15.802 -0.3947 -0.6548 -0.7926
13188TIP3    H260980   5.750   1.968  15.703 -0.2055 -0.7921 -0.5418
13189TIP3   OH260981   0.787   3.375  13.533 -0.1008 -0.0745  0.2196
13189TIP3    H160982   0.768   3.331  13.616  0.4626  0.1619  0.4758
13189TIP3    H260983   0.749   3.462  13.543  0.2546  0.0651  0.3550
13190TIP3   OH260984   4.073   3.449  13.889 -0.1115  0.1236 -0.1017
13190TIP3    H160985   4.117   3.529  13.860 -0.3021  0.2636 -0.0083
13190TIP3    H260986   4.129   3.415  13.959  0.7730 -0.6416 -1.1484
13191TIP3   OH260987   2.400   6.491   5.334  0.2417 -0.6482 -0.2447
13191TIP3    H160988   2.344   6.565   5.309 -1.4146 -1.5032  0.7235
13191TIP3    H260989   2.414   6.444   5.253 -0.0371 -0.1335 -0.6007
13192TIP3   OH260990   4.194   3.884  15.243  0.2604  0.5515  1.1641
13192TIP3    H160991   4.175   3.947  15.175 -0.1474  0.1427  0.8949
13192TIP3    H260992   4.170   3.799  15.205 -0.4365  0.3652  1.9861
13193TIP3   OH260993   2.839   3.660  16.172 -0.1429  0.2452  0.0244
13193TIP3    H160994   2.782   3.586  16.151 -0.3487  0.2707  0.4880
13193TIP3    H260995   2.802   3.698  16.251  0.7276  0.0268  0.5554
13194TIP3   OH260996   1.421   3.836   4.934  0.2206  0.3089  0.5344
13194TIP3    H160997   1.438   3.744   4.950 -0.5330  0.1983  0.7433
13194TIP3    H260998   1.454   3.881   5.012 -1.8732 -0.0624  1.7178
13195TIP3   OH260999   5.784   2.862   1.522  1.1685 -0.2485 -0.0202
13195TIP3    H161000   5.759   2.908   1.602  1.8626  0.9393 -0.4545
13195TIP3    H261001   5.706   2.863   1.467  1.9664  3.4006 -1.3610
13196TIP3   OH261002   4.116   5.985  15.821 -0.1675  0.4857 -0.1911
13196TIP3    H161003   4.169   5.997  15.899  0.4559 -0.6290 -0.4291
13196TIP3    H261004   4.032   5.953  15.853  0.4481 -1.0593 -0.0108
13197TIP3   OH261005   5.044   3.628  16.975 -0.2588  0.4606  0.0400
13197TIP3    H161006   4.970   3.647  17.033 -0.7686 -0.0323 -0.4248
13197TIP3    H261007   5.066   3.537  16.995  1.9574  1.3453  2.0383
13198TIP3   OH261008   5.813   2.883   2.829  0.5163 -0.1338 -0.7934
13198TIP3    H161009   5.797   2.936   2.750 -2.8602 -0.2557 -0.2987
13198TIP3    H261010   5.840   2.947   2.895  0.1317  0.4410 -1.1784
13199TIP3   OH261011   4.682   6.662   5.153 -0.3846  0.2064  0.0379
13199TIP3    H161012   4.742   6.655   5.078 -0.1227 -0.1740  0.2819
13199TIP3    H261013   4.652   6.753   5.150  0.8182  0.6401  0.3651
13200TIP3   OH261014   3.808   2.475  12.778 -0.2499 -0.0098 -0.5492
13200TIP3    H161015   3.732   2.423  12.804 -0.3919  0.0479 -0.8424
13200TIP3    H261016   3.864   2.414  12.731  1.1763 -0.7541  1.9439
13201TIP3   OH261017   1.148   3.105  16.796 -0.3032 -0.2247  0.1336
13201TIP3    H161018   1.076   3.163  16.822 -0.7039 -1.2447  1.3488
13201TIP3    H261019   1.222   3.165  16.780 -1.1773  0.7584 -0.3243
13202TIP3   OH261020   3.706   4.730  15.649  0.1081 -0.2316  0.2628
13202TIP3    H161021   3.670   4.683  15.725  0.0109 -0.2090  0.2301
13202TIP3    H261022   3.723   4.819  15.682 -0.2534 -0.1262  0.1652
13203TIP3   OH261023   5.424   0.233  14.390  0.3686  0.3726  0.2248
13203TIP3    H161024   5.458   0.301  14.448 -1.9726  1.1111  0.8514
13203TIP3    H261025   5.501   0.193  14.352  1.8768  3.0558  0.1978
13204TIP3   OH261026   1.316   6.748  14.905  0.3558 -0.2249 -0.1107
13204TIP3    H161027   1.306   6.694  14.827 -0.0843  1.2543 -1.1105
13204TIP3    H261028   1.226   6.764  14.935  0.4311  0.6659 -0.3378
13205TIP3   OH261029   6.494   2.907  11.241 -0.7577 -0.1366 -0.6839
13205TIP3    H161030   6.587   2.909  11.221 -0.1736  1.6507  1.7478
13205TIP3    H261031   6.487   2.851  11.318 -1.7818 -0.6232 -1.1104
13206TIP3   OH261032   1.556   1.027   2.105  0.6029 -0.0883 -0.6881
13206TIP3    H161033   1.588   1.058   2.190 -0.6421 -3.0165  1.0162
13206TIP3    H261034   1.485   0.967   2.127  1.5198 -2.5166 -3.6823
13207TIP3   OH261035   5.248   4.997   1.384  0.7327  0.4318 -0.0574
13207TIP3    H161036   5.201   5.002   1.302 -0.4205  2.1592  0.6645
13207TIP3    H261037   5.327   5.050   1.370  0.3962  0.9620  0.0232
13208TIP3   OH261038   3.596   2.608   4.557 -0.6195 -0.1495  0.6283
13208TIP3    H161039   3.612   2.561   4.475 -1.8818 -1.5864  1.1628
13208TIP3    H261040   3.509   2.646   4.547  0.4469  2.3580  0.1265
13209TIP3   OH261041   1.564   0.542  13.088  0.5081 -0.1375 -0.2871
13209TIP3    H161042   1.646   0.493  13.080 -0.5512 -2.8551  2.7742
13209TIP3    H261043   1.577   0.599  13.164 -0.4416 -0.7601  0.3685
13210TIP3   OH261044   3.573   0.846   5.910  0.5952 -0.7140  0.1833
13210TIP3    H161045   3.573   0.818   5.818 -0.2353 -0.7093  0.1757
13210TIP3    H261046   3.665   0.860   5.931  0.7906 -0.7218 -0.6490
13211TIP3   OH261047   2.908   0.075  11.702  0.1813 -0.3661 -0.5966
13211TIP3    H161048   2.904  -0.020  11.699  0.8612 -0.4291  0.1056
13211TIP3    H261049   3.001   0.095  11.713 -0.2113  0.1872  3.3073
13212TIP3   OH261050   0.774   6.119   4.903  0.1137 -0.1919 -0.0398
13212TIP3    H161051   0.726   6.182   4.958 -0.2785  0.1145 -0.7178
13212TIP3    H261052   0.789   6.044   4.961  2.9300  1.5041  1.6460
13213TIP3   OH261053   0.515   4.528  11.447  0.0707 -0.4500 -0.6897
13213TIP3    H161054   0.597   4.481  11.434  0.7283 -0.0283  1.4510
13213TIP3    H261055   0.538   4.620  11.436  0.7752 -0.0173  3.0259
13214TIP3   OH261056   0.837   6.224   2.042 -0.4248 -0.0733  0.0838
13214TIP3    H161057   0.862   6.280   2.116 -2.3915  0.0419  0.7184
13214TIP3    H261058   0.908   6.160   2.036 -0.1402 -0.0111  1.9905
13215TIP3   OH261059   5.511   3.624   1.274  0.2556 -0.4932 -0.5298
13215TIP3    H161060   5.585   3.588   1.226 -1.0070  0.1845 -3.1337
13215TIP3    H261061   5.535   3.715   1.292  0.7020 -0.7310  0.1307
13216TIP3   OH261062   0.786   4.451  15.451 -0.4614  0.0059 -0.0716
13216TIP3    H161063   0.827   4.441  15.365 -0.4359 -4.0018  0.2065
13216TIP3    H261064   0.732   4.529  15.444  1.4492  1.2248 -2.8654
13217TIP3   OH261065   4.952   1.443  13.735  0.1892  0.3324  0.4034
13217TIP3    H161066   4.925   1.388  13.809 -1.5950 -1.1429 -1.2358
13217TIP3    H261067   5.031   1.487  13.766 -1.4636  1.2391  3.8470
13218TIP3   OH261068   0.027   0.119  12.494  0.1329  0.0129  0.1410
13218TIP3    H161069  -0.048   0.064  12.517  1.1717 -1.3659  0.4028
13218TIP3    H261070   0.019   0.197  12.549 -1.8452  0.5648 -0.8548
13219TIP3   OH261071   1.542   0.509  10.777  0.6091  0.1022  0.5885
13219TIP3    H161072   1.447   0.499  10.783  0.6712 -0.0732  1.5192
13219TIP3    H261073   1.576   0.440  10.834  1.2425  1.3856  1.8328
13220TIP3   OH261074   1.003   1.697   2.203  0.3618 -0.3295 -0.1769
13220TIP3    H161075   0.982   1.702   2.297  1.6986  2.4372  0.0876
13220TIP3    H261076   0.931   1.744   2.160  1.2418  1.0566 -0.1888
13221TIP3   OH261077   4.115   3.300   5.237 -0.3087 -0.0614  0.4087
13221TIP3    H161078   4.141   3.318   5.327 -1.0682 -0.5308  0.7391
13221TIP3    H261079   4.180   3.238   5.205 -0.3073 -0.2676  0.8026
13222TIP3   OH261080   5.058   6.487   0.432 -0.3223 -0.2887 -0.1213
13222TIP3    H161081   5.024   6.520   0.349 -0.3082  0.2396  0.0763
13222TIP3    H261082   5.065   6.565   0.487  0.2588 -0.5446  0.1698
13223TIP3   OH261083   5.666   6.585  11.000 -0.0037  0.0122  0.7670
13223TIP3    H161084   5.627   6.653  10.946 -1.4888 -0.5342  1.1256
13223TIP3    H261085   5.714   6.529  10.939  1.1250  1.2779  0.4518
13224TIP3   OH261086   3.911   5.778  16.489  0.2868  0.2123  0.2291
13224TIP3    H161087   4.006   5.767  16.499  0.3947 -0.5467 -1.2830
13224TIP3    H261088   3.883   5.698  16.444 -1.0173  0.5966  0.3285
13225TIP3   OH261089   1.374   1.723   6.111  0.1232  0.5417 -0.4091
13225TIP3    H161090   1.379   1.693   6.020  0.9330  2.9002 -1.2001
13225TIP3    H261091   1.463   1.717   6.144  0.3135  2.0599 -0.6043
13226TIP3   OH261092   2.307   3.670  12.937 -0.1036  0.1192 -0.0888
13226TIP3    H161093   2.351   3.675  13.022  0.1968 -0.3137 -0.2116
13226TIP3    H261094   2.215   3.686  12.957  0.1347  1.3148  0.1319
13227TIP3   OH261095   6.471   5.753  13.490 -0.2296  0.1819 -0.0292
13227TIP3    H161096   6.386   5.762  13.447 -1.1149  0.2076  1.6449
13227TIP3    H261097   6.486   5.838  13.532 -1.4470 -1.0506  3.2101
13228TIP3   OH261098   2.517   4.210   0.207 -0.2313 -0.3520 -0.6974
13228TIP3    H161099   2.506   4.247   0.120 -0.4865 -1.3438 -1.0988
13228TIP3    H261100   2.588   4.147   0.197 -1.1244 -1.4175 -0.5076
13229TIP3   OH261101   6.480   2.830  12.013  0.1133  0.1570 -0.0502
13229TIP3    H161102   6.518   2.912  12.046 -0.9396  0.8533 -0.5058
13229TIP3    H261103   6.556   2.775  11.993  0.8825  1.4002 -0.6919
13230TIP3   OH261104   3.941   2.666   1.594 -0.4231  0.0509  0.4323
13230TIP3    H161105   3.972   2.661   1.684 -0.7288 -1.3513  0.4670
13230TIP3    H261106   3.963   2.582   1.555 -0.2734  0.6370 -0.8243
13231TIP3   OH261107   1.594   1.486  11.995  0.0125  0.2173  0.2189
13231TIP3    H161108   1.647   1.564  12.015  1.0922 -0.8885  1.9117
13231TIP3    H261109   1.633   1.417  12.047 -3.6569 -0.5323  2.2992
13232TIP3   OH261110   3.889   2.849   3.076 -0.7114  0.3570  0.0476
13232TIP3    H161111   3.919   2.874   2.989 -0.6906  2.6514  0.6446
13232TIP3    H261112   3.796   2.872   3.076 -1.2305 -1.5541  0.0100
13233TIP3   OH261113   0.711   0.188  13.217 -0.2180  0.3392 -0.1399
13233TIP3    H161114   0.739   0.265  13.167  1.2310  0.7304  1.1784
13233TIP3    H261115   0.617   0.183  13.203 -0.3049  2.2008 -0.4684
13234TIP3   OH261116   4.344   6.114   0.110  0.7266  0.4187  0.3100
13234TIP3    H161117   4.255   6.125   0.076  1.3674  2.5784 -0.8898
13234TIP3    H261118   4.338   6.038   0.168 -1.6654 -0.0885 -0.4642
13235TIP3   OH261119   4.384   2.740   4.576 -0.0892  0.1343  0.0610
13235TIP3    H161120   4.448   2.674   4.549 -0.4320  0.4282 -1.5796
13235TIP3    H261121   4.342   2.767   4.494 -3.0335 -0.7784  1.1381
13236TIP3   OH261122   5.905   4.788   3.297  0.2869  0.1975 -0.1646
13236TIP3    H161123   5.880   4.758   3.210  1.3793  0.0399 -0.4405
13236TIP3    H261124   5.860   4.873   3.307 -1.2472 -0.5842 -0.1498
13237TIP3   OH261125   0.183   0.478  11.551  0.2422  0.4946  0.8112
13237TIP3    H161126   0.235   0.398  11.543  0.4002  0.6942 -0.2715
13237TIP3    H261127   0.247   0.545  11.574  0.6139  0.8498 -1.0486
13238TIP3   OH261128   5.147   6.780  14.690 -0.3827  0.3875  0.4669
13238TIP3    H161129   5.191   6.695  14.688  1.9652  1.5037 -2.2428
13238TIP3    H261130   5.072   6.770  14.631  1.2951  0.7597 -1.8496
13239TIP3   OH261131   4.888   6.693  13.178  0.3391  0.1446 -0.1528
13239TIP3    H161132   4.826   6.740  13.234 -0.1258  1.9437 -2.0559
13239TIP3    H261133   4.973   6.710  13.218 -0.0270  0.9083  0.3329
13240TIP3   OH261134   5.698   6.626   1.213  0.0492  0.0857  0.8199
13240TIP3    H161135   5.768   6.639   1.277  0.0328  0.8934  0.6847
13240TIP3    H261136   5.744   6.614   1.129  0.1056 -1.7572  1.0642
13241TIP3   OH261137   2.558   3.907  13.554  0.6110 -0.4011 -0.3044
13241TIP3    H161138   2.615   3.870  13.622 -0.0267 -0.7405  0.0497
13241TIP3    H261139   2.527   3.989  13.591  1.3776  0.1137 -0.7650
13242TIP3   OH261140   0.908   5.248   6.773  0.3186  0.3607 -0.1512
13242TIP3    H161141   0.929   5.338   6.798  0.0879  0.3193  0.2009
13242TIP3    H261142   0.978   5.195   6.810  0.2425  0.3543 -0.0144
13243TIP3   OH261143   5.519   3.277   4.388  0.4267 -0.0579 -0.2895
13243TIP3    H161144   5.508   3.370   4.408  1.9525  0.2556 -0.8100
13243TIP3    H261145   5.494   3.270   4.296 -0.8596 -0.4095  0.0666
13244TIP3   OH261146   0.395   0.795   1.220 -0.3617  0.2765  0.5163
13244TIP3    H161147   0.361   0.827   1.303 -1.6958  0.9557 -0.2580
13244TIP3    H261148   0.444   0.869   1.184  0.0834  0.0328  0.6021
13245TIP3   OH261149   2.435   0.744   4.663  0.1447 -0.1316  0.0262
13245TIP3    H161150   2.423   0.681   4.735 -0.7432 -0.4626 -0.3965
13245TIP3    H261151   2.527   0.768   4.668  0.6111 -1.7505 -0.0122
13246TIP3   OH261152   5.413   5.061  12.008 -0.1088 -0.0246  0.4519
13246TIP3    H161153   5.426   5.062  11.914  1.3408 -0.0879  0.6272
13246TIP3    H261154   5.365   5.142  12.027  0.3306  0.4070 -0.2485
13247TIP3   OH261155   0.074   5.562  13.636 -0.1551  0.5649  0.1106
13247TIP3    H161156   0.136   5.582  13.565  0.9676  0.1890  0.9654
13247TIP3    H261157   0.065   5.467  13.634 -2.2778  0.7354 -1.2752
13248TIP3   OH261158   2.504   4.182   5.331 -0.4138 -0.0497  0.2939
13248TIP3    H161159   2.517   4.089   5.352 -1.2030  0.1442  1.7510
13248TIP3    H261160   2.415   4.187   5.298  0.5277 -0.2079 -2.5967
13249TIP3   OH261161   0.066   0.250  12.074 -0.4616 -0.4233  0.7996
13249TIP3    H161162   0.030   0.164  12.097 -1.8503  0.1808  1.0018
13249TIP3    H261163   0.021   0.274  11.993 -0.7779  0.5143  1.2429
13250TIP3   OH261164   6.604   0.414   3.006  0.0729 -0.3856 -0.1438
13250TIP3    H161165   6.562   0.410   3.092  1.3033 -1.3023  0.4348
13250TIP3    H261166   6.684   0.464   3.021  0.7233 -1.2825 -0.5571
13251TIP3   OH261167   3.250   0.258   0.407  0.8272 -0.6681 -0.2370
13251TIP3    H161168   3.174   0.209   0.438  0.6606  0.9723  2.2666
13251TIP3    H261169   3.305   0.269   0.485  2.0525  0.9363 -1.2619
13252TIP3   OH261170   1.947   3.683   4.569 -0.3097 -0.5828 -0.1169
13252TIP3    H161171   1.946   3.767   4.524 -2.3008 -0.4168  0.1727
13252TIP3    H261172   2.030   3.643   4.542  1.4667  2.0528  0.9087
13253TIP3   OH261173   3.428   1.442   4.069  0.2718 -0.2280  0.0931
13253TIP3    H161174   3.455   1.353   4.049  0.5847 -0.0606 -0.2658
13253TIP3    H261175   3.424   1.485   3.983 -0.7439 -0.1363  0.1825
13254TIP3   OH261176   0.998   3.977  13.777  0.0728 -0.2781  0.4602
13254TIP3    H161177   1.010   4.070  13.756  1.1578 -0.2959  0.9188
13254TIP3    H261178   1.015   3.932  13.694  0.3028 -0.1080  0.4126
13255TIP3   OH261179   1.710   0.510   2.630  0.5194  0.3055  0.1155
13255TIP3    H161180   1.704   0.486   2.723 -0.0061  0.8600  0.2234
13255TIP3    H261181   1.633   0.471   2.590  1.1401 -0.5950 -0.2455
13256TIP3   OH261182   4.999   0.338  15.065 -0.0266 -0.7441  0.1425
13256TIP3    H161183   5.031   0.258  15.023  1.3427 -1.5979  2.6583
13256TIP3    H261184   5.060   0.406  15.036 -0.2368 -0.9010 -0.7120
13257TIP3   OH261185   4.288   4.152  16.834 -0.0880  0.0414  0.3538
13257TIP3    H161186   4.333   4.202  16.767  1.1670  0.1328  1.2211
13257TIP3    H261187   4.352   4.088  16.864 -1.2145 -1.1941  0.2197
13258TIP3   OH261188   0.540   4.746  13.120  0.1595 -0.0673  0.2626
13258TIP3    H161189   0.528   4.757  13.214  1.5369 -1.1828  0.5990
13258TIP3    H261190   0.499   4.661  13.101 -0.9465  0.5795 -0.3361
13259TIP3   OH261191   2.453   3.992   0.510 -0.3180  0.7333 -0.5048
13259TIP3    H161192   2.539   3.965   0.540 -0.5260  0.8794  0.2514
13259TIP3    H261193   2.444   3.954   0.423  0.5680  0.8478 -0.6478
13260TIP3   OH261194   4.434   0.388  13.900  0.4724 -0.1639  0.2515
13260TIP3    H161195   4.381   0.309  13.896 -0.5272  0.4412  0.9567
13260TIP3    H261196   4.502   0.369  13.964  0.1806 -0.4194  0.4854
13261TIP3   OH261197   0.571   3.976   6.048 -0.1040 -0.2842 -0.5774
13261TIP3    H161198   0.595   3.891   6.010  4.2659  0.4831 -0.0415
13261TIP3    H261199   0.545   3.956   6.137  1.4600 -1.0923 -0.2660
13262TIP3   OH261200   2.287   1.377   4.127  0.2005  0.0689  0.5299
13262TIP3    H161201   2.354   1.385   4.059 -2.2035 -1.2971 -2.1853
13262TIP3    H261202   2.246   1.464   4.129  0.2847  0.1178  0.2543
13263TIP3   OH261203   0.415   0.073   3.535 -0.6817  0.0806 -0.1012
13263TIP3    H161204   0.340   0.029   3.495 -0.0454 -0.7184 -0.4364
13263TIP3    H261205   0.389   0.084   3.626 -1.7488  1.0366 -0.4905
13264TIP3   OH261206   2.491   6.353   1.388  0.1925 -0.1264 -0.0843
13264TIP3    H161207   2.467   6.333   1.297  0.3615 -0.0333 -0.1495
13264TIP3    H261208   2.407   6.368   1.432  0.1922  2.8503 -0.9163
13265TIP3   OH261209   0.934   4.228   1.040 -0.5735 -0.0177 -0.2151
13265TIP3    H161210   0.844   4.199   1.052  0.5507 -3.2909  1.5446
13265TIP3    H261211   0.964   4.180   0.963 -0.5274  1.8690 -1.4535
13266TIP3   OH261212   5.047   6.699   4.203  0.1217 -0.1074 -0.2645
13266TIP3    H161213   5.085   6.674   4.118 -1.2533 -1.0198 -0.6590
13266TIP3    H261214   4.953   6.700   4.187 -0.1891 -0.5902  1.3243
13267TIP3   OH261215   3.902   0.210  16.096 -0.1044 -0.1669 -0.2073
13267TIP3    H161216   3.830   0.229  16.036 -0.6386  0.8493  0.7303
13267TIP3    H261217   3.870   0.137  16.149  0.2082 -0.7913 -0.8572
13268TIP3   OH261218   1.278   5.053  14.526  0.4922  0.3197 -0.2823
13268TIP3    H161219   1.341   5.008  14.469  0.0235 -0.5647 -0.1125
13268TIP3    H261220   1.236   4.983  14.575  0.5352  1.0329  0.8042
13269TIP3   OH261221   0.488   1.414   3.940  0.0054  0.1775  0.0833
13269TIP3    H161222   0.431   1.410   3.864  0.6158  1.6528 -0.4844
13269TIP3    H261223   0.533   1.330   3.941  1.8091  0.9691 -2.6703
13270TIP3   OH261224   1.791   1.201  12.728 -0.4507 -0.3162 -0.7437
13270TIP3    H161225   1.785   1.290  12.761  2.4164 -0.4659  0.5197
13270TIP3    H261226   1.862   1.203  12.664 -0.3558 -1.6791 -0.7215
13271TIP3   OH261227   3.850   1.137  15.207 -0.8051  0.4752 -0.6047
13271TIP3    H161228   3.765   1.177  15.228  0.2045  2.5496 -0.1720
13271TIP3    H261229   3.888   1.115  15.292 -1.1670 -1.0905 -0.8274
13272TIP3   OH261230   0.798   3.025   1.695  0.6547  0.3027  0.4507
13272TIP3    H161231   0.720   3.003   1.645  0.8035 -0.0514  0.3745
13272TIP3    H261232   0.806   2.956   1.761  0.7371  0.4995  0.6525
13273TIP3   OH261233   5.495   3.422  11.437  0.1328  0.0465 -0.0777
13273TIP3    H161234   5.578   3.375  11.436  0.2829  0.1962 -3.1397
13273TIP3    H261235   5.431   3.356  11.463  0.8280 -0.8640 -0.6048
13274TIP3   OH261236   1.581   1.011   0.453  0.6527  0.2678 -0.1206
13274TIP3    H161237   1.574   0.921   0.486 -0.0987 -0.5210 -2.2267
13274TIP3    H261238   1.529   1.063   0.514  0.3553 -0.8837  0.6434
13275TIP3   OH261239   2.588   6.568  14.913 -0.3845 -0.0082  0.5764
13275TIP3    H161240   2.599   6.490  14.859 -0.6348 -0.6516  1.4375
13275TIP3    H261241   2.641   6.551  14.991  0.3925  1.1254  0.3276
13276TIP3   OH261242   6.358   2.389  11.804  0.2378 -0.3966 -1.0413
13276TIP3    H161243   6.328   2.334  11.732 -1.7466  1.2541 -1.6048
13276TIP3    H261244   6.277   2.422  11.844  1.3129  0.7836  0.2994
13277TIP3   OH261245   2.509   5.485  15.007  0.1839  0.0261  0.1322
13277TIP3    H161246   2.473   5.538  15.079 -0.7924 -1.4000  0.7266
13277TIP3    H261247   2.568   5.423  15.050 -0.6773 -1.0684 -0.2243
13278TIP3   OH261248   5.110   2.324  15.264 -0.1794 -0.1202  0.3772
13278TIP3    H161249   5.101   2.391  15.332 -0.4740  0.6218 -0.3756
13278TIP3    H261250   5.125   2.242  15.312  0.4877  0.5274  1.3096
13279TIP3   OH261251   4.826   2.595  11.462 -0.4469 -0.8589 -1.1334
13279TIP3    H161252   4.758   2.642  11.511  0.3209 -0.4299 -0.4466
13279TIP3    H261253   4.791   2.588  11.374 -0.6195  1.0027 -1.2643
13280TIP3   OH261254   1.014   4.045   0.855 -0.6741  0.6284 -0.0478
13280TIP3    H161255   0.992   4.075   0.767 -0.8383 -0.2561 -0.3124
13280TIP3    H261256   1.098   4.000   0.845 -1.9861 -1.9170 -0.2998
13281TIP3   OH261257   1.532   4.264   0.091 -0.4436  0.1728 -0.2667
13281TIP3    H161258   1.545   4.170   0.075 -0.8116  0.0167  0.3268
13281TIP3    H261259   1.584   4.282   0.170 -0.2288  0.5055 -0.4840
13282TIP3   OH261260   3.916   3.144  13.968  0.0930 -0.6124 -0.1837
13282TIP3    H161261   3.830   3.114  13.998 -0.2263 -0.1285 -0.6114
13282TIP3    H261262   3.917   3.238  13.988  1.2789 -0.9484  1.6204
13283TIP3   OH261263   1.030   3.721   0.044  0.2155 -0.2929  0.7471
13283TIP3    H161264   0.936   3.731   0.026  0.4475 -0.0016 -0.3727
13283TIP3    H261265   1.071   3.797   0.003  0.9474 -0.4332  1.2007
13284TIP3   OH261266   4.228   1.105  11.509 -0.1374 -0.7379  0.0981
13284TIP3    H161267   4.209   1.058  11.428 -0.5901 -0.6880  0.1692
13284TIP3    H261268   4.292   1.051  11.554 -0.5581 -1.2275  0.1201
13285TIP3   OH261269   0.581   6.819  12.825 -0.2006 -1.0041 -0.2415
13285TIP3    H161270   0.600   6.780  12.910 -0.4841 -1.4025 -0.3574
13285TIP3    H261271   0.506   6.769  12.792  0.0675 -1.0257 -0.8385
13286TIP3   OH261272   6.751   3.871   3.641 -0.1469  0.7062  0.0563
13286TIP3    H161273   6.787   3.833   3.561 -0.4563  1.9898 -0.7315
13286TIP3    H261274   6.656   3.871   3.626 -0.1673  1.5341  0.1299
13287TIP3   OH261275   0.016   0.531  12.894 -0.3299 -0.2284 -0.1333
13287TIP3    H161276   0.021   0.604  12.832  0.8580  1.4721  1.8368
13287TIP3    H261277  -0.027   0.569  12.971  1.2644 -1.2913  1.3388
13288TIP3   OH261278   1.049   0.625  13.948  0.7383 -0.6338  0.1716
13288TIP3    H161279   1.107   0.588  13.881  0.5543  0.4721 -0.6334
13288TIP3    H261280   1.023   0.550  14.002 -0.0232 -1.7667 -1.6743
13289TIP3   OH261281   3.628   0.029   3.623 -0.3471 -0.1278 -0.3376
13289TIP3    H161282   3.554   0.032   3.561  0.5709 -0.5056 -1.4878
13289TIP3    H261283   3.595  -0.024   3.696 -1.7444  1.0358 -0.0525
13290TIP3   OH261284   3.995   2.958   5.244 -0.3140  0.2619  0.2901
13290TIP3    H161285   4.044   3.040   5.250  1.3267 -0.7018  0.5659
13290TIP3    H261286   3.920   2.970   5.302 -0.9584  2.1084 -0.8446
13291TIP3   OH261287   0.892   5.680   5.931  0.0100 -0.3807  0.1538
13291TIP3    H161288   0.831   5.606   5.926 -2.2645  1.3872  0.5415
13291TIP3    H261289   0.922   5.680   6.022 -0.1674 -0.6586  0.2134
13292TIP3   OH261290   3.179   6.678   1.906 -0.1625  0.0093  0.0109
13292TIP3    H161291   3.149   6.637   1.987  0.4553 -1.1994 -0.3500
13292TIP3    H261292   3.115   6.650   1.840  0.0866 -0.1173 -0.1768
13293TIP3   OH261293   0.248   0.031   0.900  0.3518 -0.1943  0.4416
13293TIP3    H161294   0.320   0.093   0.891 -0.9765  1.3959  0.2374
13293TIP3    H261295   0.201   0.037   0.816  0.1420 -1.4460  0.4475
13294TIP3   OH261296   1.278   4.056   0.809 -0.8373 -0.6974 -0.1909
13294TIP3    H161297   1.327   4.064   0.891 -0.1363  1.9149 -0.7510
13294TIP3    H261298   1.339   4.012   0.749  0.4328  1.3065 -0.4859
13295TIP3   OH261299   4.970   2.403   0.737  0.3173 -0.1158 -0.6321
13295TIP3    H161300   4.998   2.411   0.646  2.6195 -0.3304 -0.0054
13295TIP3    H261301   4.939   2.313   0.745 -0.1418 -0.0186 -1.2589
13296TIP3   OH261302   5.382   3.189   3.678 -0.2143  0.3148 -0.6542
13296TIP3    H161303   5.359   3.102   3.647  2.1984 -0.7176  0.2244
13296TIP3    H261304   5.459   3.213   3.627  2.0789 -0.1953  2.2904
13297TIP3   OH261305   4.679   5.690  14.909 -0.9953  0.1040 -0.4220
13297TIP3    H161306   4.673   5.730  14.822 -0.8166  0.9446 -0.0550
13297TIP3    H261307   4.753   5.631  14.903 -0.4873  0.7460 -0.6195
13298TIP3   OH261308   4.638   5.535   5.433  0.2759  0.0781 -0.6414
13298TIP3    H161309   4.699   5.463   5.417 -1.1355 -1.8044  1.7739
13298TIP3    H261310   4.578   5.533   5.358  0.0687 -1.5136 -0.4538
13299TIP3   OH261311   0.155   6.144   1.890 -0.3077 -0.0395 -0.1144
13299TIP3    H161312   0.111   6.223   1.922 -1.5436 -0.6799 -0.1838
13299TIP3    H261313   0.201   6.110   1.967 -2.6873 -1.1863  0.9048
13300TIP3   OH261314   6.791   4.925  12.731 -0.4209 -0.4615  0.3574
13300TIP3    H161315   6.850   4.991  12.770  0.0958 -0.3611 -0.5635
13300TIP3    H261316   6.797   4.941  12.637 -0.1253 -1.9659  0.1027
13301TIP3   OH261317   1.139   5.822  12.130  0.1455  0.4454 -0.5110
13301TIP3    H161318   1.087   5.757  12.082  0.7493  0.3678 -1.0764
13301TIP3    H261319   1.104   5.819  12.219  0.0086 -0.4981 -0.5786
13302TIP3   OH261320   5.375   4.414   0.654 -0.2840  0.0239 -0.1376
13302TIP3    H161321   5.434   4.488   0.641 -0.4501  0.1936  0.0658
13302TIP3    H261322   5.402   4.350   0.588  2.0661 -1.1271  1.7895
13303TIP3   OH261323   4.994   5.899   1.340  0.1341  0.3698 -0.3472
13303TIP3    H161324   4.913   5.867   1.300  0.4448  0.0655 -0.7510
13303TIP3    H261325   4.988   5.994   1.334 -0.3504  0.3584 -0.0554
13304TIP3   OH261326   4.328   5.820   0.504 -0.0811 -0.2967  0.2454
13304TIP3    H161327   4.381   5.745   0.530 -0.4901 -0.7502 -0.1975
13304TIP3    H261328   4.238   5.787   0.507 -0.1902 -0.1672 -1.0438
13305TIP3   OH261329   1.353   1.280  12.192 -0.4145  0.0495 -0.1425
13305TIP3    H161330   1.447   1.277  12.208 -0.5828 -0.2827  0.8712
13305TIP3    H261331   1.344   1.276  12.097  0.5788 -0.2884 -0.2279
13306TIP3   OH261332   0.813   3.836   1.959  0.0777  0.7263  0.2001
13306TIP3    H161333   0.740   3.878   2.005 -0.8503  0.2150 -0.7513
13306TIP3    H261334   0.787   3.839   1.866 -0.1029 -2.0428  0.0940
13307TIP3   OH261335   4.161   3.151  14.980  0.0189 -0.4672 -1.1987
13307TIP3    H161336   4.172   3.068  14.934 -1.2665 -1.6943  0.6176
13307TIP3    H261337   4.250   3.187  14.986  0.7511 -2.2417 -1.0281
13308TIP3   OH261338   5.799   1.719   4.679  0.2644  0.2697  0.3140
13308TIP3    H161339   5.718   1.762   4.653  0.4660 -0.9360 -2.7040
13308TIP3    H261340   5.868   1.776   4.646  0.5593 -0.5771 -0.5836
13309TIP3   OH261341   0.134   5.310   2.798  0.3650 -0.0475 -0.7630
13309TIP3    H161342   0.073   5.259   2.745  1.2319 -1.1338 -0.7591
13309TIP3    H261343   0.106   5.401   2.787 -1.1639 -0.5054 -0.8490
13310TIP3   OH261344   0.649   4.963  12.320  0.1251 -0.2206 -0.2942
13310TIP3    H161345   0.581   5.001  12.264 -0.9757  2.6366  2.7019
13310TIP3    H261346   0.620   4.873  12.335 -2.4414  0.5734 -0.0361
13311TIP3   OH261347   1.678   2.636  11.462  0.2471 -0.1835 -0.5780
13311TIP3    H161348   1.646   2.679  11.383 -0.4465 -1.2686 -0.9082
13311TIP3    H261349   1.692   2.545  11.436  0.3327 -0.4827  0.4620
13312TIP3   OH261350   2.746   5.308   5.305  0.0976 -0.2463  0.4039
13312TIP3    H161351   2.709   5.233   5.259 -2.4559  0.5345  1.0394
13312TIP3    H261352   2.812   5.342   5.245  0.9973 -2.6616 -0.1072
13313TIP3   OH261353   4.231   6.377   1.066  0.4266 -0.3195 -0.5700
13313TIP3    H161354   4.279   6.459   1.051  0.3311 -0.1624 -0.0317
13313TIP3    H261355   4.291   6.323   1.117  0.8808 -0.9851 -1.7608
13314TIP3   OH261356   2.144   0.381  12.281  0.2341  0.1870  0.3367
13314TIP3    H161357   2.110   0.324  12.211  1.5201 -1.3468  0.8830
13314TIP3    H261358   2.071   0.438  12.303 -1.0675 -1.0965 -0.4328
13315TIP3   OH261359   6.190   5.837  12.061  0.6499 -0.3423  0.2575
13315TIP3    H161360   6.273   5.874  12.033 -0.1092 -1.3760 -4.0703
13315TIP3    H261361   6.136   5.913  12.082  2.3046  0.3674  2.2976
13316TIP3   OH261362   5.908   1.962  14.031 -0.6502 -0.0085 -0.0725
13316TIP3    H161363   5.825   1.939  13.991 -0.5044 -1.2607  0.3216
13316TIP3    H261364   5.954   1.879  14.043  1.0441  0.7040 -1.0964
13317TIP3   OH261365   5.365   1.446   2.595 -0.2854 -0.1644  0.0906
13317TIP3    H161366   5.379   1.539   2.575  2.4703 -0.5922 -0.4293
13317TIP3    H261367   5.376   1.401   2.511 -0.1856 -1.0622  0.5733
13318TIP3   OH261368   0.728   3.452   5.683  0.1738  0.9532  0.2662
13318TIP3    H161369   0.687   3.482   5.764  2.6065  0.5130  1.7613
13318TIP3    H261370   0.655   3.439   5.622 -1.5304  3.7320  1.5212
13319TIP3   OH261371   4.531   4.393   5.836 -0.4837 -0.0595 -0.0187
13319TIP3    H161372   4.526   4.392   5.931  1.8953 -1.0098  0.1674
13319TIP3    H261373   4.441   4.377   5.807 -1.0495 -0.9960  2.0670
13320TIP3   OH261374   6.186   3.986   3.737 -0.2731 -0.1782 -0.6784
13320TIP3    H161375   6.137   4.063   3.707 -0.8266 -0.5893 -0.8523
13320TIP3    H261376   6.140   3.958   3.816  0.1757 -0.0911 -0.3820
13321TIP3   OH261377   5.091   0.817   3.882 -0.1602  0.1522  0.4247
13321TIP3    H161378   5.028   0.888   3.892  1.4729  1.5273  1.4436
13321TIP3    H261379   5.038   0.737   3.885 -2.1670  1.2778 -1.7686
13322TIP3   OH261380   6.665   0.452   1.601  0.0295  0.2674 -0.0331
13322TIP3    H161381   6.597   0.507   1.562 -0.7996 -0.5824  0.1868
13322TIP3    H261382   6.736   0.513   1.623 -1.1315  1.3620  0.8269
13323TIP3   OH261383   3.835   1.431   3.851  0.2402 -0.2703 -0.2747
13323TIP3    H161384   3.871   1.513   3.819  0.2515  1.2267  3.1056
13323TIP3    H261385   3.742   1.434   3.825 -0.6261  2.5685  2.5224
13324TIP3   OH261386   2.887   0.171  13.294  0.5106 -0.4777 -0.0961
13324TIP3    H161387   2.982   0.164  13.292  0.6968  1.6127 -0.4722
13324TIP3    H261388   2.861   0.133  13.378  1.4971 -2.3329 -0.5584
13325TIP3   OH261389   2.286   1.817  12.934  0.6108 -0.2681 -0.8373
13325TIP3    H161390   2.273   1.826  12.839  0.1608 -2.3051 -1.0124
13325TIP3    H261391   2.378   1.791  12.943  0.8122  0.4919 -0.6599
13326TIP3   OH261392   3.438   5.984   4.112 -0.3404  0.8448 -0.7479
13326TIP3    H161393   3.518   5.931   4.113 -1.1627 -0.4978 -1.9525
13326TIP3    H261394   3.451   6.046   4.041  0.5612  2.2334  0.5670
13327TIP3   OH261395   0.524   3.632   1.034 -0.1895 -0.1337 -0.3174
13327TIP3    H161396   0.555   3.720   1.058 -0.4013 -0.7813  2.7399
13327TIP3    H261397   0.433   3.647   1.005 -0.6416  0.5823  1.3354
13328TIP3   OH261398   3.846   2.670   4.657 -0.2943  0.1739  0.1412
13328TIP3    H161399   3.766   2.646   4.611 -1.1865  2.4275  0.3675
13328TIP3    H261400   3.816   2.717   4.735  1.2188  1.6636 -0.1104
13329TIP3   OH261401   4.778   1.517   1.262 -0.1931  0.2449 -0.1549
13329TIP3    H161402   4.762   1.583   1.329  0.6928  1.0140 -0.6679
13329TIP3    H261403   4.699   1.519   1.208 -0.0436  1.1516 -0.3631
13330TIP3   OH261404   4.436   1.854   5.397  0.1379  0.8474 -0.0278
13330TIP3    H161405   4.493   1.781   5.375 -1.6432 -0.0854 -1.8488
13330TIP3    H261406   4.495   1.929   5.404  1.6556 -0.1763 -1.1773
13331TIP3   OH261407   3.829   0.181   1.282  0.1164  0.1150  0.1846
13331TIP3    H161408   3.833   0.197   1.376 -0.7012 -1.0443  0.4476
13331TIP3    H261409   3.895   0.239   1.245 -0.5989  1.7025  1.3084
13332TIP3   OH261410   3.869   4.807   3.634 -0.1825  0.3273  0.6937
13332TIP3    H161411   3.925   4.831   3.708 -0.0960  0.0477  0.7233
13332TIP3    H261412   3.902   4.721   3.607  0.0614  0.6160  0.0607
13333TIP3   OH261413   1.459   0.906   5.836 -0.6161 -0.0767 -0.5885
13333TIP3    H161414   1.423   0.984   5.792  0.0948 -0.7480 -2.4745
13333TIP3    H261415   1.444   0.835   5.774  0.6239 -1.0485  0.1809
13334TIP3   OH261416   1.814   2.960  14.359  0.8973 -0.3891 -0.0577
13334TIP3    H161417   1.796   2.935  14.269 -0.6573  0.4653 -0.0189
13334TIP3    H261418   1.852   3.047  14.352 -2.1646  1.0999  0.1749
13335TIP3   OH261419   6.512   1.024  16.593  0.4017  0.4915 -0.3087
13335TIP3    H161420   6.477   0.941  16.561  0.3220  1.3430 -2.6058
13335TIP3    H261421   6.552   1.065  16.516  2.0447  1.7948  1.1508
13336TIP3   OH261422   4.704   1.165  10.845  0.7208 -0.2885  0.0438
13336TIP3    H161423   4.644   1.192  10.914  0.0439  0.2015 -0.7096
13336TIP3    H261424   4.749   1.245  10.819  0.3628 -0.2958 -0.6403
13337TIP3   OH261425   4.531   2.548   1.244  0.1974  0.4149  0.5691
13337TIP3    H161426   4.568   2.626   1.285  1.0147  0.5278 -0.3677
13337TIP3    H261427   4.572   2.475   1.290 -0.5525  0.5118  1.4325
13338TIP3   OH261428   4.934   1.297   1.362 -0.2964  0.7255 -0.0300
13338TIP3    H161429   4.869   1.231   1.387 -0.2065 -0.3069 -2.3238
13338TIP3    H261430   4.883   1.366   1.320 -0.2575  1.6329  1.3513
13339TIP3   OH261431   1.523   0.663  12.807  0.7932 -0.0243  0.3953
13339TIP3    H161432   1.461   0.593  12.788  0.2587  0.1293  1.5052
13339TIP3    H261433   1.539   0.657  12.901 -0.1868  2.0421  0.7685
13340TIP3   OH261434   4.833   3.727  14.759 -0.4323  0.2327  0.1374
13340TIP3    H161435   4.832   3.765  14.847 -0.1365 -0.5967  0.5101
13340TIP3    H261436   4.925   3.727  14.734 -0.2817 -1.2253  0.5970
13341TIP3   OH261437   4.372   5.733  14.767  0.3351 -0.5527  0.7294
13341TIP3    H161438   4.302   5.707  14.826  0.0927  0.6239  0.9956
13341TIP3    H261439   4.402   5.818  14.801 -0.2467  0.4761 -1.1675
13342TIP3   OH261440   3.116   6.290  12.213  0.4321  0.7285 -0.3152
13342TIP3    H161441   3.152   6.367  12.256 -1.9197  0.0863  3.2025
13342TIP3    H261442   3.021   6.298  12.226 -0.1121 -1.3765 -2.3806
13343TIP3   OH261443   4.558   1.797  16.955 -0.7005 -0.6700 -0.3157
13343TIP3    H161444   4.541   1.889  16.935  0.3812 -0.6604 -1.2645
13343TIP3    H261445   4.475   1.752  16.937 -1.4016  0.1797  0.6787
13344TIP3   OH261446   5.639   1.308  13.176 -0.1496 -0.2914 -0.3832
13344TIP3    H161447   5.689   1.302  13.257  0.1085 -0.1354 -0.5299
13344TIP3    H261448   5.703   1.293  13.106 -0.2503  0.1776 -0.5820
13345TIP3   OH261449   4.173   6.053  14.929 -0.1012 -0.5773 -0.4007
13345TIP3    H161450   4.215   6.057  15.015  0.8563  0.6810 -0.8933
13345TIP3    H261451   4.167   5.959  14.910  2.0296 -0.8350 -0.0616
13346TIP3   OH261452   4.555   4.178   6.274 -0.2194 -0.0422  0.0162
13346TIP3    H161453   4.502   4.099   6.283  0.3293 -0.2846  1.2592
13346TIP3    H261454   4.645   4.149   6.286  0.0350  0.7031  0.0060
13347TIP3   OH261455   1.548   5.484  15.123  0.1661 -0.4007  0.2865
13347TIP3    H161456   1.566   5.479  15.217 -0.7935  1.2903  0.6020
13347TIP3    H261457   1.605   5.417  15.084  0.4795 -1.2279  2.0660
13348TIP3   OH261458   1.384   3.968   5.337  0.3577  0.3282 -0.4005
13348TIP3    H161459   1.294   3.959   5.368  0.5256 -0.7708 -0.1987
13348TIP3    H261460   1.378   4.026   5.262 -0.4816  0.4817 -0.2203
13349TIP3   OH261461   4.004   2.625   2.578  0.5232  0.0531 -0.2725
13349TIP3    H161462   3.948   2.568   2.525  1.9843 -1.1558 -0.5836
13349TIP3    H261463   4.077   2.647   2.521  1.6206 -0.4332  0.9011
13350TIP3   OH261464   6.174   3.357   2.671  0.2068 -0.1878 -0.2088
13350TIP3    H161465   6.142   3.403   2.594  2.2264  0.0561 -0.9409
13350TIP3    H261466   6.095   3.317   2.709 -0.7762 -0.8056 -2.6912
13351TIP3   OH261467   4.746   2.293  11.983 -0.0775 -0.2053  0.7054
13351TIP3    H161468   4.703   2.225  11.931 -0.3200 -0.9730  1.8811
13351TIP3    H261469   4.755   2.366  11.923  1.4172 -1.7149 -1.0254
13352TIP3   OH261470   1.592   0.928  12.836 -0.1860 -0.0829  0.1138
13352TIP3    H161471   1.661   0.911  12.772 -0.3904 -1.3352  0.2102
13352TIP3    H261472   1.533   0.853  12.829 -1.4335  0.8495  0.1936
13353TIP3   OH261473   5.559   1.971  11.838  0.2597 -0.2094  0.0166
13353TIP3    H161474   5.519   2.031  11.775  0.3041 -0.6957 -0.4877
13353TIP3    H261475   5.619   2.025  11.889  1.4926 -0.0889 -1.4839
13354TIP3   OH261476   5.514   5.699  15.724  0.4617 -0.3840  0.5119
13354TIP3    H161477   5.526   5.624  15.782  0.6122  0.2771  1.3566
13354TIP3    H261478   5.602   5.738  15.718  0.2178  0.2150  0.7724
13355TIP3   OH261479   3.703   0.134  16.781 -0.1684 -0.4781 -0.6013
13355TIP3    H161480   3.772   0.116  16.717 -0.6080 -3.0536 -0.4860
13355TIP3    H261481   3.744   0.116  16.866 -0.5196 -0.3672 -0.4083
13356TIP3   OH261482   4.061   3.895  12.608 -0.6167 -0.1723 -0.0624
13356TIP3    H161483   4.022   3.911  12.694 -1.2277 -0.8205 -0.2131
13356TIP3    H261484   4.016   3.817  12.575 -1.2112  0.7281 -1.4718
13357TIP3   OH261485   1.095   5.688   0.120 -0.4106  0.3055 -0.3703
13357TIP3    H161486   1.170   5.635   0.093 -1.9066 -1.4676 -1.2627
13357TIP3    H261487   1.060   5.723   0.038 -2.1995 -1.2464 -0.3420
13358TIP3   OH261488   0.701   5.009  15.823  0.2921 -0.2658  0.5273
13358TIP3    H161489   0.636   4.939  15.823 -1.2432  1.0968 -0.2223
13358TIP3    H261490   0.651   5.089  15.843  1.1787  1.2432 -2.5934
13359TIP3   OH261491   3.486   0.282   1.662 -0.0387 -0.4366 -0.8247
13359TIP3    H161492   3.529   0.345   1.719 -0.3027 -0.0546 -1.0353
13359TIP3    H261493   3.540   0.203   1.667 -0.2165 -0.5061  0.1658
13360TIP3   OH261494   1.393   1.993   1.891 -0.5003  0.3050 -0.5009
13360TIP3    H161495   1.472   2.046   1.880  0.8131 -1.7503 -1.6938
13360TIP3    H261496   1.334   2.022   1.821  0.6249 -0.4591 -1.8143
13361TIP3   OH261497   2.990   0.173   1.774  0.1220  0.2014  0.2720
13361TIP3    H161498   2.944   0.209   1.850 -1.4708 -1.1494  0.0002
13361TIP3    H261499   3.082   0.199   1.787 -0.8125  4.3881  0.0363
13362TIP3   OH261500   6.727   5.780   4.054 -0.3323 -0.6325 -0.6420
13362TIP3    H161501   6.802   5.723   4.072 -0.1178 -0.2516 -0.3197
13362TIP3    H261502   6.713   5.828   4.135 -1.1947 -1.0018 -0.5592
13363TIP3   OH261503   6.340   3.652   1.054 -0.1756 -0.9647 -0.3657
13363TIP3    H161504   6.378   3.725   1.103  1.2069 -2.2297  0.5257
13363TIP3    H261505   6.407   3.584   1.056 -1.6050 -2.4566 -0.7497
13364TIP3   OH261506   4.842   3.238   4.514 -0.6163  0.1896 -0.1429
13364TIP3    H161507   4.889   3.160   4.486 -0.2263  0.7759 -1.1673
13364TIP3    H261508   4.898   3.278   4.581 -1.1010 -0.6995  0.8398
13365TIP3   OH261509   3.854   3.742  15.566 -0.2407  0.0083 -0.1175
13365TIP3    H161510   3.799   3.664  15.565 -1.8839  1.0812  0.7811
13365TIP3    H261511   3.794   3.813  15.588  1.4266  1.3409  0.3742
13366TIP3   OH261512   5.373   3.825  16.694  0.2402 -0.5099 -0.1208
13366TIP3    H161513   5.280   3.831  16.716  0.0775 -2.5232 -0.0066
13366TIP3    H261514   5.379   3.860  16.605 -0.7789 -0.9746 -0.3972
13367TIP3   OH261515   3.583   2.971   1.063  0.2831 -0.5947  0.2528
13367TIP3    H161516   3.607   2.958   0.972  0.7835 -0.5682  0.3816
13367TIP3    H261517   3.568   3.066   1.071  2.5752 -0.2152  0.7495
13368TIP3   OH261518   5.564   4.461  15.589 -1.0296  0.1285  0.2432
13368TIP3    H161519   5.588   4.536  15.534  3.9502 -1.3232 -0.0119
13368TIP3    H261520   5.610   4.476  15.671  0.2165 -2.6506  0.1264
13369TIP3   OH261521   1.321   6.428   0.350 -0.4020  0.2081 -0.5940
13369TIP3    H161522   1.382   6.457   0.417 -0.3439  1.8594 -1.3090
13369TIP3    H261523   1.259   6.371   0.396  1.0754 -0.6998  0.3272
13370TIP3   OH261524   4.954   2.651   0.400  0.1606  0.4844  0.2588
13370TIP3    H161525   4.896   2.633   0.326 -1.9273  0.0691  1.8913
13370TIP3    H261526   5.005   2.571   0.411  0.2141  0.4129 -0.4866
13371TIP3   OH261527   2.779   5.620  14.622 -0.3495  0.0229  0.3206
13371TIP3    H161528   2.761   5.640  14.714  0.3562  0.3665  0.3940
13371TIP3    H261529   2.693   5.621  14.580 -1.1463 -3.5872  1.5691
13372TIP3   OH261530   6.430   1.930  13.403 -0.1424 -0.8349 -0.0416
13372TIP3    H161531   6.471   1.862  13.349 -1.2129 -0.3193 -1.5854
13372TIP3    H261532   6.503   1.982  13.435  0.6196 -2.0129  0.2062
13373TIP3   OH261533   2.814   2.092   3.684 -0.2488 -0.1374 -0.5574
13373TIP3    H161534   2.886   2.144   3.648  1.3169 -2.7503 -1.4810
13373TIP3    H261535   2.737   2.121   3.635  0.3773  1.7757 -0.5069
13374TIP3   OH261536   3.168   3.979   5.579  0.6550  0.5739  1.3851
13374TIP3    H161537   3.205   4.001   5.493 -0.2701 -0.9682  0.5581
13374TIP3    H261538   3.239   3.997   5.640  1.5070  1.2329  0.2494
13375TIP3   OH261539   3.294   2.189  14.896 -0.0109 -0.2553 -0.3025
13375TIP3    H161540   3.369   2.210  14.840 -0.7073  0.1763 -1.1001
13375TIP3    H261541   3.301   2.249  14.970  1.8701 -1.9484  1.0227
13376TIP3   OH261542   5.197   0.672  16.179  0.3623 -0.1860 -0.2817
13376TIP3    H161543   5.133   0.734  16.144  2.9403  2.5966 -0.3979
13376TIP3    H261544   5.225   0.621  16.103 -1.0527 -0.8644 -0.3753
13377TIP3   OH261545   2.468   0.174  15.734 -0.0379 -0.7281  0.3023
13377TIP3    H161546   2.402   0.189  15.802 -0.0849  0.0061  0.1020
13377TIP3    H261547   2.486   0.080  15.738 -0.7450 -0.8515  0.6838
13378TIP3   OH261548   5.015   0.806  12.905  0.4008  0.0783  0.6648
13378TIP3    H161549   5.000   0.757  12.824 -0.1424 -0.4964  1.1015
13378TIP3    H261550   5.054   0.888  12.877 -0.4963  0.2080 -0.2386
13379TIP3   OH261551   2.821   5.887  12.631 -0.0208  0.1918  0.0597
13379TIP3    H161552   2.843   5.938  12.554  0.6738  0.7864  0.6357
13379TIP3    H261553   2.860   5.801  12.616  0.4439  0.4272 -0.0781
13380TIP3   OH261554   6.121   3.117   0.356  0.6399  0.6319  0.4807
13380TIP3    H161555   6.185   3.161   0.300  0.5484 -1.6678 -1.6303
13380TIP3    H261556   6.046   3.102   0.299 -0.2243 -0.1531  1.7799
13381TIP3   OH261557   4.975   2.652   2.091  0.2714  0.0740  0.0132
13381TIP3    H161558   4.936   2.682   2.173 -1.3646 -1.2296 -0.2462
13381TIP3    H261559   5.048   2.713   2.075 -2.2119  3.3013  0.0069
13382TIP3   OH261560   5.296   4.031   4.905 -0.1771 -0.1875 -0.0484
13382TIP3    H161561   5.342   4.113   4.921 -0.9744  0.0480  1.1574
13382TIP3    H261562   5.292   4.024   4.810  0.7396  0.6874 -0.1643
13383TIP3   OH261563   4.746   2.378  14.682  0.3859 -0.0005  0.4455
13383TIP3    H161564   4.725   2.285  14.691  1.5285 -0.2875  0.3681
13383TIP3    H261565   4.838   2.384  14.710  0.5664  0.9637 -0.3119
13384TIP3   OH261566   3.055   5.656   4.552 -0.0706  0.5374  0.4104
13384TIP3    H161567   3.034   5.668   4.460 -0.6935 -0.9477  0.3265
13384TIP3    H261568   3.147   5.681   4.560  0.8406 -1.9779 -1.2193
13385TIP3   OH261569   1.490   5.062  11.867  0.1428  0.6318  0.5881
13385TIP3    H161570   1.558   5.067  11.935  0.6242 -0.0041  0.1586
13385TIP3    H261571   1.422   5.007  11.906 -0.7455  2.3099  1.5258
13386TIP3   OH261572   1.400   6.363  16.771 -0.2531  0.2364  0.7588
13386TIP3    H161573   1.418   6.352  16.678 -0.1886  0.3272  0.7609
13386TIP3    H261574   1.428   6.280  16.811 -1.1861 -0.1897  0.5690
13387TIP3   OH261575   2.269   4.365   2.924  0.2606 -0.0388 -0.0622
13387TIP3    H161576   2.313   4.289   2.962  1.8918 -0.4102 -2.4893
13387TIP3    H261577   2.230   4.332   2.843 -0.9895  1.2506 -0.0287
13388TIP3   OH261578   0.630   3.935  12.659  0.8315 -0.0351 -0.1709
13388TIP3    H161579   0.581   3.882  12.596 -2.0092  1.5966  0.4728
13388TIP3    H261580   0.628   3.884  12.740  2.2995 -1.0079 -0.7144
13389TIP3   OH261581   3.049   0.368   3.617  0.2436  0.1506 -0.4746
13389TIP3    H161582   3.110   0.425   3.663  0.9536 -0.5880 -0.4916
13389TIP3    H261583   2.978   0.426   3.590  1.2815  1.1629 -1.0916
13390TIP3   OH261584   5.639   0.856   1.560 -0.4861  0.0617 -0.8239
13390TIP3    H161585   5.575   0.898   1.618 -0.9343 -0.0629 -1.2275
13390TIP3    H261586   5.654   0.770   1.600  1.4300  1.0389  0.7607
13391TIP3   OH261587   0.068   1.023   1.161  0.0031 -0.1439 -0.2318
13391TIP3    H161588   0.139   1.058   1.215 -0.4477  1.6881 -0.7454
13391TIP3    H261589  -0.012   1.050   1.207 -0.4407 -2.7850  0.7269
13392TIP3   OH261590   2.736   2.153   1.967  0.1662 -0.6340 -0.1353
13392TIP3    H161591   2.681   2.121   1.895  0.7634  1.5877 -1.6832
13392TIP3    H261592   2.675   2.196   2.027 -0.2492 -1.8839  0.3724
13393TIP3   OH261593   6.817   2.640   0.328 -0.1228 -0.1815  0.0762
13393TIP3    H161594   6.740   2.593   0.296 -1.9094  2.4113  0.2193
13393TIP3    H261595   6.807   2.639   0.423 -0.6698  1.1100  0.0602
13394TIP3   OH261596   1.478   0.245  16.458 -0.0754  0.1572 -0.4785
13394TIP3    H161597   1.411   0.195  16.505 -0.7038  1.5616  0.1766
13394TIP3    H261598   1.540   0.178  16.427 -1.3816 -1.1158 -0.4938
13395TIP3   OH261599   2.271   2.284  13.229 -0.3251 -0.0018 -0.1871
13395TIP3    H161600   2.228   2.367  13.209  1.9252  1.2882  0.0043
13395TIP3    H261601   2.221   2.219  13.179 -2.3895  1.3614 -0.0309
13396TIP3   OH261602   2.826   1.488  13.983 -0.5287 -0.3917  0.2807
13396TIP3    H161603   2.812   1.514  13.892  0.7528 -1.4699 -0.2572
13396TIP3    H261604   2.812   1.394  13.984  0.4114 -0.5416  0.9766
13397TIP3   OH261605   5.385   4.685   0.185 -0.5283  0.6161 -0.2556
13397TIP3    H161606   5.428   4.643   0.260 -1.4082 -1.2878 -0.7473
13397TIP3    H261607   5.379   4.616   0.119 -0.6265  1.9941 -1.7490
13398TIP3   OH261608   3.560   5.025   0.071 -0.4018  0.0822  0.0579
13398TIP3    H161609   3.518   5.087   0.130 -0.8176 -0.8683  0.7959
13398TIP3    H261610   3.542   4.939   0.110 -1.2459 -0.6253 -1.7830
13399TIP3   OH261611   1.020   0.828   5.811 -0.7280 -0.6152  0.6597
13399TIP3    H161612   1.040   0.819   5.717  1.6513  2.0904  0.7748
13399TIP3    H261613   1.084   0.772   5.854  0.4435  0.7078  0.7110
13400TIP3   OH261614   1.535   6.186   5.299 -0.4006 -0.8539 -0.4823
13400TIP3    H161615   1.612   6.170   5.244  0.8307 -0.5620  1.0862
13400TIP3    H261616   1.522   6.105   5.348 -0.1646 -0.4123  0.3312
13401TIP3   OH261617   4.570   1.694  13.993 -0.5639  0.4204  0.5050
13401TIP3    H161618   4.639   1.744  13.950 -1.1276 -0.0224 -0.9908
13401TIP3    H261619   4.491   1.713  13.942 -1.1095 -0.7212  0.8779
13402TIP3   OH261620   6.385   6.645   5.411  0.0547  0.3780  0.2385
13402TIP3    H161621   6.473   6.665   5.380  0.2239 -0.9493 -0.1846
13402TIP3    H261622   6.327   6.675   5.342  0.3428 -1.1461 -0.7028
13403TIP3   OH261623   4.511   2.625  13.952  0.1749 -0.2763  0.3609
13403TIP3    H161624   4.437   2.677  13.984 -0.1908 -0.7487  0.2883
13403TIP3    H261625   4.586   2.684  13.958 -0.0774 -0.0163  1.0931
13404TIP3   OH261626   5.053   3.748  15.071 -0.2904  0.0411  0.4634
13404TIP3    H161627   5.042   3.841  15.094  0.0625 -0.1970  1.6473
13404TIP3    H261628   5.104   3.750  14.990  0.2677  0.8746  0.8215
13405TIP3   OH261629   4.747   2.576   0.795 -0.6804 -0.0766 -0.1126
13405TIP3    H161630   4.812   2.518   0.755  0.5224 -0.5347  2.3199
13405TIP3    H261631   4.668   2.563   0.743  0.6958 -0.7428 -2.1656
13406TIP3   OH261632   1.447   5.744   6.766 -0.4182  0.6710 -0.0317
13406TIP3    H161633   1.517   5.679   6.770  0.4191  1.5832  0.9568
13406TIP3    H261634   1.430   5.755   6.672  1.0377  0.6936 -0.3204
13407TIP3   OH261635   4.365   2.810   2.664 -0.6323 -0.1202 -0.4141
13407TIP3    H161636   4.337   2.803   2.573 -1.7634 -0.9517 -0.0135
13407TIP3    H261637   4.314   2.744   2.711  1.7605 -1.5386  0.4124
13408TIP3   OH261638   6.018   4.196  12.198  0.3403 -0.4747  0.3283
13408TIP3    H161639   5.953   4.265  12.184 -0.0353 -0.5627  1.4981
13408TIP3    H261640   6.054   4.214  12.285  0.3154 -1.6759  0.6058
13409TIP3   OH261641   2.855   2.839   4.034  0.2742 -0.6377  0.5753
13409TIP3    H161642   2.932   2.895   4.024  0.3369 -0.8449 -0.1240
13409TIP3    H261643   2.784   2.901   4.053  0.2433 -0.2488 -0.6892
13410TIP3   OH261644   5.556   5.416   0.331  0.4849  0.0967 -0.3244
13410TIP3    H161645   5.518   5.328   0.317 -1.0059  0.8258 -1.1619
13410TIP3    H261646   5.555   5.456   0.244  2.4063  0.4920 -0.1929
13411TIP3   OH261647   3.289   1.854  11.725  0.2080  0.2710 -0.3790
13411TIP3    H161648   3.383   1.874  11.721 -0.1231  2.1271 -0.0482
13411TIP3    H261649   3.266   1.862  11.817 -0.6871  2.2993 -0.6997
13412TIP3   OH261650   3.155   4.476   1.434 -0.6604  0.0033  0.1372
13412TIP3    H161651   3.093   4.509   1.498 -0.3084  0.9748 -0.0144
13412TIP3    H261652   3.216   4.548   1.418 -0.5430 -0.3231 -1.0466
13413TIP3   OH261653   6.121   4.735   2.756  0.5328 -0.3045 -0.0904
13413TIP3    H161654   6.049   4.712   2.697  0.1122  0.7192  0.0032
13413TIP3    H261655   6.115   4.670   2.827 -1.0800  0.4731  0.5393
13414TIP3   OH261656   1.564   3.518  12.632 -0.0919  0.1471  0.3930
13414TIP3    H161657   1.596   3.453  12.695 -0.7558 -1.7688 -1.1666
13414TIP3    H261658   1.640   3.540  12.579  0.0902  0.5166  0.8024
13415TIP3   OH261659   4.615   0.561   2.846  0.6076  0.6119  0.3847
13415TIP3    H161660   4.624   0.637   2.903 -1.2323  0.4939  0.8995
13415TIP3    H261661   4.565   0.498   2.898  2.9297 -1.4117  0.3637
13416TIP3   OH261662   0.377   1.428  13.615  0.3232 -0.1340  0.3783
13416TIP3    H161663   0.384   1.342  13.574 -1.5605 -0.9150  1.5704
13416TIP3    H261664   0.427   1.421  13.696 -0.4504 -0.3680  0.8439
13417TIP3   OH261665   1.710   6.447   0.602  0.2134 -0.2496  0.1704
13417TIP3    H161666   1.634   6.505   0.592  0.4659  0.0715  0.0913
13417TIP3    H261667   1.703   6.386   0.528  0.6725  0.5177 -0.5252
13418TIP3   OH261668   0.416   2.884   5.087  0.4161  0.0878  0.4439
13418TIP3    H161669   0.363   2.829   5.145  1.9622 -2.0045  0.0059
13418TIP3    H261670   0.399   2.973   5.116 -1.1643 -0.6965  2.1257
13419TIP3   OH261671   5.801   5.499  13.225  0.4287 -0.0607  0.6744
13419TIP3    H161672   5.766   5.563  13.286 -0.1154 -0.4156  0.7379
13419TIP3    H261673   5.806   5.546  13.141 -0.4054 -0.0668  0.6143
13420TIP3   OH261674   0.592   5.078  15.097 -0.0266  0.3492  0.0506
13420TIP3    H161675   0.657   5.148  15.093 -0.3187  0.6799  0.7468
13420TIP3    H261676   0.546   5.094  15.180 -0.3612 -0.4355  0.0222
13421TIP3   OH261677   3.534   4.391  14.048  0.1975 -0.5296  0.7330
13421TIP3    H161678   3.588   4.398  14.127  1.7956  0.4648 -0.3983
13421TIP3    H261679   3.559   4.306  14.010  2.2650  0.6154 -0.6356
13422TIP3   OH261680   0.975   4.329   2.492 -0.2233 -0.3209  0.1994
13422TIP3    H161681   0.938   4.371   2.413  0.6299  4.2652  1.9079
13422TIP3    H261682   1.061   4.298   2.464 -0.4595  0.0266 -0.9990
13423TIP3   OH261683   5.293   0.593   1.615 -0.5008 -0.1200 -0.1214
13423TIP3    H161684   5.214   0.623   1.570 -0.8697  1.4996  1.4970
13423TIP3    H261685   5.261   0.560   1.699  0.5465  0.9292  0.7153
13424TIP3   OH261686   0.419   1.395   4.263 -0.4901  0.0922  0.0803
13424TIP3    H161687   0.476   1.320   4.246 -1.9777 -0.8631 -0.9646
13424TIP3    H261688   0.449   1.463   4.203 -1.3308 -0.9082 -1.5386
13425TIP3   OH261689   6.033   2.144  17.019  0.4475 -0.3625 -0.4664
13425TIP3    H161690   6.071   2.228  17.045 -0.5054  0.0778 -0.4287
13425TIP3    H261691   6.056   2.084  17.090 -0.4919  0.3567  0.4839
13426TIP3   OH261692   6.612   1.234  15.674  0.4992  0.2161  0.6243
13426TIP3    H161693   6.699   1.255  15.707  1.0722  0.0093 -0.6918
13426TIP3    H261694   6.628   1.184  15.594 -0.8318  0.1353  0.3802
13427TIP3   OH261695   3.307   1.724   2.527 -0.3908 -0.4766  0.1597
13427TIP3    H161696   3.258   1.797   2.489  0.8835  0.7296  0.7283
13427TIP3    H261697   3.245   1.681   2.586 -1.3334 -0.2172 -0.6241
13428TIP3   OH261698   0.762   4.781   3.726 -0.5563 -0.4073 -0.1758
13428TIP3    H161699   0.786   4.729   3.803  0.4106  0.4579  0.1326
13428TIP3    H261700   0.749   4.870   3.760 -0.0925 -0.0078 -1.0121
13429TIP3   OH261701   2.328   3.570  12.404  0.1158  0.1354  0.1531
13429TIP3    H161702   2.384   3.494  12.390  3.5903  2.4215  0.2182
13429TIP3    H261703   2.260   3.539  12.463  2.2172 -2.5877  1.3863
13430TIP3   OH261704   0.327   4.285   3.555 -0.2663  0.0347  0.4676
13430TIP3    H161705   0.349   4.329   3.637 -1.1568 -0.4248  0.9635
13430TIP3    H261706   0.245   4.239   3.573 -0.1490 -0.5851 -0.4938
13431TIP3   OH261707   1.411   5.458   5.770 -0.0876 -0.3929 -0.1183
13431TIP3    H161708   1.383   5.367   5.778  1.5963 -0.9301  0.0043
13431TIP3    H261709   1.506   5.454   5.769  0.0591  1.4708  1.0956
13432TIP3   OH261710   5.297   0.826   4.739  0.1362  0.0560 -0.3422
13432TIP3    H161711   5.278   0.794   4.827  1.7623  1.5878  0.6169
13432TIP3    H261712   5.283   0.750   4.682 -1.4077 -0.8392  1.1451
13433TIP3   OH261713   5.463   1.584  13.703 -0.2001  0.0296  0.3393
13433TIP3    H161714   5.412   1.619  13.629  2.4107  1.7630 -0.7723
13433TIP3    H261715   5.520   1.517  13.663 -0.5137 -0.8273  1.2851
13434TIP3   OH261716   3.870   2.482  16.897  0.0024 -0.0001  0.3128
13434TIP3    H161717   3.796   2.511  16.950 -0.7216 -1.6630  0.2650
13434TIP3    H261718   3.867   2.539  16.820  0.6393  1.9586  1.6572
13435TIP3   OH261719   6.577   2.000   3.462  0.2176  0.2010  0.1982
13435TIP3    H161720   6.506   1.936   3.453 -0.0770  0.6894 -1.1518
13435TIP3    H261721   6.533   2.080   3.491  0.5026  0.0073  1.2400
13436TIP3   OH261722   3.346   5.206   4.284  0.2472  0.0360 -0.0064
13436TIP3    H161723   3.343   5.208   4.380 -1.0875  0.8998 -0.0259
13436TIP3    H261724   3.331   5.114   4.262 -0.4463 -0.0190  0.6183
13437TIP3   OH261725   2.225   1.198  16.372  0.2880 -0.1386 -0.5434
13437TIP3    H161726   2.203   1.158  16.456 -1.0976 -1.7073 -1.5802
13437TIP3    H261727   2.160   1.269  16.362  0.1846 -0.2227 -0.4722
13438TIP3   OH261728   6.474   3.192  16.187  0.0553 -0.2156  0.0770
13438TIP3    H161729   6.479   3.124  16.254 -0.4312  0.4923  0.8465
13438TIP3    H261730   6.386   3.228  16.196 -1.1711 -2.0645 -2.8901
13439TIP3   OH261731   6.463   2.283  13.354 -0.2708  0.1286 -0.0881
13439TIP3    H161732   6.395   2.270  13.287  0.0393  0.0197 -0.3812
13439TIP3    H261733   6.419   2.261  13.436 -0.3537 -0.7799 -0.3663
13440TIP3   OH261734   4.288   5.500   2.331  0.3849  0.3879  0.3861
13440TIP3    H161735   4.338   5.493   2.413 -2.3556 -2.1476  2.0325
13440TIP3    H261736   4.268   5.410   2.308 -2.4491  1.2219 -0.7646
13441TIP3   OH261737   3.302   2.622  16.192  0.1991  0.7842 -0.2399
13441TIP3    H161738   3.283   2.552  16.130  1.1522  1.2606 -1.1139
13441TIP3    H261739   3.217   2.665  16.207 -0.2725 -0.1626 -0.1717
13442TIP3   OH261740   4.979   5.444  16.512 -0.3292  0.2999  0.0412
13442TIP3    H161741   4.951   5.488  16.592  1.4441  2.2940 -0.3308
13442TIP3    H261742   4.923   5.479  16.444 -0.0809  0.6659  0.0210
13443TIP3   OH261743   4.432   3.412   3.830 -0.1548 -0.1505 -0.1094
13443TIP3    H161744   4.371   3.470   3.784 -0.1382  0.0675  0.1453
13443TIP3    H261745   4.379   3.335   3.851 -0.1098 -0.3474 -0.6789
13444TIP3   OH261746   6.236   5.382   3.881  0.1085  0.0527  0.8810
13444TIP3    H161747   6.203   5.302   3.921 -1.3767 -0.2598 -0.8444
13444TIP3    H261748   6.197   5.452   3.934  0.5789 -0.3407  1.7670
13445TIP3   OH261749   5.005   2.242  16.594  0.4226 -0.4027 -0.6311
13445TIP3    H161750   5.076   2.265  16.655 -2.0020  3.9834  0.9696
13445TIP3    H261751   4.954   2.177  16.641  0.0776  0.9550  0.9852
13446TIP3   OH261752   1.638   1.305   5.394  0.2823  0.1341 -0.0819
13446TIP3    H161753   1.587   1.256   5.329 -0.8825 -0.1182  0.9708
13446TIP3    H261754   1.572   1.346   5.449  1.2459  1.5912  0.0387
13447TIP3   OH261755   4.575   0.801  16.752  0.0718  0.2624  0.2559
13447TIP3    H161756   4.515   0.726  16.756  0.2847  0.1357  1.8890
13447TIP3    H261757   4.662   0.762  16.750  0.1464  0.4623 -1.0024
13448TIP3   OH261758   1.082   1.422   2.093 -0.0620 -0.3779  0.1571
13448TIP3    H161759   1.157   1.478   2.075 -0.2936  0.1659  0.7976
13448TIP3    H261760   1.073   1.367   2.016  1.2897 -0.7954  0.2841
13449TIP3   OH261761   4.886   0.994   3.854  0.2370 -0.3029 -0.4745
13449TIP3    H161762   4.845   1.049   3.921  0.8460 -1.2297  0.6993
13449TIP3    H261763   4.892   1.050   3.777 -1.1519  0.5607  0.0218
13450TIP3   OH261764   2.483   4.817   3.514 -0.4814  0.1529 -0.2910
13450TIP3    H161765   2.450   4.734   3.549 -1.2208 -0.0328 -1.3808
13450TIP3    H261766   2.523   4.794   3.431 -0.9876  0.9255 -0.7656
13451TIP3   OH261767   5.585   6.224  13.637 -0.3660  0.2114 -0.1457
13451TIP3    H161768   5.643   6.281  13.587 -0.2427  0.5739  0.4026
13451TIP3    H261769   5.518   6.197  13.575  0.8544 -0.9012 -1.0351
13452TIP3   OH261770   2.211   3.659   2.987 -0.0091  0.2264 -0.3003
13452TIP3    H161771   2.218   3.619   3.073  1.0666 -0.8687 -0.8713
13452TIP3    H261772   2.169   3.744   3.003 -0.7454 -0.3777  1.1576
13453TIP3   OH261773   6.543   3.995  11.331  0.3335  0.5857  0.7196
13453TIP3    H161774   6.516   4.072  11.282  0.2720 -0.5082 -1.0698
13453TIP3    H261775   6.468   3.935  11.324  1.0861 -0.3521  0.4390
13454TIP3   OH261776   5.907   3.803   3.525 -0.1159  0.5417 -0.2247
13454TIP3    H161777   5.879   3.863   3.456 -1.5178 -2.8732 -2.9480
13454TIP3    H261778   5.994   3.773   3.499 -0.7557 -0.9633 -0.7645
13455TIP3   OH261779   0.557   1.386  14.831 -0.1015 -0.1943 -0.6074
13455TIP3    H161780   0.502   1.366  14.906  0.7913 -1.5044 -0.2534
13455TIP3    H261781   0.522   1.468  14.796 -0.8207  0.1949  0.9428
13456TIP3   OH261782   2.308   3.558   3.230 -0.3090  0.2349 -0.4276
13456TIP3    H161783   2.380   3.526   3.176  0.9777 -0.3715  1.5435
13456TIP3    H261784   2.269   3.479   3.268  0.2800  0.7294  1.2887
13457TIP3   OH261785   3.178   5.576   0.193  0.3039  0.1790 -1.1372
13457TIP3    H161786   3.213   5.613   0.274 -0.2097 -0.6590 -0.5269
13457TIP3    H261787   3.087   5.606   0.190 -0.1279 -1.0399 -0.6216
13458TIP3   OH261788   3.744   4.162  16.012  0.0777 -0.3785 -0.6395
13458TIP3    H161789   3.665   4.141  15.964  0.8351 -1.7341 -1.3684
13458TIP3    H261790   3.813   4.167  15.946  0.2925  3.0420 -0.3235
13459TIP3   OH261791   3.412   5.657   2.067  0.6662 -0.3762 -0.2677
13459TIP3    H161792   3.428   5.574   2.112 -0.0643 -0.5314 -0.2761
13459TIP3    H261793   3.362   5.709   2.129  0.9624 -0.0106 -0.3332
13460TIP3   OH261794   0.389   3.909  16.295  0.2044 -0.2871  0.5199
13460TIP3    H161795   0.308   3.914  16.346  0.5251 -0.2308  1.0355
13460TIP3    H261796   0.383   3.826  16.248 -0.5244  0.1042 -0.1000
13461TIP3   OH261797   2.505   0.467   5.884  0.5126  0.1938 -0.1199
13461TIP3    H161798   2.410   0.478   5.882  0.1919 -2.0690 -1.5123
13461TIP3    H261799   2.519   0.390   5.940  1.3287 -0.6414 -1.4064
13462TIP3   OH261800   4.846   3.478  13.627  0.6317 -0.5321  0.4436
13462TIP3    H161801   4.776   3.532  13.663  2.0216 -0.5227  3.4578
13462TIP3    H261802   4.806   3.393  13.614 -0.2621 -0.2028  0.9094
13463TIP3   OH261803   1.063   6.660   3.381  0.4306  0.6447 -0.1329
13463TIP3    H161804   1.033   6.602   3.311  1.5583 -0.9570  0.6668
13463TIP3    H261805   0.982   6.691   3.421 -0.2034  0.1894 -1.0140
13464TIP3   OH261806   3.461   5.856   0.299 -0.1258  0.1765 -0.3142
13464TIP3    H161807   3.487   5.863   0.391  0.9646 -0.0552 -0.5947
13464TIP3    H261808   3.423   5.769   0.291  0.8198 -0.2414 -0.3249
13465TIP3   OH261809   1.501   2.966  16.243 -0.6203  0.5356  0.0441
13465TIP3    H161810   1.470   2.989  16.330 -0.8408  0.4136 -0.0021
13465TIP3    H261811   1.594   2.989  16.244 -0.3953 -0.3819  0.6274
13466TIP3   OH261812   3.433   1.343   1.589  0.1110  0.2881  0.1360
13466TIP3    H161813   3.515   1.347   1.639  0.7488 -0.0454 -0.8633
13466TIP3    H261814   3.396   1.431   1.596  0.4121  0.3664  0.8239
13467TIP3   OH261815   3.818   3.296   1.303 -0.3658 -0.0207  0.3723
13467TIP3    H161816   3.731   3.326   1.275 -0.7107  0.4113  1.8508
13467TIP3    H261817   3.867   3.285   1.221 -2.0611 -1.1151 -0.5498
13468TIP3   OH261818   3.375   6.079   4.375  0.1828  0.3661  0.1073
13468TIP3    H161819   3.405   6.064   4.465  0.7152  2.4456  0.3318
13468TIP3    H261820   3.455   6.087   4.324 -0.1109 -0.0488 -0.4299
13469TIP3   OH261821   0.357   3.484   3.346  0.4380 -0.2880  0.1718
13469TIP3    H161822   0.305   3.563   3.328  2.0004  0.9865  0.9620
13469TIP3    H261823   0.445   3.505   3.314  1.5246 -0.6669  2.6668
13470TIP3   OH261824   2.288   4.224   5.733 -0.1262 -0.3010  0.0582
13470TIP3    H161825   2.212   4.179   5.697  0.0939 -0.8918  0.3156
13470TIP3    H261826   2.316   4.283   5.664 -1.3197  0.5462  0.2720
13471TIP3   OH261827   0.721   0.155  12.406 -0.2978 -0.2344 -0.5232
13471TIP3    H161828   0.724   0.112  12.491 -3.3140 -0.3513 -0.3550
13471TIP3    H261829   0.800   0.126  12.361  0.4394 -1.6494  1.5442
13472TIP3   OH261830   6.157   2.702   0.879  0.4869 -0.1024 -0.6448
13472TIP3    H161831   6.170   2.782   0.826 -0.7871  0.2518 -0.4506
13472TIP3    H261832   6.090   2.653   0.831  0.3231 -0.4358 -0.0746
13473TIP3   OH261833   1.936   3.394   2.349  0.3609  0.6449 -0.0961
13473TIP3    H161834   1.962   3.310   2.310 -0.0163 -0.3256  1.6189
13473TIP3    H261835   2.018   3.439   2.366  0.8863 -0.9907  2.2849
13474TIP3   OH261836   3.466   6.114   3.670  0.2356 -0.1070 -0.3313
13474TIP3    H161837   3.461   6.069   3.585 -1.0540 -1.1071  0.2414
13474TIP3    H261838   3.378   6.148   3.684  0.7717  1.1812  0.0379
13475TIP3   OH261839   5.359   4.143   5.388 -0.2059 -0.4978 -0.4989
13475TIP3    H161840   5.290   4.208   5.375  0.3040  0.3137  0.7180
13475TIP3    H261841   5.331   4.094   5.466  1.2672  0.7917  0.8921
13476TIP3   OH261842   1.111   6.128  13.145  0.0193 -0.3868  0.1789
13476TIP3    H161843   1.121   6.221  13.127  0.5373 -0.5475 -0.3898
13476TIP3    H261844   1.151   6.084  13.070 -0.6737 -1.0676  0.1896
13477TIP3   OH261845   0.945   4.615   1.288 -0.4483 -0.1311 -0.0857
13477TIP3    H161846   0.913   4.576   1.369  0.2932  1.3331  0.9554
13477TIP3    H261847   0.865   4.640   1.241 -0.9076  1.1190  1.2821
13478TIP3   OH261848   3.677   3.508  16.511 -0.2667 -0.3722 -0.2346
13478TIP3    H161849   3.605   3.447  16.524 -0.8338  0.3428  0.0813
13478TIP3    H261850   3.670   3.570  16.583 -2.2638  2.5403 -2.6699
13479TIP3   OH261851   1.600   4.435  12.543 -0.2121  0.5906  0.3090
13479TIP3    H161852   1.692   4.456  12.558 -0.1215 -0.4384  1.2312
13479TIP3    H261853   1.598   4.341  12.526 -1.0905  0.6184  0.1647
13480TIP3   OH261854   2.239   3.302   4.921 -0.2721 -0.4575 -0.0347
13480TIP3    H161855   2.256   3.225   4.975 -0.4891  1.2121  2.5966
13480TIP3    H261856   2.325   3.328   4.888  0.1278 -0.5774  0.8925
13481TIP3   OH261857   1.456   2.640  11.724 -0.4877  0.4433 -0.3220
13481TIP3    H161858   1.450   2.662  11.631  1.4882  0.9616 -0.3792
13481TIP3    H261859   1.403   2.706  11.768 -1.1196  0.4349 -1.0469
13482TIP3   OH261860   4.062   5.233   6.330  0.3424  0.3564 -0.5845
13482TIP3    H161861   4.143   5.243   6.280  0.2458 -1.0973 -1.0728
13482TIP3    H261862   4.078   5.159   6.387 -1.1441 -0.9567 -1.7754
13483TIP3   OH261863   5.773   4.140  16.837 -0.2861  0.8804 -0.0826
13483TIP3    H161864   5.767   4.070  16.772  1.6409  0.3407  0.2600
13483TIP3    H261865   5.780   4.221  16.786  0.0820  0.5653 -0.5366
13484TIP3   OH261866   2.989   4.913   0.941 -0.0688  0.1975  0.2186
13484TIP3    H161867   2.948   4.827   0.954 -0.0676 -0.2233 -2.1847
13484TIP3    H261868   2.971   4.935   0.850  1.9630  1.6908  0.1219
13485TIP3   OH261869   2.115   5.627  10.505 -0.6423  0.1732 -0.1048
13485TIP3    H161870   2.161   5.704  10.470  1.6833 -0.8751  0.5036
13485TIP3    H261871   2.062   5.596  10.432  0.9003  0.4768 -1.4016
13486TIP3   OH261872   0.124   4.813   5.204  0.1907  0.0614  0.4593
13486TIP3    H161873   0.092   4.903   5.208  1.6354  0.5696  1.4429
13486TIP3    H261874   0.132   4.786   5.295 -0.1619 -1.0427  0.1730
13487TIP3   OH261875   2.610   1.495  12.004 -0.3122 -0.3970  0.1366
13487TIP3    H161876   2.679   1.440  11.965 -1.0700 -0.4313 -1.2096
13487TIP3    H261877   2.628   1.492  12.098  1.7101 -0.1571 -0.1956
13488TIP3   OH261878   0.555   3.385   5.492 -0.0401 -0.1286 -0.2142
13488TIP3    H161879   0.560   3.441   5.415 -0.5227 -0.0871 -0.2179
13488TIP3    H261880   0.620   3.316   5.477  0.2735  0.2055 -0.3911
13489TIP3   OH261881   4.576   4.535   0.312 -0.1164  0.1502  0.3595
13489TIP3    H161882   4.541   4.507   0.396  1.1563  1.0199  1.2132
13489TIP3    H261883   4.523   4.488   0.247 -2.0803  0.5477  1.5752
13490TIP3   OH261884   3.323   2.897  12.160 -0.0629  0.5561 -0.2857
13490TIP3    H161885   3.374   2.848  12.095  1.4397 -2.0020  2.5473
13490TIP3    H261886   3.232   2.881  12.136  0.3788  1.3853 -2.8348
13491TIP3   OH261887   3.973   1.967  15.456  0.2444 -0.6632  0.0325
13491TIP3    H161888   3.999   1.919  15.535  1.1732 -3.2568 -1.7211
13491TIP3    H261889   4.042   1.948  15.392  0.1586  2.3307 -1.1428
13492TIP3   OH261890   2.359   5.257   4.052  0.0029 -0.8132 -0.2611
13492TIP3    H161891   2.332   5.332   4.000 -0.2156 -0.8784 -0.2428
13492TIP3    H261892   2.295   5.189   4.031 -0.4522 -0.6508  0.5477
13493TIP3   OH261893   5.716   0.606  12.698  0.7155  0.5127  0.3581
13493TIP3    H161894   5.748   0.522  12.664  1.3193  0.7144  0.4325
13493TIP3    H261895   5.659   0.640  12.628  1.7492  0.8082 -0.3588
13494TIP3   OH261896   2.230   6.005   6.343 -0.1542  0.1708 -0.9215
13494TIP3    H161897   2.288   5.932   6.365 -1.1562 -0.4212 -0.1954
13494TIP3    H261898   2.275   6.083   6.377 -0.1443 -0.3742  0.3811
13495TIP3   OH261899   3.541   0.038   2.075 -0.2460  0.5197 -0.0357
13495TIP3    H161900   3.529   0.098   2.148 -1.9950 -0.3181  0.4331
13495TIP3    H261901   3.583   0.091   2.007 -0.5964  1.9299  0.7990
13496TIP3   OH261902   1.450   1.865  10.964  0.6362  0.2330  0.0512
13496TIP3    H161903   1.390   1.928  11.004  0.9937  0.6519 -0.0561
13496TIP3    H261904   1.432   1.871  10.870  1.6508  1.2392 -0.1027
13497TIP3   OH261905   5.121   3.896  16.653  0.4480 -0.2892 -0.3840
13497TIP3    H161906   5.048   3.858  16.603  0.8045 -1.2696 -0.1780
13497TIP3    H261907   5.079   3.960  16.711 -0.2090 -0.5594 -0.5486
13498TIP3   OH261908   5.153   5.667   5.162 -0.3146  0.4094  0.2666
13498TIP3    H161909   5.094   5.640   5.232  1.0842 -0.6002  1.1099
13498TIP3    H261910   5.095   5.702   5.094 -1.8459 -0.3238  1.1369
13499TIP3   OH261911   0.802   4.653   5.552  0.5829 -0.2008 -0.2272
13499TIP3    H161912   0.877   4.597   5.575  0.8350  0.1557 -0.1666
13499TIP3    H261913   0.741   4.594   5.508  0.5768 -0.6630  0.3802
13500TIP3   OH261914   1.765   2.373   1.191  0.0266  0.0113  0.4234
13500TIP3    H161915   1.694   2.373   1.255 -1.5335  2.9120 -1.1207
13500TIP3    H261916   1.834   2.426   1.231  0.5887 -1.1977  1.1179
13501TIP3   OH261917   4.127   5.144  12.291  0.3539 -0.2076  0.8157
13501TIP3    H161918   4.034   5.166  12.291  0.5462  0.7333 -0.2546
13501TIP3    H261919   4.153   5.150  12.199  1.3552 -1.0214  1.0228
13502TIP3   OH261920   6.266   2.617  16.472  0.2587 -0.1056 -0.4528
13502TIP3    H161921   6.355   2.625  16.506  0.2054 -0.1398 -0.3055
13502TIP3    H261922   6.210   2.618  16.549  0.0899  0.5097 -0.5783
13503TIP3   OH261923   3.574   2.952   4.075  0.0450  0.1289 -0.3397
13503TIP3    H161924   3.648   2.903   4.111 -0.8276 -2.9710 -2.3856
13503TIP3    H261925   3.601   2.976   3.987 -1.2210 -0.8334 -1.0254
13504TIP3   OH261926   1.427   0.959   0.234  0.4077 -0.2487 -0.0414
13504TIP3    H161927   1.422   1.039   0.181  0.6479  0.5121  1.0622
13504TIP3    H261928   1.489   0.979   0.303  1.4176 -1.8239 -0.4252
13505TIP3   OH261929   0.021   5.231  16.104 -0.2461 -0.3424  0.1812
13505TIP3    H161930  -0.058   5.182  16.079 -0.3458 -0.2110  0.2407
13505TIP3    H261931  -0.010   5.319  16.123  0.2993  0.6617 -2.8836
13506TIP3   OH261932   4.224   0.039  12.411  0.2119  0.8181 -0.0193
13506TIP3    H161933   4.135   0.019  12.381  1.1726 -1.7056 -1.5346
13506TIP3    H261934   4.252   0.113  12.357 -0.9176  1.6102  0.4478
13507TIP3   OH261935   6.389   4.975   2.085  1.0198  0.1055  0.4666
13507TIP3    H161936   6.443   4.901   2.059  0.3016 -0.5686  0.8723
13507TIP3    H261937   6.325   4.938   2.145 -2.0952  0.2038 -2.5300
13508TIP3   OH261938   5.433   1.840   3.566  0.3201 -0.6194  0.4138
13508TIP3    H161939   5.407   1.845   3.658  0.6784  0.9546  0.4601
13508TIP3    H261940   5.512   1.787   3.566  0.5563 -0.2767  1.0768
13509TIP3   OH261941   4.106   6.550   3.252 -0.1369 -0.2065  0.0247
13509TIP3    H161942   4.081   6.562   3.160  1.1519  0.1377 -0.3110
13509TIP3    H261943   4.027   6.517   3.295 -1.2412  1.1765 -0.8682
13510TIP3   OH261944   6.050   6.700  15.652 -0.4266 -0.3411  0.2726
13510TIP3    H161945   5.990   6.629  15.632 -0.9176  0.2765 -0.4889
13510TIP3    H261946   6.084   6.679  15.739 -0.4861 -1.5500  0.0220
13511TIP3   OH261947   4.499   2.557  11.400 -0.2207 -0.3139 -0.8108
13511TIP3    H161948   4.546   2.483  11.438 -0.0795  0.7786  1.3265
13511TIP3    H261949   4.460   2.523  11.319  0.4642 -2.4798 -0.2863
13512TIP3   OH261950   6.222   4.840  15.643 -0.5137 -0.0762 -0.4012
13512TIP3    H161951   6.292   4.905  15.654 -1.1870  0.5032  0.6377
13512TIP3    H261952   6.155   4.886  15.592 -0.1750 -0.6147 -1.3569
13513TIP3   OH261953   4.409   5.192  11.456  0.4408 -0.5315 -0.3835
13513TIP3    H161954   4.476   5.260  11.460  1.1401 -1.2022 -0.4105
13513TIP3    H261955   4.353   5.217  11.382  1.1861 -0.4263 -0.9218
13514TIP3   OH261956   0.209   4.794  10.542  0.8644 -0.0840 -0.5448
13514TIP3    H161957   0.196   4.885  10.515  0.0897  0.4909  1.6088
13514TIP3    H261958   0.155   4.743  10.481 -1.4956  1.2139  0.3230
13515TIP3   OH261959   3.680   2.767   1.607 -0.0023 -0.0303 -0.3795
13515TIP3    H161960   3.614   2.723   1.554  0.8883 -1.4321 -0.4086
13515TIP3    H261961   3.760   2.717   1.591  1.5174  2.5843 -1.6268
13516TIP3   OH261962   1.117   0.316  10.672 -0.1503  0.0457 -0.0534
13516TIP3    H161963   1.026   0.345  10.664 -0.4547 -0.9277 -0.1722
13516TIP3    H261964   1.126   0.291  10.764  0.3258  1.1683  0.2281
13517TIP3   OH261965   6.131   3.124   1.769 -0.0319 -0.4641 -0.2590
13517TIP3    H161966   6.178   3.186   1.713 -2.2068  0.5907 -1.0215
13517TIP3    H261967   6.126   3.044   1.717  0.7271 -0.5278 -0.2423
13518TIP3   OH261968   2.214   1.595   2.852  0.1842 -0.1749  0.0930
13518TIP3    H161969   2.191   1.531   2.785 -0.8801 -0.0356  0.3028
13518TIP3    H261970   2.132   1.609   2.900  0.4158  1.2785  0.0993
13519TIP3   OH261971   2.099   3.853   1.928 -0.6138  0.2617  0.2039
13519TIP3    H161972   2.172   3.844   1.990 -1.5349  1.9492  1.6115
13519TIP3    H261973   2.049   3.772   1.938  0.5955 -0.5811 -0.2258
13520TIP3   OH261974   2.966   5.613   1.458  0.2266  0.1751 -0.0961
13520TIP3    H161975   3.062   5.613   1.463  0.2137  1.1842  0.4371
13520TIP3    H261976   2.946   5.651   1.373  0.2978  0.3333 -0.0424
13521TIP3   OH261977   4.077   5.757   6.319  0.2107  0.1430  0.3454
13521TIP3    H161978   4.021   5.812   6.374 -0.5945 -0.0544 -0.2370
13521TIP3    H261979   4.056   5.785   6.229 -0.5011 -1.3334  0.0071
13522TIP3   OH261980   1.515   5.289   0.125  0.2056 -0.0170 -0.5955
13522TIP3    H161981   1.474   5.303   0.040  0.7914  0.4038 -0.8175
13522TIP3    H261982   1.526   5.194   0.131 -0.5091 -0.1108 -0.6616
13523TIP3   OH261983   0.996   5.356  16.357 -0.1163  0.0736  0.6061
13523TIP3    H161984   1.043   5.330  16.436  3.2644 -0.8068 -1.5393
13523TIP3    H261985   0.966   5.274  16.318  0.4463  0.2913 -0.3046
13524TIP3   OH261986   1.158   5.531   4.208 -0.5529 -0.4192 -0.2381
13524TIP3    H161987   1.170   5.489   4.123 -0.6448 -1.4712  0.2481
13524TIP3    H261988   1.065   5.553   4.211 -0.5220 -0.2480 -0.4581
13525TIP3   OH261989   0.573   3.956   6.327  0.0637 -0.7048 -0.3482
13525TIP3    H161990   0.606   3.970   6.416 -0.2549  0.8977 -0.4406
13525TIP3    H261991   0.500   3.894   6.338  0.9317 -1.6377  0.2944
13526TIP3   OH261992   4.408   5.931  12.227 -0.2460  0.6718 -0.0936
13526TIP3    H161993   4.368   5.967  12.306  1.2176 -0.7659  1.3706
13526TIP3    H261994   4.445   6.008  12.182  0.3144  1.3716  1.4738
13527TIP3   OH261995   0.569   6.499   2.232  0.4447  0.0560  0.3832
13527TIP3    H161996   0.590   6.580   2.186  0.6928 -0.1208  0.1837
13527TIP3    H261997   0.634   6.493   2.302  1.2723 -0.6566 -0.4358
13528TIP3   OH261998   6.387   2.399   4.284  0.5160  0.5375 -0.2179
13528TIP3    H161999   6.454   2.377   4.348  1.0737 -0.6022 -1.1386
13528TIP3    H262000   6.307   2.411   4.335  1.3233  1.4816  0.8540
13529TIP3   OH262001   1.769   1.166  14.326  0.5292 -0.1892  0.5382
13529TIP3    H162002   1.817   1.197  14.403  2.9827  0.2844 -1.0498
13529TIP3    H262003   1.698   1.229  14.315  0.9615  0.5201  1.6500
13530TIP3   OH262004   2.014   4.772  15.596  0.3963  0.2898  0.1065
13530TIP3    H162005   2.058   4.857  15.600 -0.0516  0.4883  1.1451
13530TIP3    H262006   2.067   4.714  15.650  0.1891  0.1585  0.1736
13531TIP3   OH262007   1.362   1.612   0.083  0.2916 -0.4911  0.0816
13531TIP3    H162008   1.425   1.543   0.104 -0.2123 -1.0942 -0.3502
13531TIP3    H262009   1.290   1.566   0.039 -1.3079 -0.1075  2.1265
13532TIP3   OH262010   0.191   1.144  15.724 -0.0644  0.1510 -0.2783
13532TIP3    H162011   0.213   1.109  15.637 -1.7593  0.5446 -0.9210
13532TIP3    H262012   0.188   1.239  15.711  0.5925  0.2750  0.4575
13533TIP3   OH262013   2.695   0.395   2.695  0.1585  0.4453 -0.0489
13533TIP3    H162014   2.659   0.314   2.660  0.4349  1.5878 -3.3474
13533TIP3    H262015   2.678   0.390   2.789 -5.3796 -0.6988 -0.7687
13534TIP3   OH262016   5.747   2.859   2.496  0.4978 -0.5630 -0.5945
13534TIP3    H162017   5.811   2.929   2.510 -0.1904  0.0434 -0.4251
13534TIP3    H262018   5.795   2.793   2.445  1.5121 -0.5126  0.2416
13535TIP3   OH262019   4.850   5.439   2.041 -1.1341 -0.3079  0.1617
13535TIP3    H162020   4.825   5.347   2.038 -1.3364 -0.2362 -0.7833
13535TIP3    H262021   4.869   5.456   2.133 -3.5400 -0.6305  0.7782
13536TIP3   OH262022   3.593   3.669   3.833 -0.3093  0.6669  0.4213
13536TIP3    H162023   3.685   3.686   3.812  0.2753 -1.6684  0.7918
13536TIP3    H262024   3.590   3.665   3.928 -0.5478 -0.3121  0.3861
13537TIP3   OH262025   2.220   2.082   4.296  0.0123  0.2697  0.8386
13537TIP3    H162026   2.271   2.002   4.307 -2.9815 -1.6279  2.4075
13537TIP3    H262027   2.204   2.113   4.385 -2.9337 -0.3105  0.6366
13538TIP3   OH262028   6.015   1.738  11.145  0.1750 -0.6084  0.0866
13538TIP3    H162029   5.934   1.688  11.155  0.2318 -0.6071  0.5976
13538TIP3    H262030   6.056   1.702  11.067 -1.1122  0.5108 -1.1492
13539TIP3   OH262031   3.817   6.139  15.524 -0.3028  0.0238 -0.0743
13539TIP3    H162032   3.810   6.044  15.533 -1.3080 -0.1733 -2.3927
13539TIP3    H262033   3.911   6.155  15.518 -0.0409 -0.6406  1.6512
13540TIP3   OH262034   6.296   3.331   3.415  0.8056 -0.4708 -0.2368
13540TIP3    H162035   6.234   3.272   3.373 -0.1164  0.9213 -0.8627
13540TIP3    H262036   6.374   3.327   3.360  0.6947 -0.9822 -0.3611
13541TIP3   OH262037   4.208   1.386  13.537 -0.3375  0.2246 -0.0294
13541TIP3    H162038   4.173   1.313  13.487  0.3248 -0.2272  0.1641
13541TIP3    H262039   4.215   1.457  13.473 -1.8009  0.4113 -0.0362
13542TIP3   OH262040   5.138   6.424  14.923  0.1783 -0.3117 -0.1158
13542TIP3    H162041   5.116   6.443  14.832 -0.2382  2.0685  0.3921
13542TIP3    H262042   5.222   6.468  14.937  0.7285 -1.4977  0.3955
13543TIP3   OH262043   2.329   5.558   5.450 -0.3372 -0.0289  0.4040
13543TIP3    H162044   2.275   5.504   5.508  0.8559 -0.1360  1.4711
13543TIP3    H262045   2.389   5.496   5.408 -0.3111  0.2149  0.0769
13544TIP3   OH262046   0.244   1.231  11.641 -0.1030 -0.1580 -0.0032
13544TIP3    H162047   0.227   1.232  11.735  1.4888 -0.1418  0.3142
13544TIP3    H262048   0.269   1.141  11.621  1.4533  0.2416 -0.0054
13545TIP3   OH262049   2.029   2.687   2.338  0.2809  0.2247 -0.3809
13545TIP3    H162050   1.955   2.747   2.328  0.2628  0.0854 -1.1507
13545TIP3    H262051   2.102   2.733   2.297  0.1281 -0.5289 -1.5171
13546TIP3   OH262052   4.146   5.481   1.072  0.1591 -0.5523 -0.2076
13546TIP3    H162053   4.057   5.512   1.089 -0.5550 -2.1321 -0.8543
13546TIP3    H262054   4.167   5.514   0.985  0.3091  0.0179  0.0403
13547TIP3   OH262055   2.558   0.272   1.367 -0.3027 -0.0265  0.0791
13547TIP3    H162056   2.560   0.367   1.364 -1.6859 -0.0133 -1.5601
13547TIP3    H262057   2.540   0.245   1.277 -0.1525 -1.8448  0.5483
13548TIP3   OH262058   1.714   4.494  13.034 -0.0170  0.0793 -0.2971
13548TIP3    H162059   1.662   4.415  13.020  0.3781 -0.2129 -0.1322
13548TIP3    H262060   1.729   4.529  12.946 -0.3657  0.0833 -0.3548
13549TIP3   OH262061   1.915   6.632  16.723  0.5068  0.3299 -0.2316
13549TIP3    H162062   1.905   6.546  16.764  0.2757 -0.1280 -1.2209
13549TIP3    H262063   1.883   6.694  16.789 -2.8251 -0.5832 -0.8220
13550TIP3   OH262064   5.495   5.769   2.632  0.0460 -0.0396  0.2145
13550TIP3    H162065   5.466   5.856   2.658 -1.5910 -0.4471 -0.1005
13550TIP3    H262066   5.586   5.763   2.662  0.1932  1.7722  0.1978
13551TIP3   OH262067   0.409   2.086  12.076 -0.4969  0.0966 -0.4234
13551TIP3    H162068   0.372   2.085  12.164 -0.7459  0.8250 -0.5156
13551TIP3    H262069   0.492   2.039  12.085 -0.6450 -0.0673  0.1394
13552TIP3   OH262070   4.801   4.458   3.098 -0.8484  0.1998 -0.8747
13552TIP3    H162071   4.739   4.500   3.158 -0.6248  0.9106 -1.1342
13552TIP3    H262072   4.838   4.385   3.149 -1.7579 -0.1176 -0.6610
13553TIP3   OH262073   1.490   0.279  13.250  0.2765 -0.0046 -0.5812
13553TIP3    H162074   1.472   0.252  13.160  0.0032 -1.3483 -0.1454
13553TIP3    H262075   1.405   0.272  13.295 -0.1711  3.0429 -0.7448
13554TIP3   OH262076   6.611   3.396  14.957  0.0424 -0.3045 -0.1400
13554TIP3    H162077   6.591   3.306  14.983  2.7143 -0.7375  0.8124
13554TIP3    H262078   6.636   3.389  14.864 -0.3939 -0.4294 -0.2476
13555TIP3   OH262079   6.567   2.988  13.131 -0.0417 -0.1567 -0.1740
13555TIP3    H162080   6.550   2.895  13.141  1.5385 -0.3212  1.4426
13555TIP3    H262081   6.558   3.024  13.219  2.7279  0.5636 -0.0753
13556TIP3   OH262082   6.700   5.049   5.882  0.2882 -0.5404  0.3078
13556TIP3    H162083   6.764   4.983   5.855  0.6749  0.6398 -1.9024
13556TIP3    H262084   6.752   5.119   5.921  0.1732 -0.2860  0.0066
13557TIP3   OH262085   6.439   3.519   0.626  0.2468 -0.3004 -0.9942
13557TIP3    H162086   6.361   3.503   0.572 -2.1438 -0.9224  2.3740
13557TIP3    H262087   6.463   3.433   0.660 -0.4767  0.4555  1.6049
13558TIP3   OH262088   3.937   4.110  12.457 -0.0006 -0.0378 -0.4126
13558TIP3    H162089   3.992   4.032  12.449 -0.4585 -0.2510 -1.8428
13558TIP3    H262090   3.850   4.075  12.479  0.0898  0.1866  0.3331
13559TIP3   OH262091   6.403   3.014  13.723  0.5601  0.2716  0.1293
13559TIP3    H162092   6.341   3.088  13.717 -0.0777 -0.1852  0.8923
13559TIP3    H262093   6.359   2.951  13.779  1.0300 -0.7709 -0.6394
13560TIP3   OH262094   1.048   4.080  11.414  0.1661  0.2002  0.0735
13560TIP3    H162095   1.092   4.128  11.344 -0.8276 -0.0824 -0.7713
13560TIP3    H262096   1.103   4.003  11.429  0.9226  0.7804  0.3260
13561TIP3   OH262097   1.300   2.187   2.920 -0.2620 -0.0795 -0.2046
13561TIP3    H162098   1.246   2.267   2.917  0.1787  0.2379  0.1802
13561TIP3    H262099   1.335   2.186   3.009 -0.5857 -0.9216 -0.0805
13562TIP3   OH262100   3.746   4.380   3.554  0.8111 -0.5130 -0.3317
13562TIP3    H162101   3.658   4.384   3.518 -0.2124 -0.5013  2.0196
13562TIP3    H262102   3.754   4.292   3.591  1.2428 -0.0377  0.7451
13563TIP3   OH262103   6.615   2.868   2.685  0.3112  0.4191  0.5280
13563TIP3    H162104   6.660   2.928   2.744  1.7802 -0.3062  0.1935
13563TIP3    H262105   6.571   2.806   2.743  0.1508  0.8279  0.8518
13564TIP3   OH262106   6.193   6.027  13.307  0.5569  0.5912 -0.2082
13564TIP3    H162107   6.126   6.058  13.367  0.9983  0.3656  0.4130
13564TIP3    H262108   6.146   5.976  13.241  0.1728  0.0090  0.5044
13565TIP3   OH262109   0.104   3.357   1.078 -0.0275  0.3335  0.0614
13565TIP3    H162110   0.041   3.329   1.143  1.4447  0.9346  1.8250
13565TIP3    H262111   0.155   3.278   1.058 -0.9944 -0.0429 -1.0198
13566TIP3   OH262112   4.627   3.260   0.580 -0.4207 -0.0526 -0.1272
13566TIP3    H162113   4.630   3.176   0.625  0.0817 -0.1953 -0.4204
13566TIP3    H262114   4.709   3.303   0.604 -0.6811  0.3676  0.0359
13567TIP3   OH262115   2.850   6.328  14.325  0.2740 -1.2334 -0.2085
13567TIP3    H162116   2.927   6.312  14.379  1.7696 -0.7659 -2.0808
13567TIP3    H262117   2.794   6.251  14.340  1.2693 -1.7777  0.8863
13568TIP3   OH262118   2.294   3.274   2.100  0.2993  0.5214 -0.2780
13568TIP3    H162119   2.200   3.293   2.099 -0.0386 -1.0450 -0.2529
13568TIP3    H262120   2.305   3.202   2.037  1.3831  0.2678  0.1796
13569TIP3   OH262121   2.057   2.830   0.204  0.3649 -0.4558  0.6533
13569TIP3    H162122   2.120   2.875   0.147  0.8173 -2.0268 -0.1389
13569TIP3    H262123   2.032   2.752   0.156  0.4009 -1.6123  2.4171
13570TIP3   OH262124   2.497   5.034  16.847 -0.2844 -0.0410  0.4406
13570TIP3    H162125   2.479   5.126  16.829 -0.3938 -0.4622 -1.9005
13570TIP3    H262126   2.591   5.026  16.835  0.0371  0.0805  2.4851
13571TIP3   OH262127   4.917   3.019   1.443  0.0596 -0.1997 -0.8690
13571TIP3    H162128   4.885   3.107   1.461  1.6171  0.1792  0.2794
13571TIP3    H262129   4.883   2.998   1.356 -2.9673  0.2582  0.1074
13572TIP3   OH262130   5.131   1.834  15.419  0.0775 -0.5967  0.3381
13572TIP3    H162131   5.130   1.756  15.364 -1.1457 -0.5865  0.3168
13572TIP3    H262132   5.059   1.822  15.481  0.1785  0.2866  0.6511
13573TIP3   OH262133   1.456   2.794  14.461 -0.1403  0.1440  0.1593
13573TIP3    H162134   1.496   2.707  14.455  1.2726  0.6235  1.7992
13573TIP3    H262135   1.511   2.849  14.406  0.8799  0.5860  1.5645
13574TIP3   OH262136   2.585   2.097   1.727 -0.0883 -0.1228 -0.2254
13574TIP3    H162137   2.604   2.072   1.637 -0.2054  0.4137 -0.4043
13574TIP3    H262138   2.495   2.068   1.742 -0.2495  0.2602 -0.4550
13575TIP3   OH262139   1.455   2.093  16.056  0.1782  0.4255  0.7265
13575TIP3    H162140   1.369   2.132  16.040 -0.2280 -0.3389  0.9356
13575TIP3    H262141   1.437   2.023  16.119  0.8393 -0.1815  0.2611
13576TIP3   OH262142   2.304   4.310  13.145 -0.3587  0.5436  0.0504
13576TIP3    H162143   2.244   4.373  13.186  0.0416  0.3896  0.8996
13576TIP3    H262144   2.380   4.309  13.203  0.2807  0.3996 -0.7759
13577TIP3   OH262145   5.990   6.307  16.354  0.3531  0.1846  0.1880
13577TIP3    H162146   5.913   6.362  16.370 -0.7594 -1.6345  1.4552
13577TIP3    H262147   6.056   6.368  16.320 -1.5582  1.8390 -0.7651
13578TIP3   OH262148   1.535   3.603   3.702 -0.0666 -0.0394 -0.5239
13578TIP3    H162149   1.630   3.600   3.714  0.1700  0.3994 -2.0649
13578TIP3    H262150   1.523   3.641   3.615 -1.6295 -1.1899 -0.8606
13579TIP3   OH262151   4.778   2.589   1.059  0.3445  0.5913  0.0469
13579TIP3    H162152   4.775   2.682   1.082 -1.7053  0.7898 -0.8064
13579TIP3    H262153   4.734   2.584   0.975 -2.1392 -1.4811  1.3419
13580TIP3   OH262154   1.627   6.495  16.032  0.0128 -0.0137 -0.1447
13580TIP3    H162155   1.558   6.439  15.996  1.0784 -1.5147  0.0295
13580TIP3    H262156   1.581   6.573  16.064 -1.6860 -1.2122  0.4887
13581TIP3   OH262157   3.510   2.106  11.425 -0.3629  0.4448  0.2204
13581TIP3    H162158   3.463   2.166  11.368 -1.5596 -0.7260 -0.0860
13581TIP3    H262159   3.500   2.144  11.513  0.2581  1.5010 -0.1587
13582TIP3   OH262160   3.823   2.585   3.063 -0.0102  0.3101 -0.6699
13582TIP3    H162161   3.859   2.672   3.084  0.0064 -0.0117  0.7389
13582TIP3    H262162   3.728   2.599   3.058  0.0957  0.6951 -2.0234
13583TIP3   OH262163   2.267   6.062  15.929  0.4618 -0.4914  0.2039
13583TIP3    H162164   2.247   6.154  15.944 -0.7759 -0.5842 -0.6860
13583TIP3    H262165   2.189   6.015  15.961  1.1946 -1.2694  0.9293
13584TIP3   OH262166   5.268   3.274   5.277  0.3804  0.4296 -0.2447
13584TIP3    H162167   5.287   3.336   5.207 -1.8208  2.2868  0.6507
13584TIP3    H262168   5.337   3.289   5.342 -0.0018  1.8851 -0.1316
13585TIP3   OH262169   3.612   0.530   5.343 -0.6659  0.0967  0.2072
13585TIP3    H162170   3.610   0.622   5.368  0.7018 -0.3335  2.0744
13585TIP3    H262171   3.520   0.505   5.335 -1.1108  1.0648  1.8917
13586TIP3   OH262172   2.480   5.851   1.981  0.7252 -0.6178  0.0637
13586TIP3    H162173   2.519   5.881   1.899 -1.0038  1.1058 -0.2161
13586TIP3    H262174   2.385   5.860   1.967  0.3879  2.0571  3.0073
13587TIP3   OH262175   1.617   3.190  15.248 -0.2713 -0.0416  0.1055
13587TIP3    H162176   1.654   3.176  15.161 -1.4041 -0.5371 -0.3172
13587TIP3    H262177   1.572   3.274  15.242 -0.3606 -0.0805  0.2080
13588TIP3   OH262178   0.399   3.895   5.224  0.2924 -0.1958  0.2021
13588TIP3    H162179   0.392   3.829   5.293  0.5661 -0.8977 -0.4305
13588TIP3    H262180   0.487   3.882   5.187  0.6185  0.9911  0.5336
13589TIP3   OH262181   2.919   5.624   0.119  0.2245  0.3185 -0.0039
13589TIP3    H162182   2.941   5.647   0.029 -0.8261 -2.4143 -1.0648
13589TIP3    H262183   2.845   5.681   0.142  1.3409  1.9696 -0.3112
13590TIP3   OH262184   6.765   3.319  13.439  0.4399 -0.0969  0.1208
13590TIP3    H162185   6.821   3.309  13.516  1.3718 -1.1052 -0.6518
13590TIP3    H262186   6.778   3.409  13.411  0.5602  0.0988  0.7849
13591TIP3   OH262187   0.789   0.710  11.935 -0.4306 -0.1107  0.0995
13591TIP3    H162188   0.809   0.617  11.948  1.0806  0.0240 -0.9707
13591TIP3    H262189   0.834   0.755  12.007 -0.8462 -0.1716  0.3997
13592TIP3   OH262190   3.214   4.328  13.581 -0.2338  0.1975  0.1650
13592TIP3    H162191   3.243   4.416  13.558  0.4998  0.4011  1.7076
13592TIP3    H262192   3.272   4.302  13.652 -0.7604 -1.3444  0.0625
13593TIP3   OH262193   0.535   2.273   0.821  0.2936 -0.4594  0.2872
13593TIP3    H162194   0.467   2.218   0.781  1.7702 -1.9229 -0.3048
13593TIP3    H262195   0.552   2.341   0.757 -0.6857  0.0000  0.4983
13594TIP3   OH262196   4.353   4.982  16.979  0.5262 -0.7567  0.7953
13594TIP3    H162197   4.349   4.895  16.939  0.3939 -0.6851  0.6520
13594TIP3    H262198   4.370   4.965  17.071 -0.5354 -0.9894  0.9683
13595TIP3   OH262199   5.097   3.756  11.555 -0.4327 -0.0805  0.4055
13595TIP3    H162200   5.180   3.708  11.559 -0.8437 -0.7050  1.8081
13595TIP3    H262201   5.046   3.709  11.489 -0.9082 -1.7450  1.9086
13596TIP3   OH262202   0.546   4.840  14.663  0.1568  0.3123 -0.1989
13596TIP3    H162203   0.532   4.912  14.724 -0.4658  0.5636 -0.6301
13596TIP3    H262204   0.624   4.796  14.696 -0.6022 -0.0243  1.2299
13597TIP3   OH262205   2.022   1.337   5.492 -0.5216  0.4078  0.9578
13597TIP3    H162206   2.105   1.291   5.486 -1.5104 -1.4437  0.8593
13597TIP3    H262207   1.980   1.303   5.572 -2.8445 -1.7253 -0.9828
13598TIP3   OH262208   4.858   2.208   3.774 -0.1168  0.3248  0.2752
13598TIP3    H162209   4.906   2.289   3.761 -0.5275  0.4761 -0.3265
13598TIP3    H262210   4.813   2.192   3.691 -0.9019  0.0593  0.7342
13599TIP3   OH262211   3.216   0.291  16.483 -0.9249  0.4040  0.2154
13599TIP3    H162212   3.266   0.358  16.436 -1.1241  1.2107  1.1313
13599TIP3    H262213   3.125   0.313  16.465 -0.9800 -0.2923 -0.3896
13600TIP3   OH262214   4.002   5.884   1.944  0.3810  0.2702  0.0671
13600TIP3    H162215   3.916   5.892   1.986  0.5105  1.2055  0.1681
13600TIP3    H262216   3.985   5.903   1.852  0.2161 -1.1062 -0.2043
13601TIP3   OH262217   1.807   3.781  14.680  0.0095 -0.2179  0.3500
13601TIP3    H162218   1.865   3.845  14.721  0.1389 -1.0329  1.4742
13601TIP3    H262219   1.839   3.773  14.590  0.6178  0.5378  0.4910
13602TIP3   OH262220   1.340   0.856   5.539  0.1907  0.0882  0.1772
13602TIP3    H162221   1.434   0.876   5.538  0.1582  0.2557 -0.5143
13602TIP3    H262222   1.329   0.791   5.469  0.1010 -1.4894  1.5728
13603TIP3   OH262223   3.357   4.563  15.107  1.0525  0.4896 -0.5357
13603TIP3    H162224   3.323   4.486  15.060  2.7893  0.5421 -1.9817
13603TIP3    H262225   3.285   4.590  15.164  0.3369 -2.1556 -0.0221
13604TIP3   OH262226   0.220   5.664   4.692 -0.2713  0.9793 -0.3668
13604TIP3    H162227   0.293   5.722   4.712 -0.6454  0.8969  1.4103
13604TIP3    H262228   0.256   5.576   4.704 -0.6329  0.9391  0.5879
13605TIP3   OH262229   6.226   3.933  15.093  0.2352 -0.3736 -0.6895
13605TIP3    H162230   6.189   4.000  15.037  1.2678  0.5051 -0.3540
13605TIP3    H262231   6.216   3.968  15.182 -0.1961 -1.1546 -0.4196
13606TIP3   OH262232   3.605   4.060   2.854  0.1796  0.6404 -0.2004
13606TIP3    H162233   3.531   4.080   2.797 -0.9382 -0.3522  0.8468
13606TIP3    H262234   3.606   4.131   2.918  0.3972  0.8644 -0.4472
13607TIP3   OH262235   2.532   0.252   6.063 -0.2460 -0.1347  0.2216
13607TIP3    H162236   2.573   0.323   6.112 -1.6657  0.5611  0.4603
13607TIP3    H262237   2.557   0.173   6.111 -0.0516  0.3662  0.9719
13608TIP3   OH262238   2.437   4.568   0.046  0.2821  0.1744 -0.1135
13608TIP3    H162239   2.356   4.544   0.001  0.7908 -1.1531 -0.3972
13608TIP3    H262240   2.413   4.577   0.138 -0.3719  0.8359 -0.3410
13609TIP3   OH262241   1.873   6.072   5.393 -0.5666  0.4939  0.2516
13609TIP3    H162242   1.873   6.103   5.483  0.0096 -2.0208  1.2098
13609TIP3    H262243   1.959   6.032   5.382 -1.3603 -1.0429 -0.6990
13610TIP3   OH262244   2.708   2.307   2.921 -0.7761  0.0791 -0.2773
13610TIP3    H162245   2.741   2.323   2.833  2.3556 -0.7848  0.6139
13610TIP3    H262246   2.784   2.323   2.978 -2.1850 -1.1842  2.0906
13611TIP3   OH262247   4.015   3.947   3.901  0.6034 -0.3608 -0.3124
13611TIP3    H162248   4.035   4.038   3.880  0.3253 -0.3351 -0.4621
13611TIP3    H262249   4.097   3.913   3.938  0.3456  0.3099  0.9395
13612TIP3   OH262250   5.928   6.613   6.874  0.4256 -0.5230  0.5663
13612TIP3    H162251   5.969   6.683   6.824  1.6340 -0.9194  0.9579
13612TIP3    H262252   5.996   6.585   6.936 -0.2329 -1.6426  0.8085
13613TIP3   OH262253   1.723   1.190  14.892  0.1646 -0.2835  0.0753
13613TIP3    H162254   1.755   1.108  14.854 -0.9534 -0.6257 -0.1978
13613TIP3    H262255   1.639   1.165  14.933 -0.2400  0.7432 -0.1059
13614TIP3   OH262256   5.241   2.601   5.582  0.2338 -0.1020  0.3775
13614TIP3    H162257   5.224   2.609   5.676  0.8420  0.0099  0.4825
13614TIP3    H262258   5.283   2.684   5.558  0.5407 -0.3343  0.1097
13615TIP3   OH262259   5.712   4.229  14.223  0.5381 -0.3540  0.5637
13615TIP3    H162260   5.788   4.184  14.260  1.5663 -0.3626 -1.3909
13615TIP3    H262261   5.750   4.303  14.175 -0.2770 -1.9660 -2.8904
13616TIP3   OH262262   4.109   4.136  16.066 -0.0815  0.0413  0.0872
13616TIP3    H162263   4.083   4.046  16.085 -1.7197  0.3515 -0.4690
13616TIP3    H262264   4.164   4.129  15.988  0.6321 -0.5492  0.6277
13617TIP3   OH262265   1.485   4.930  13.910 -0.3213 -0.2790 -0.2458
13617TIP3    H162266   1.417   4.889  13.858 -0.8770  0.0586  0.2029
13617TIP3    H262267   1.567   4.907  13.866 -0.7233 -0.7014 -0.7756
13618TIP3   OH262268   5.901   2.483   3.664  0.2400 -0.0618 -0.1669
13618TIP3    H162269   5.862   2.398   3.684 -1.1636  0.5405 -0.2493
13618TIP3    H262270   5.983   2.484   3.714 -0.9948 -0.4108  1.9661
13619TIP3   OH262271   5.431   5.077  11.726 -0.2497 -0.0930 -0.5433
13619TIP3    H162272   5.417   5.160  11.681 -1.5844  0.5815  1.0151
13619TIP3    H262273   5.474   5.022  11.661 -0.2164  1.4850 -1.9391
13620TIP3   OH262274   6.442   4.439   3.177  0.3818  0.4791  0.0706
13620TIP3    H162275   6.457   4.533   3.167  1.1500  0.4951  1.1812
13620TIP3    H262276   6.368   4.434   3.237  1.1620  0.3872  1.0457
13621TIP3   OH262277   1.615   3.359   1.619  0.2109  0.6427  0.9282
13621TIP3    H162278   1.599   3.454   1.611 -1.0886  0.2699 -2.7210
13621TIP3    H262279   1.635   3.331   1.530 -0.6702 -2.7214  1.6722
13622TIP3   OH262280   1.730   1.156  11.712  0.2464  0.2027  0.2481
13622TIP3    H162281   1.647   1.109  11.703  1.1942 -1.5329  0.0722
13622TIP3    H262282   1.708   1.248  11.696 -1.2818 -0.4696 -1.8905
13623TIP3   OH262283   5.922   0.757   2.896 -0.2251  0.7325 -0.1407
13623TIP3    H162284   5.918   0.797   2.983 -1.5269  1.4150 -0.4772
13623TIP3    H262285   5.874   0.675   2.906 -0.1473  0.6866 -0.1479
13624TIP3   OH262286   3.898   0.622   6.014  0.5154 -0.0361  0.2660
13624TIP3    H162287   3.812   0.621   6.056 -0.5953 -2.3409 -1.8007
13624TIP3    H262288   3.910   0.714   5.987 -1.2960  0.3530  0.6109
13625TIP3   OH262289   3.558   5.449  16.256 -0.3809 -0.2697 -0.5431
13625TIP3    H162290   3.554   5.382  16.189  0.1712  0.5608 -1.4316
13625TIP3    H262291   3.531   5.529  16.212  0.8587  0.4664 -0.0226
13626TIP3   OH262292   1.986   5.869  14.378  0.0953 -0.1131 -0.0417
13626TIP3    H162293   1.966   5.955  14.415  0.0850  1.2931 -2.9876
13626TIP3    H262294   1.912   5.814  14.402 -0.7925  1.2263  0.3869
13627TIP3   OH262295   0.119   1.432  14.593  0.6078 -0.1940  0.3417
13627TIP3    H162296   0.073   1.348  14.587  1.0697 -0.3750 -0.8689
13627TIP3    H262297   0.053   1.497  14.568  0.1670 -0.1389  1.5513
13628TIP3   OH262298   0.682   3.898  15.887  0.3700 -0.0578 -0.8116
13628TIP3    H162299   0.712   3.834  15.822  1.5563  2.1770 -2.6194
13628TIP3    H262300   0.730   3.877  15.967 -0.6138 -2.4672 -0.7743
13629TIP3   OH262301   0.170   3.501  15.972 -0.5065 -0.2362  0.0774
13629TIP3    H162302   0.147   3.449  15.895  1.2086 -0.3922 -0.3897
13629TIP3    H262303   0.265   3.510  15.966 -0.5584  1.4008  1.1526
13630TIP3   OH262304   6.069   5.448  13.026  0.5096  0.0165  0.2876
13630TIP3    H162305   6.092   5.453  12.933  0.1790  1.5767  0.2717
13630TIP3    H262306   5.997   5.384  13.030 -1.2300  1.8066 -0.9020
13631TIP3   OH262307   2.712   5.682  12.871  0.2137 -0.1715  0.0644
13631TIP3    H162308   2.641   5.725  12.919  0.3090 -0.2173  0.2456
13631TIP3    H262309   2.792   5.714  12.912  0.3592  1.0153 -1.0812
13632TIP3   OH262310   5.892   5.122   2.964  0.4368  0.5456  0.5110
13632TIP3    H162311   5.982   5.122   2.932 -0.3606  1.0244 -1.9213
13632TIP3    H262312   5.869   5.215   2.971  0.0018  0.4254  0.7471
13633TIP3   OH262313   5.550   2.653   0.555  0.0208 -0.1459 -0.3641
13633TIP3    H162314   5.552   2.562   0.527 -1.3110 -0.8783  1.6700
13633TIP3    H262315   5.489   2.696   0.495 -3.0585 -1.7318  1.3855
13634TIP3   OH262316   5.354   1.522   3.639 -0.2839  0.4472  0.0825
13634TIP3    H162317   5.298   1.452   3.604  1.7431 -0.8590 -0.6974
13634TIP3    H262318   5.303   1.559   3.712 -1.8737 -1.1039 -0.1780
13635TIP3   OH262319   1.491   4.139  15.890  0.1443  0.1639  0.4947
13635TIP3    H162320   1.442   4.185  15.958 -0.9517 -0.2416 -0.0004
13635TIP3    H262321   1.464   4.182  15.808  1.8479  1.0069  0.3213
13636TIP3   OH262322   1.855   3.286  12.518 -0.3543 -0.0320 -0.2035
13636TIP3    H162323   1.787   3.225  12.489 -0.4815 -0.0303  0.0871
13636TIP3    H262324   1.873   3.339  12.441  0.5806 -1.1791 -0.8131
13637TIP3   OH262325   3.656   2.859   4.359 -0.0575  0.0447  0.2549
13637TIP3    H162326   3.735   2.863   4.305 -0.0508  1.6316  0.3383
13637TIP3    H262327   3.688   2.872   4.448 -0.2965 -0.3766  0.4005
13638TIP3   OH262328   0.968   5.143   2.968 -0.3791  0.2846  0.5223
13638TIP3    H162329   0.884   5.107   2.997  0.4080 -2.5126 -0.2806
13638TIP3    H262330   1.031   5.073   2.987  1.3569  1.3468 -1.0412
13639TIP3   OH262331   2.818   4.172   1.716  0.4637  0.0746  0.2509
13639TIP3    H162332   2.910   4.190   1.737  0.2699  0.1067  1.1074
13639TIP3    H262333   2.786   4.254   1.679  0.9572 -0.1513 -0.6996
13640TIP3   OH262334   3.164   1.958  14.664  0.2766  0.4301 -0.1013
13640TIP3    H162335   3.160   1.866  14.689  0.5455  0.6746  0.9093
13640TIP3    H262336   3.107   2.003  14.727 -1.4023  0.7486 -1.7636
13641TIP3   OH262337   5.812   0.352  16.029 -0.4331  0.0172 -0.2582
13641TIP3    H162338   5.873   0.325  15.961 -0.1428 -0.4708  0.1882
13641TIP3    H262339   5.866   0.401  16.092 -0.7602  0.7495 -0.5417
13642TIP3   OH262340   4.985   4.920   5.650 -0.0181 -0.0072 -0.6258
13642TIP3    H162341   4.938   4.908   5.733 -0.1446  2.1705 -0.3354
13642TIP3    H262342   5.028   5.005   5.659  0.3820  0.0385 -2.6196
13643TIP3   OH262343   5.499   1.103   2.344  0.0582 -0.2553 -0.0682
13643TIP3    H162344   5.569   1.046   2.373 -0.0828  0.9946  3.1290
13643TIP3    H262345   5.423   1.046   2.334  0.2117 -0.8645  1.8868
13644TIP3   OH262346   0.861   6.595  13.211  0.0696  0.0118 -0.3177
13644TIP3    H162347   0.883   6.533  13.142 -0.3200  0.6416 -1.0222
13644TIP3    H262348   0.815   6.543  13.277 -0.8972 -0.3202 -1.2316
13645TIP3   OH262349   2.457   5.143   2.919  0.3180 -0.3610 -0.0075
13645TIP3    H162350   2.369   5.170   2.890 -0.8018 -0.2043  3.1380
13645TIP3    H262351   2.452   5.047   2.923  0.7770 -0.4401 -1.1479
13646TIP3   OH262352   2.271   2.856  13.650 -0.4715 -0.1677 -0.4451
13646TIP3    H162353   2.272   2.887  13.560  2.0350 -0.0126 -0.4258
13646TIP3    H262354   2.312   2.770  13.648 -1.1686 -0.5446  0.4422
13647TIP3   OH262355   1.335   1.521   3.896 -0.1614 -0.0111  0.4051
13647TIP3    H162356   1.388   1.441   3.895  0.3964  0.3433 -1.0405
13647TIP3    H262357   1.384   1.583   3.842 -0.5090  1.3833  1.6099
13648TIP3   OH262358   3.457   4.284   0.504  0.2429  0.2123  0.0421
13648TIP3    H162359   3.470   4.298   0.597  1.3883 -0.9714  0.0933
13648TIP3    H262360   3.459   4.189   0.493 -0.3844  0.3111 -1.1213
13649TIP3   OH262361   6.371   5.866  12.913 -0.1646 -0.0681  0.4183
13649TIP3    H162362   6.370   5.780  12.956  1.0982 -0.2423  0.1345
13649TIP3    H262363   6.438   5.915  12.959 -0.0410  0.3528 -0.2009
13650TIP3   OH262364   0.965   1.613   1.909 -0.2619 -0.1678 -0.1943
13650TIP3    H162365   1.000   1.702   1.916 -0.0708 -0.2154 -0.5287
13650TIP3    H262366   0.981   1.574   1.995  2.2604 -0.8266 -0.8732
13651TIP3   OH262367   1.923   1.631  14.234 -0.3452  0.1099  0.1392
13651TIP3    H162368   1.894   1.544  14.263  0.8776 -0.8472 -1.3171
13651TIP3    H262369   1.865   1.692  14.278 -0.4062 -1.3638  2.2639
13652TIP3   OH262370   2.827   3.772   3.593  0.1513 -0.1997 -0.2934
13652TIP3    H162371   2.874   3.784   3.510  2.7412 -0.3275  1.0580
13652TIP3    H262372   2.841   3.680   3.616 -1.2576 -0.3857 -0.0930
13653TIP3   OH262373   4.055   3.110  16.078 -0.3619 -0.8384 -0.3824
13653TIP3    H162374   4.121   3.041  16.085 -0.4405 -1.1755 -2.2877
13653TIP3    H262375   4.012   3.093  15.994 -1.4693  0.6029 -0.1468
13654TIP3   OH262376   1.539   6.794  15.793 -0.8639  0.4752  0.7146
13654TIP3    H162377   1.478   6.785  15.866 -1.4987 -2.3076 -0.0612
13654TIP3    H262378   1.562   6.705  15.769  1.7809  1.3703 -0.5171
13655TIP3   OH262379   4.291   5.991  16.107  0.3053  0.3620  0.0606
13655TIP3    H162380   4.258   5.910  16.146  2.6365 -0.6621  0.0621
13655TIP3    H262381   4.317   6.044  16.182 -0.0617  0.5995  0.0220
13656TIP3   OH262382   6.229   2.815  11.179  0.1157 -0.1071 -0.0183
13656TIP3    H162383   6.174   2.806  11.257 -0.8714  1.1166 -0.5339
13656TIP3    H262384   6.306   2.862  11.209 -0.5632  0.9536  0.1170
13657TIP3   OH262385   4.876   4.136   3.510  0.5275  0.7282 -0.4109
13657TIP3    H162386   4.780   4.134   3.503  0.3272 -1.1249  1.8249
13657TIP3    H262387   4.907   4.115   3.422 -1.1472 -0.0694 -0.8464
13658TIP3   OH262388   6.591   3.035  12.172 -0.0529 -0.3318 -0.0379
13658TIP3    H162389   6.685   3.019  12.180  0.0983  0.5992  0.2373
13658TIP3    H262390   6.562   3.053  12.261  0.2018  2.7795 -0.4707
13659TIP3   OH262391   2.841   1.337  14.368 -0.4283 -0.4981  0.3265
13659TIP3    H162392   2.804   1.298  14.447  0.5690 -0.0593  1.0299
13659TIP3    H262393   2.815   1.429  14.372 -0.6852 -0.5499 -0.0560
13660TIP3   OH262394   6.720   4.412  12.917  0.4000 -0.0161 -0.4857
13660TIP3    H162395   6.715   4.484  12.979 -1.0684 -1.1322  0.7877
13660TIP3    H262396   6.780   4.442  12.849  0.3209  2.1225  0.3284
13661TIP3   OH262397   5.754   6.104  14.925  0.3856 -0.1403 -0.0790
13661TIP3    H162398   5.832   6.054  14.952 -0.9678 -2.1801  0.3350
13661TIP3    H262399   5.768   6.122  14.832 -0.0953 -3.5861 -0.9590
13662TIP3   OH262400   4.702   0.325  15.948  0.0270  0.3909  0.1192
13662TIP3    H162401   4.718   0.416  15.973 -0.0649  0.0400  1.5520
13662TIP3    H262402   4.633   0.330  15.882  0.8441  1.4226 -0.6953
13663TIP3   OH262403   0.537   6.615  15.468  0.1851  0.8184  0.1762
13663TIP3    H162404   0.619   6.618  15.517 -0.3581  0.2019  1.1390
13663TIP3    H262405   0.481   6.678  15.513 -0.2647  0.3613  0.2581
13664TIP3   OH262406   0.114   0.585  13.916  0.2376  0.3594 -0.3425
13664TIP3    H162407   0.116   0.570  14.011  0.0778 -0.4075 -0.4462
13664TIP3    H262408   0.148   0.673  13.904 -3.5948  2.2297  0.7691
13665TIP3   OH262409   5.311   4.621  11.670  0.0715 -0.1778 -0.4517
13665TIP3    H162410   5.362   4.570  11.733  0.4238 -0.6890 -1.1378
13665TIP3    H262411   5.275   4.693  11.721  0.9925 -0.1463  0.1734
13666TIP3   OH262412   6.336   2.650  14.419  0.0049  0.5268 -0.2345
13666TIP3    H162413   6.351   2.652  14.324  0.3504  0.4944 -0.1790
13666TIP3    H262414   6.397   2.714  14.455 -1.1378  1.6252 -0.1710
13667TIP3   OH262415   2.785   4.721  14.512  0.3336 -0.4968 -0.0147
13667TIP3    H162416   2.749   4.693  14.596  1.3234  0.4087  0.7270
13667TIP3    H262417   2.859   4.662  14.497  0.6791 -0.1078  0.1627
13668TIP3   OH262418   2.281   5.880   3.484 -0.0860  0.1717 -0.3529
13668TIP3    H162419   2.216   5.943   3.452 -1.0409 -0.1494  0.8722
13668TIP3    H262420   2.364   5.911   3.448 -0.1858  3.3003  1.7330
13669TIP3   OH262421   2.359   2.069  12.289  0.3622 -0.2788 -0.0300
13669TIP3    H162422   2.443   2.050  12.332  0.3379  1.3398  0.7902
13669TIP3    H262423   2.381   2.082  12.197  0.8898 -0.5935  0.0485
13670TIP3   OH262424   3.366   2.822  16.859 -0.1420 -0.0919  0.0603
13670TIP3    H162425   3.418   2.762  16.805 -0.5932 -0.6805  0.2705
13670TIP3    H262426   3.431   2.882  16.897  0.2866 -0.2776 -0.3603
13671TIP3   OH262427   3.400   5.539  15.477  0.2102  0.2217 -0.1194
13671TIP3    H162428   3.406   5.546  15.573  0.1288 -0.1703 -0.0847
13671TIP3    H262429   3.329   5.598  15.453  0.0617  0.1301  0.0896
13672TIP3   OH262430   5.773   6.237  14.312  0.5022 -0.4131 -0.4077
13672TIP3    H162431   5.821   6.297  14.255  1.9468 -2.1199 -1.0733
13672TIP3    H262432   5.685   6.276  14.318  1.8566  2.8537  0.9354
13673TIP3   OH262433   4.686   1.751  15.315 -0.7450  0.0458  0.5960
13673TIP3    H162434   4.777   1.769  15.293 -1.1745 -0.3002 -1.6436
13673TIP3    H262435   4.691   1.687  15.386  0.7419  0.3221  0.7684
13674TIP3   OH262436   4.842   0.741  15.224  0.0666 -0.2681  0.7348
13674TIP3    H162437   4.805   0.780  15.303 -1.1116 -0.4063  0.2664
13674TIP3    H262438   4.798   0.656  15.217 -0.7543  0.2539 -0.7274
13675TIP3   OH262439   0.249   2.193   6.366  0.2452  0.2493 -0.2845
13675TIP3    H162440   0.154   2.183   6.359  0.3587 -1.0386 -0.1715
13675TIP3    H262441   0.262   2.287   6.384 -1.0302  0.3352  0.2990
13676TIP3   OH262442   3.575   0.233   2.623 -0.1132  0.0265 -0.3173
13676TIP3    H162443   3.584   0.163   2.687 -0.1728  0.1551 -0.1689
13676TIP3    H262444   3.590   0.313   2.673 -0.6610  0.1591 -0.3612
13677TIP3   OH262445   1.013   6.416  11.987 -0.1726 -0.0673  0.6338
13677TIP3    H162446   1.066   6.337  11.999  1.8286  1.0387 -0.4152
13677TIP3    H262447   0.946   6.391  11.924  0.7191 -0.8050 -0.0306
13678TIP3   OH262448   5.459   1.997  14.587  0.0881 -0.1908 -0.2704
13678TIP3    H162449   5.424   1.913  14.619 -0.7436 -0.5588 -1.9848
13678TIP3    H262450   5.546   1.975  14.554 -0.3675 -0.5691 -1.2953
13679TIP3   OH262451   4.049   3.328   1.103 -0.1002 -0.6894 -0.5822
13679TIP3    H162452   4.061   3.377   1.184 -0.6876  1.1514 -1.5447
13679TIP3    H262453   4.133   3.283   1.090  1.4209  1.9897 -0.8238
13680TIP3   OH262454   0.359   5.255   5.280 -0.0010 -0.2638  0.0573
13680TIP3    H162455   0.287   5.295   5.231  0.5802  0.2784 -0.3854
13680TIP3    H262456   0.345   5.281   5.370 -0.0777  0.2763 -0.1066
13681TIP3   OH262457   1.667   5.157  13.898 -0.3188 -0.2505 -0.3462
13681TIP3    H162458   1.590   5.189  13.851  0.6703  3.2592  0.0816
13681TIP3    H262459   1.726   5.126  13.830 -1.3013 -1.0635 -0.8441
13682TIP3   OH262460   2.605   1.454   0.951  0.1903 -0.5373  0.5036
13682TIP3    H162461   2.636   1.428   1.037 -0.1821  1.1169  1.1787
13682TIP3    H262462   2.588   1.548   0.959 -1.1748 -0.6121 -0.9686
13683TIP3   OH262463   2.130   4.803   0.076 -0.2196 -0.2930  0.4009
13683TIP3    H162464   2.055   4.743   0.079 -0.7166  0.3374  1.2591
13683TIP3    H262465   2.178   4.786   0.158 -0.1235  0.1634  0.4437
13684TIP3   OH262466   2.327   1.997   1.766  0.3334 -0.3080  0.2589
13684TIP3    H162467   2.324   1.950   1.849  1.0463 -0.1134  0.4014
13684TIP3    H262468   2.330   1.928   1.700 -1.2862 -0.4818  0.3220
13685TIP3   OH262469   2.404   2.602  15.846 -0.4419  0.1116  0.1205
13685TIP3    H162470   2.314   2.603  15.878 -0.4199  0.3375  0.1708
13685TIP3    H262471   2.405   2.665  15.774 -0.5822 -0.6582 -0.5657
13686TIP3   OH262472   2.792   1.829  12.948  0.0587  0.6698 -0.5160
13686TIP3    H162473   2.744   1.837  12.866 -0.9037  0.4117  0.0075
13686TIP3    H262474   2.780   1.914  12.991 -1.7496 -0.0697  0.5582
13687TIP3   OH262475   5.719   1.172   6.147 -0.4281  0.4239 -0.0156
13687TIP3    H162476   5.638   1.216   6.173 -1.7761 -1.3158 -1.0664
13687TIP3    H262477   5.709   1.082   6.179  0.1546 -0.3690 -1.9344
13688TIP3   OH262478   4.749   6.758   0.512 -0.1436 -0.0744 -0.0244
13688TIP3    H162479   4.828   6.805   0.538 -0.2098  0.9842 -1.6407
13688TIP3    H262480   4.714   6.807   0.438 -2.0398 -0.8214  0.3085
13689TIP3   OH262481   0.936   4.256  11.726 -0.1244 -0.2169  0.1621
13689TIP3    H162482   0.875   4.309  11.778 -0.8796  1.3463 -2.1387
13689TIP3    H262483   0.884   4.226  11.651  1.9086  1.6752 -2.2204
13690TIP3   OH262484   4.742   2.626  16.237  0.2230 -0.4319  0.1821
13690TIP3    H162485   4.679   2.651  16.306 -1.8563 -0.7095 -1.5111
13690TIP3    H262486   4.806   2.572  16.283 -0.9477 -0.4186  1.9709
13691TIP3   OH262487   1.819   3.103   4.508  0.3852  0.2819 -0.6196
13691TIP3    H162488   1.726   3.091   4.529  0.5633 -1.5825 -0.7235
13691TIP3    H262489   1.818   3.154   4.427 -0.4539  2.0840  0.4439
13692TIP3   OH262490   4.691   0.875  16.510  0.6356 -0.2330  0.0816
13692TIP3    H162491   4.671   0.872  16.603 -0.9683 -0.5303 -0.2436
13692TIP3    H262492   4.787   0.865  16.505  1.2389  3.2322  1.8504
13693TIP3   OH262493   3.174   2.716   6.092  0.4328 -0.2343  0.0389
13693TIP3    H162494   3.121   2.637   6.077  0.5481 -0.3634  0.3044
13693TIP3    H262495   3.159   2.737   6.184 -0.1319  0.4478 -0.1974
13694TIP3   OH262496   4.477   2.097   5.060 -0.1269  0.2807 -0.4899
13694TIP3    H162497   4.390   2.059   5.068 -0.6002  1.4034 -0.2334
13694TIP3    H262498   4.472   2.181   5.105  1.4479 -0.1896  0.6640
13695TIP3   OH262499   0.835   4.337  12.987  0.3162 -0.0895  0.7855
13695TIP3    H162500   0.770   4.294  12.931  0.7235 -0.1996  0.3866
13695TIP3    H262501   0.906   4.274  12.993  0.9839  0.5686  0.0716
13696TIP3   OH262502   6.599   6.741   1.058 -0.5384  0.1347 -0.2469
13696TIP3    H162503   6.516   6.705   1.026 -0.9866  0.3949  0.5905
13696TIP3    H262504   6.591   6.738   1.154  1.0290 -1.2367 -0.1243
13697TIP3   OH262505   1.346   5.618  14.149  0.5093  0.6061 -0.0872
13697TIP3    H162506   1.257   5.634  14.120  0.1723  0.7235  0.9711
13697TIP3    H262507   1.382   5.557  14.084 -0.1066  1.0896 -0.8921
13698TIP3   OH262508   1.628   6.751   2.979  1.0711 -0.5010 -0.1887
13698TIP3    H162509   1.646   6.834   3.022  4.5068 -0.6912 -0.9960
13698TIP3    H262510   1.699   6.693   3.008  0.7451 -2.0709 -2.3128
13699TIP3   OH262511   6.306   3.911  12.794 -0.5782 -0.2282  0.6691
13699TIP3    H162512   6.300   3.819  12.823 -0.0380 -0.0282  1.4593
13699TIP3    H262513   6.400   3.925  12.780 -0.6574  0.2188  0.5846
13700TIP3   OH262514   5.509   5.759  11.920  0.6610  0.3424 -0.4440
13700TIP3    H162515   5.523   5.755  11.825  1.0923 -0.7699 -0.3505
13700TIP3    H262516   5.452   5.835  11.932 -0.5271 -0.2815 -1.7518
13701TIP3   OH262517   5.721   0.206   3.682 -0.0795  1.2622 -0.6890
13701TIP3    H162518   5.750   0.297   3.679 -0.3175  1.4567  1.4132
13701TIP3    H262519   5.759   0.171   3.762 -1.4227  0.0370 -0.5387
13702TIP3   OH262520   4.022   3.468  11.780 -0.3959 -0.2774  0.6562
13702TIP3    H162521   3.947   3.500  11.730  0.0283 -0.0521  0.1489
13702TIP3    H262522   4.021   3.373  11.768  0.3618 -0.1370 -0.7596
13703TIP3   OH262523   3.298   0.254  12.448  0.0090 -0.1003  0.2773
13703TIP3    H162524   3.391   0.257  12.472  0.1857  1.2111 -0.4779
13703TIP3    H262525   3.289   0.172  12.398  0.7089 -0.3303  0.5130
13704TIP3   OH262526   0.518   0.876   0.714 -0.5265  0.0045 -0.0717
13704TIP3    H162527   0.510   0.929   0.793 -0.4045 -0.8817  0.5508
13704TIP3    H262528   0.592   0.915   0.667  1.4433 -1.2782  1.7550
13705TIP3   OH262529   0.130   5.583   2.273  0.1795  0.2480 -1.1401
13705TIP3    H162530   0.138   5.505   2.329 -1.9602 -0.5404 -1.8257
13705TIP3    H262531   0.136   5.656   2.334  0.7194 -0.4965 -0.2651
13706TIP3   OH262532   6.611   1.211  16.047 -0.1368 -0.4034  0.5936
13706TIP3    H162533   6.554   1.270  15.999 -1.0687 -0.6053  1.4158
13706TIP3    H262534   6.696   1.254  16.047 -0.6173  0.5754  0.5267
13707TIP3   OH262535   1.836   0.490   4.621  0.4517  0.7276 -0.0229
13707TIP3    H162536   1.778   0.545   4.674  0.0859  0.1504  0.1849
13707TIP3    H262537   1.777   0.442   4.563  0.3976 -1.9265  2.0470
13708TIP3   OH262538   3.652   5.533  14.896 -0.3454 -0.7274  0.6101
13708TIP3    H162539   3.577   5.588  14.918  0.2652  0.8106 -0.9594
13708TIP3    H262540   3.717   5.553  14.963 -0.3995 -0.0883  0.4763
13709TIP3   OH262541   0.502   4.557  15.933  0.2953 -1.4514  0.0821
13709TIP3    H162542   0.541   4.495  15.871 -2.0861 -1.3084 -1.6840
13709TIP3    H262543   0.409   4.538  15.931 -0.3072  1.0504  0.7927
13710TIP3   OH262544   1.965   1.683  15.589  0.0518 -0.3583  0.4722
13710TIP3    H162545   1.973   1.589  15.572  0.1139 -0.1892 -0.5030
13710TIP3    H262546   1.927   1.719  15.509 -0.4434  0.3834  1.0249
13711TIP3   OH262547   5.983   3.258  15.074  0.0278 -0.2187  0.3073
13711TIP3    H162548   5.957   3.202  15.147  0.2060  0.2137  0.7037
13711TIP3    H262549   6.005   3.196  15.003  0.0816 -0.6440  0.6895
13712TIP3   OH262550   4.281   5.008  11.251  1.0676  0.7225  0.4871
13712TIP3    H162551   4.217   4.938  11.256 -0.6526  2.3221  2.9193
13712TIP3    H262552   4.365   4.966  11.270  0.4642 -1.0009 -0.3978
13713TIP3   OH262553   3.402   2.665  15.212 -0.3381  0.5806  0.4268
13713TIP3    H162554   3.339   2.599  15.238  1.5476 -0.9185  1.4427
13713TIP3    H262555   3.449   2.625  15.138 -1.1079  2.0372 -0.9169
13714TIP3   OH262556   0.854   5.164  16.228 -0.0724 -0.1675 -0.1020
13714TIP3    H162557   0.874   5.204  16.143 -0.9541 -0.4017 -0.4334
13714TIP3    H262558   0.759   5.158  16.229  0.0148 -3.3694 -0.6014
13715TIP3   OH262559   6.496   6.506   1.990  0.1935 -0.5309  0.0804
13715TIP3    H162560   6.536   6.434   1.941  0.3540 -0.7298  0.4935
13715TIP3    H262561   6.420   6.466   2.033  1.3231 -0.9430  1.8200
13716TIP3   OH262562   5.432   5.217   3.583  0.4512 -0.0276  0.5306
13716TIP3    H162563   5.428   5.299   3.632  0.6254  0.7406 -0.7183
13716TIP3    H262564   5.367   5.161   3.627 -1.1004  1.4387  0.2125
13717TIP3   OH262565   1.440   2.371   0.567  0.7211 -0.6345 -0.2171
13717TIP3    H162566   1.383   2.382   0.643 -1.0476 -1.3980 -1.3579
13717TIP3    H262567   1.457   2.460   0.537 -0.2084 -0.3854 -0.0553
13718TIP3   OH262568   1.421   3.182  12.900 -0.3705  0.6975 -0.3169
13718TIP3    H162569   1.347   3.231  12.864 -0.4217  0.1394 -0.9998
13718TIP3    H262570   1.427   3.211  12.991 -0.7866  1.5002 -0.5367
13719TIP3   OH262571   0.527   0.305  16.169 -0.6682  0.2831 -0.1417
13719TIP3    H162572   0.565   0.282  16.084 -1.6383  1.1254 -0.8211
13719TIP3    H262573   0.489   0.223  16.201 -1.7785  0.3129 -1.3085
13720TIP3   OH262574   4.196   2.824  15.973  0.0294 -0.1288  0.1156
13720TIP3    H162575   4.171   2.756  16.035 -2.0641  0.3367 -0.1681
13720TIP3    H262576   4.123   2.830  15.912  1.7442 -0.1554 -2.1007
13721TIP3   OH262577   3.052   6.202  12.696 -0.0195  0.3638 -0.1247
13721TIP3    H162578   3.049   6.202  12.792 -2.5228  0.1132 -0.1440
13721TIP3    H262579   2.963   6.222  12.669  0.9659  2.1028 -2.4559
13722TIP3   OH262580   0.099   4.782   5.479 -0.0688 -0.0465 -0.1852
13722TIP3    H162581   0.158   4.715   5.511  0.4009  0.4140 -0.0675
13722TIP3    H262582   0.131   4.863   5.519  1.2065  0.7376 -2.5759
13723TIP3   OH262583   2.551   1.715  11.614  0.5174 -0.3857 -0.0587
13723TIP3    H162584   2.516   1.660  11.543 -0.5732 -0.0359  0.1862
13723TIP3    H262585   2.611   1.776  11.570  0.9133 -1.0723 -0.4789
13724TIP3   OH262586   3.318   3.135   2.879  0.2572 -0.0639 -0.1602
13724TIP3    H162587   3.414   3.135   2.879  0.3132 -0.4851  1.9000
13724TIP3    H262588   3.294   3.055   2.834  0.8892 -0.1011 -0.4452
13725TIP3   OH262589   6.525   5.048  12.545 -0.2675  0.7224  0.2013
13725TIP3    H162590   6.570   5.053  12.460  0.5856 -0.1772  0.5773
13725TIP3    H262591   6.436   5.077  12.527  0.4454  2.5768 -0.5777
13726TIP3   OH262592   4.858   3.576   4.467  0.5562 -0.0755  0.6721
13726TIP3    H162593   4.789   3.561   4.531  1.9456 -0.3551  2.1663
13726TIP3    H262594   4.813   3.615   4.392 -1.0294  0.9509  2.0823
13727TIP3   OH262595   1.265   5.765   5.209 -0.4199 -0.5043 -0.5116
13727TIP3    H162596   1.252   5.859   5.221  0.8119 -0.6176  2.7476
13727TIP3    H262597   1.291   5.755   5.118 -0.8167  2.2699 -1.0043
13728TIP3   OH262598   4.391   4.890  11.511  0.3288 -0.2401 -0.2756
13728TIP3    H162599   4.416   4.886  11.603  3.0945 -1.2504 -0.9835
13728TIP3    H262600   4.390   4.983  11.490 -0.8334  0.0292  0.8542
13729TIP3   OH262601   0.921   2.042  14.057  0.1656  0.0961 -0.3333
13729TIP3    H162602   0.960   2.062  14.142 -2.7449 -0.1845  1.1839
13729TIP3    H262603   0.908   1.947  14.058 -1.4593  0.2866 -0.2978
13730TIP3   OH262604   6.307   5.123  16.279  0.0951 -0.0070 -0.4828
13730TIP3    H162605   6.221   5.081  16.284 -0.3554  1.0368  1.7997
13730TIP3    H262606   6.367   5.060  16.318  0.3124 -0.4797 -1.5225
13731TIP3   OH262607   6.801   6.160  12.699  0.4880  0.4284  0.3519
13731TIP3    H162608   6.892   6.183  12.717  0.6525  0.4223 -0.4486
13731TIP3    H262609   6.783   6.198  12.613 -0.6064  1.3802  0.9691
13732TIP3   OH262610   4.329   0.865  14.726 -0.4465  0.4199  0.1068
13732TIP3    H162611   4.313   0.771  14.729  0.5452  0.2493  0.2214
13732TIP3    H262612   4.333   0.892  14.818  2.9680 -0.1059  0.2383
13733TIP3   OH262613   5.478   5.092  15.866 -0.0078 -0.1760  0.0427
13733TIP3    H162614   5.410   5.134  15.813  1.4505 -0.0463 -1.8455
13733TIP3    H262615   5.484   5.147  15.945 -0.5142  1.1771 -0.8179
13734TIP3   OH262616   2.785   3.889  14.711  0.0145  0.2203 -0.3849
13734TIP3    H162617   2.874   3.854  14.723 -0.4078 -0.3963  1.2666
13734TIP3    H262618   2.734   3.815  14.679 -0.5426 -0.3300  1.6378
13735TIP3   OH262619   6.295   4.281   5.293  0.3682 -0.3122 -0.3469
13735TIP3    H162620   6.362   4.213   5.302 -0.7279 -1.6226 -1.4376
13735TIP3    H262621   6.215   4.239   5.326 -0.3368  0.4356 -1.0631
13736TIP3   OH262622   1.623   0.832  16.822 -0.1415  0.7592 -0.2907
13736TIP3    H162623   1.539   0.863  16.788  0.2033  1.2490 -0.7188
13736TIP3    H262624   1.604   0.807  16.912 -1.2599 -1.3493 -1.0457
13737TIP3   OH262625   2.089   6.158  12.140 -0.2158 -0.5832  0.3169
13737TIP3    H162626   2.102   6.183  12.232  0.4086 -1.2315  0.4106
13737TIP3    H262627   2.119   6.068  12.135 -0.0332 -0.4815 -0.5805
13738TIP3   OH262628   4.583   2.286  13.311 -0.4620 -0.1972 -0.0306
13738TIP3    H162629   4.641   2.318  13.242  0.9860 -2.1080  0.2136
13738TIP3    H262630   4.506   2.253  13.264  0.2385 -0.9236 -0.6961
13739TIP3   OH262631   2.619   1.971  12.383  0.0998  0.4089  0.5829
13739TIP3    H162632   2.709   1.939  12.380  0.2173  0.7721 -2.3721
13739TIP3    H262633   2.626   2.060  12.417  0.8101  0.3223  0.6708
13740TIP3   OH262634   2.702   5.211   0.084 -0.2882  0.1418 -0.0929
13740TIP3    H162635   2.733   5.240  -0.002  3.5407 -1.2627  0.6393
13740TIP3    H262636   2.673   5.121   0.068 -0.6428  0.2561 -0.1007
13741TIP3   OH262637   6.748   0.123   0.937 -0.2581  0.6301 -0.0644
13741TIP3    H162638   6.775   0.112   0.846 -3.5169  1.4738 -1.2957
13741TIP3    H262639   6.713   0.037   0.962  0.0982  0.5584  0.1917
13742TIP3   OH262640   6.330   3.001  12.626 -0.1714  0.4081  0.7405
13742TIP3    H162641   6.244   2.963  12.643 -0.3213 -0.3026 -1.3173
13742TIP3    H262642   6.388   2.926  12.613  0.4090  0.8889  0.4809
13743TIP3   OH262643   4.098   2.667   6.208 -0.1137 -0.5142 -0.2982
13743TIP3    H162644   4.079   2.575   6.188 -0.7485 -0.4169 -0.1568
13743TIP3    H262645   4.172   2.689   6.152  0.5199 -1.3241  0.1901
13744TIP3   OH262646   3.794   0.169  10.560  0.5620  0.5169  0.2538
13744TIP3    H162647   3.804   0.142  10.651  1.0900 -0.0821  0.0306
13744TIP3    H262648   3.883   0.166  10.525 -0.0119 -3.1580 -1.3413
13745TIP3   OH262649   0.973   4.287  15.613 -0.6787 -0.3014 -0.3801
13745TIP3    H162650   0.907   4.328  15.558 -0.8515  1.0768  0.8036
13745TIP3    H262651   0.930   4.210  15.650 -0.5900 -1.1890 -2.0496
13746TIP3   OH262652   5.855   1.500   3.614  0.4387 -0.4568 -1.0623
13746TIP3    H162653   5.805   1.472   3.691  1.1121 -2.7912 -1.3731
13746TIP3    H262654   5.938   1.532   3.649  0.5466 -1.0499 -0.7547
13747TIP3   OH262655   4.760   5.618  12.580  0.1301  0.2300 -0.1157
13747TIP3    H162656   4.777   5.662  12.497 -0.5870  1.1959  0.2176
13747TIP3    H262657   4.842   5.626  12.629  1.7636 -3.3314 -1.9234
13748TIP3   OH262658   3.720   4.105  11.317 -0.1429 -0.2214 -0.2306
13748TIP3    H162659   3.743   4.076  11.406  0.4170  0.4630 -0.1430
13748TIP3    H262660   3.624   4.112  11.318 -0.0314  2.1510  1.1051
13749TIP3   OH262661   1.015   0.697  15.950 -0.2548 -0.0078  0.1316
13749TIP3    H162662   0.998   0.604  15.933  1.0643 -0.0480 -1.2517
13749TIP3    H262663   0.964   0.744  15.883  1.8141  0.0401 -1.5172
13750TIP3   OH262664   1.710   2.879  11.980 -0.0283 -0.5163  0.2597
13750TIP3    H162665   1.652   2.944  11.939 -0.0054 -0.5896  0.1103
13750TIP3    H262666   1.753   2.927  12.051  0.1188 -0.3181  0.0400
13751TIP3   OH262667   0.922   3.004   3.938  0.6256 -0.4363  0.4786
13751TIP3    H162668   0.968   2.952   4.005  0.3371 -0.3949  0.7129
13751TIP3    H262669   0.989   3.061   3.902  0.7337 -0.2947  0.8991
13752TIP3   OH262670   5.860   0.710  15.885 -0.1537  0.5606  0.0111
13752TIP3    H162671   5.837   0.698  15.793  0.3889  0.6663 -0.1442
13752TIP3    H262672   5.952   0.683  15.890 -0.5087 -0.6118  0.7660
13753TIP3   OH262673   1.317   6.227   1.517 -0.1609  0.1571 -0.5036
13753TIP3    H162674   1.297   6.225   1.610 -1.9143  2.3498 -0.7533
13753TIP3    H262675   1.343   6.137   1.496  2.2772  0.0271  2.4443
13754TIP3   OH262676   1.892   2.646  14.029  0.2388 -0.4303  0.1932
13754TIP3    H162677   1.979   2.613  14.008 -0.4103 -1.4857 -0.9328
13754TIP3    H262678   1.838   2.568  14.043 -0.4289  0.2080  1.4365
13755TIP3   OH262679   3.288   6.118  16.607  0.1993  0.1265  0.0183
13755TIP3    H162680   3.200   6.096  16.576 -0.1274 -1.0141  1.6492
13755TIP3    H262681   3.333   6.034  16.612  1.3146  0.6649 -0.4953
13756TIP3   OH262682   1.958   1.105   5.664 -0.2138 -0.3783 -0.2151
13756TIP3    H162683   1.964   1.047   5.588 -1.7235 -1.4399  0.4443
13756TIP3    H262684   1.866   1.130   5.669  0.2456  1.4743  0.0016
13757TIP3   OH262685   1.551   5.197   4.954 -0.1919 -0.2483 -0.2164
13757TIP3    H162686   1.477   5.179   5.011  0.0085 -2.0911 -0.4733
13757TIP3    H262687   1.566   5.115   4.907  2.2752 -0.0789  0.1313
13758TIP3   OH262688   1.001   2.361   5.491 -0.1591  0.3806 -0.1629
13758TIP3    H162689   1.014   2.453   5.466  0.2215  0.8620  1.6261
13758TIP3    H262690   0.965   2.365   5.580  0.9103 -1.1900  0.3954
13759TIP3   OH262691   4.716   4.691   2.592 -0.1789 -0.7276 -0.2595
13759TIP3    H162692   4.752   4.737   2.516 -0.6463 -1.3097 -0.8452
13759TIP3    H262693   4.652   4.631   2.555 -0.7496 -0.6908  0.6445
13760TIP3   OH262694   1.849   0.583  15.526  0.3967 -0.0765 -0.0836
13760TIP3    H162695   1.784   0.638  15.569  2.6009  1.4885  1.4211
13760TIP3    H262696   1.857   0.620  15.438  1.2182  1.5414  0.6283
13761TIP3   OH262697   6.774   3.843  13.503 -0.0708 -0.0286 -0.8973
13761TIP3    H162698   6.682   3.842  13.480 -0.0346 -0.0441 -1.0421
13761TIP3    H262699   6.815   3.900  13.437  0.3235 -1.4707 -1.9520
13762TIP3   OH262700   0.913   3.462   0.712 -0.3280 -0.3305  0.2243
13762TIP3    H162701   0.837   3.407   0.694  0.6593 -1.8204  0.4401
13762TIP3    H262702   0.934   3.502   0.627 -0.0386 -1.6718 -0.3758
13763TIP3   OH262703   5.354   1.506   6.190 -0.3911 -0.6937 -0.5562
13763TIP3    H162704   5.259   1.497   6.197 -0.2585 -0.7720  2.8976
13763TIP3    H262705   5.385   1.420   6.163 -1.1337 -1.8990  2.1251
13764TIP3   OH262706   6.777   0.866   2.323  0.0120  0.7690 -0.0430
13764TIP3    H162707   6.807   0.796   2.380 -0.6281  0.2440 -0.3413
13764TIP3    H262708   6.695   0.896   2.362  0.4145  1.5483  0.2362
13765TIP3   OH262709   3.417   4.473  11.033  0.0420 -0.1516 -0.4484
13765TIP3    H162710   3.502   4.440  11.002  0.5848 -1.0700  1.8090
13765TIP3    H262711   3.354   4.405  11.010  0.7699 -1.8282  2.0466
13766TIP3   OH262712   1.820   5.009   0.664  0.0823 -0.5399 -0.1777
13766TIP3    H162713   1.735   5.051   0.676  0.4908 -0.2158  1.8920
13766TIP3    H262714   1.884   5.080   0.673  0.6682 -1.1637  0.7244
13767TIP3   OH262715   2.774   0.111  14.865  0.4752  0.1956  0.0854
13767TIP3    H162716   2.853   0.112  14.919  0.0516  1.2655  0.7101
13767TIP3    H262717   2.744   0.202  14.864 -0.7854 -0.1996 -0.0903
13768TIP3   OH262718   2.840   2.303  14.799 -0.0284 -0.2584  0.6967
13768TIP3    H162719   2.747   2.297  14.778 -0.9754 -0.9266  4.2735
13768TIP3    H262720   2.850   2.388  14.842  1.1637  0.0180 -0.0671
13769TIP3   OH262721   5.306   3.192   1.738 -0.0923 -0.2125  0.0129
13769TIP3    H162722   5.326   3.117   1.795 -1.4473 -1.5138 -1.1331
13769TIP3    H262723   5.210   3.194   1.735 -0.1626  2.6365  1.3144
13770TIP3   OH262724   1.766   5.088  11.983 -0.1964  0.3330  0.0474
13770TIP3    H162725   1.802   5.031  12.051  0.8207 -0.9803 -1.5250
13770TIP3    H262726   1.828   5.081  11.910 -1.3843  1.4729 -1.1247
13771TIP3   OH262727   4.925   0.848  15.888 -0.4213  0.4008 -0.3955
13771TIP3    H162728   4.952   0.866  15.978 -1.4860  1.1777 -0.2148
13771TIP3    H262729   5.004   0.812  15.846 -0.1432 -0.7867  1.0535
13772TIP3   OH262730   1.925   5.064  11.764  0.1779  0.4724  0.4991
13772TIP3    H162731   1.986   5.103  11.701 -0.2599 -0.0239 -0.2479
13772TIP3    H262732   1.839   5.077  11.725 -0.1267  0.3807  1.1267
13773TIP3   OH262733   2.459   4.118  13.971  0.2858 -0.1107  0.5536
13773TIP3    H162734   2.502   4.088  14.051 -0.9871 -1.2463  0.8443
13773TIP3    H262735   2.366   4.112  13.991 -0.0446  2.0891 -0.1330
13774TIP3   OH262736   3.666   0.876  12.215  0.1034  0.0489  0.1276
13774TIP3    H162737   3.635   0.795  12.173  0.5500 -0.1067  0.0893
13774TIP3    H262738   3.649   0.863  12.308  0.6641 -0.3210  0.1852
13775TIP3   OH262739   1.934   5.836   2.145  0.1373  0.2950  0.2697
13775TIP3    H162740   1.942   5.748   2.109 -2.1726 -0.3052  1.0851
13775TIP3    H262741   2.019   5.877   2.125  0.6942 -1.5366 -1.5536
13776TIP3   OH262742   0.184   6.611  11.124 -0.4033  0.5511  0.4515
13776TIP3    H162743   0.143   6.635  11.041 -0.0372  1.0612  0.4115
13776TIP3    H262744   0.277   6.624  11.109 -0.2850  0.0654  0.7560
13777TIP3   OH262745   3.388   1.644  13.067 -0.9049  0.0787  0.3620
13777TIP3    H162746   3.342   1.597  12.997 -1.2028 -0.5201  0.9452
13777TIP3    H262747   3.323   1.655  13.136 -1.0948  2.1582 -0.0861
13778TIP3   OH262748   6.039   3.509  15.123 -0.1164  0.5648  0.1393
13778TIP3    H162749   6.012   3.507  15.215  0.1548 -0.1365  0.2088
13778TIP3    H262750   6.003   3.429  15.085 -0.9484  1.2526 -0.5874
13779TIP3   OH262751   2.408   4.161   2.210  0.4905 -0.3110 -0.4050
13779TIP3    H162752   2.350   4.126   2.142 -0.2120 -2.8437  1.3413
13779TIP3    H262753   2.368   4.245   2.234 -1.1554 -0.9048 -0.8652
13780TIP3   OH262754   6.251   2.235   0.460 -0.0431  0.4910  0.1861
13780TIP3    H162755   6.273   2.150   0.422  0.7228  0.6452  0.2680
13780TIP3    H262756   6.184   2.216   0.525  0.1838 -0.0662  0.2634
13781TIP3   OH262757   0.277   2.444   2.361 -0.1972 -0.1003  0.5739
13781TIP3    H162758   0.287   2.426   2.268  0.9727  0.6019  0.5506
13781TIP3    H262759   0.350   2.398   2.402  0.1598  0.8068  0.9780
13782TIP3   OH262760   4.798   3.598  12.091 -0.3439 -0.3737  0.4524
13782TIP3    H162761   4.811   3.538  12.018  0.3223  0.9909 -0.6124
13782TIP3    H262762   4.886   3.611  12.127 -0.4571  0.0673  0.5767
13783TIP3   OH262763   6.688   3.970  11.992 -0.2041 -0.0007  0.3057
13783TIP3    H162764   6.726   4.008  11.913  1.2578  0.5539  1.2281
13783TIP3    H262765   6.596   3.996  11.990  0.4283  2.4620  0.2039
13784TIP3   OH262766   3.659   5.588  15.359 -0.8672  0.2140  0.4707
13784TIP3    H162767   3.590   5.568  15.422 -1.5478 -0.6275 -0.4982
13784TIP3    H262768   3.668   5.683  15.362 -0.0755  0.1150  2.6182
13785TIP3   OH262769   0.833   5.093  12.901  0.0572  0.2878 -0.7803
13785TIP3    H162770   0.824   5.092  12.996  0.4552 -0.0386 -0.7424
13785TIP3    H262771   0.772   5.027  12.870 -0.0258  0.3493 -0.7480
13786TIP3   OH262772   5.336   6.168   1.252  0.3943 -0.1794 -0.2552
13786TIP3    H162773   5.419   6.148   1.296 -0.3967  0.3951  1.6185
13786TIP3    H262774   5.318   6.258   1.277 -0.6293 -0.1932 -0.9253
13787TIP3   OH262775   1.635   1.340  14.667 -0.0113  0.0913 -0.0775
13787TIP3    H162776   1.641   1.326  14.762 -0.2002 -1.8431 -0.3031
13787TIP3    H262777   1.557   1.396  14.656  1.2649  2.2093  0.9983
13788TIP3   OH262778   0.758   6.261  12.566  0.1417 -0.7985  0.5034
13788TIP3    H162779   0.693   6.331  12.562  0.0653 -0.9249 -1.6805
13788TIP3    H262780   0.782   6.256  12.659 -1.7359  0.3550  1.1082
13789TIP3   OH262781   0.814   2.323  13.113 -0.0323 -0.1749  0.1678
13789TIP3    H162782   0.899   2.342  13.154 -0.8973 -0.4713  2.2293
13789TIP3    H262783   0.752   2.321  13.186 -2.4169  3.0495 -1.5376
13790TIP3   OH262784   6.012   4.835   0.595 -0.0921  0.3198 -0.3803
13790TIP3    H162785   6.072   4.764   0.572  0.4955  0.4641  0.6430
13790TIP3    H262786   5.963   4.853   0.514  0.6626 -0.3619 -0.9987
13791TIP3   OH262787   0.259   0.177  12.770 -0.1913 -0.1409  0.3825
13791TIP3    H162788   0.316   0.250  12.795  0.7092 -1.3034  1.9444
13791TIP3    H262789   0.188   0.178  12.834 -0.1245 -0.6670  0.4752
13792TIP3   OH262790   1.247   3.881   6.278 -0.0296  0.2852  0.6980
13792TIP3    H162791   1.167   3.841   6.245  0.0926 -0.0788  0.8366
13792TIP3    H262792   1.240   3.974   6.255  0.7975 -0.2105 -1.7939
13793TIP3   OH262793   6.092   1.156  16.228  0.3220 -0.1400 -0.2693
13793TIP3    H162794   6.085   1.094  16.155  1.6425  0.8323 -1.2647
13793TIP3    H262795   6.078   1.102  16.306 -0.4269 -1.3339 -1.1899
13794TIP3   OH262796   6.199   2.688   3.373  0.2772  0.1260 -1.0313
13794TIP3    H162797   6.264   2.756   3.394 -0.5425  0.9393 -1.0379
13794TIP3    H262798   6.150   2.676   3.455  0.9846 -1.1152 -0.7750
13795TIP3   OH262799   1.031   3.864  11.199 -0.4626 -0.1311  0.4158
13795TIP3    H162800   1.043   3.951  11.163  0.7986 -0.3171  0.3238
13795TIP3    H262801   1.117   3.841  11.236 -0.5048 -1.6829 -0.3560
13796TIP3   OH262802   3.774   2.020  15.949 -0.1729 -0.2254 -0.2429
13796TIP3    H162803   3.826   2.021  16.030  1.0657 -1.2752 -0.9811
13796TIP3    H262804   3.804   2.097  15.901  0.2181 -0.4444 -0.3591
13797TIP3   OH262805   5.189   6.691   4.446 -0.1644 -0.2380  0.1891
13797TIP3    H162806   5.140   6.722   4.370  0.0392  0.9195  0.5136
13797TIP3    H262807   5.273   6.663   4.410  0.2384  1.0574  0.0679
13798TIP3   OH262808   3.929   2.499  11.129 -0.0743 -0.6094 -0.0289
13798TIP3    H162809   3.847   2.541  11.101  0.2192  0.6298  0.9011
13798TIP3    H262810   3.964   2.460  11.049 -0.3302  1.0135 -0.9823
13799TIP3   OH262811   5.471   1.389   4.174 -0.3689 -0.2823 -0.1991
13799TIP3    H162812   5.447   1.319   4.113  0.3327 -0.0363 -0.7605
13799TIP3    H262813   5.560   1.368   4.201 -0.2095  0.3101 -0.2496
13800TIP3   OH262814   0.501   0.614  13.386  0.6330 -0.2305  1.0361
13800TIP3    H162815   0.588   0.582  13.362  0.5791 -0.4885  1.1825
13800TIP3    H262816   0.478   0.565  13.465  1.0871  1.0894  2.0220
13801TIP3   OH262817   1.556   5.754   1.974  0.4951  0.5031 -0.3680
13801TIP3    H162818   1.581   5.791   1.889 -1.2769  0.5038 -0.9259
13801TIP3    H262819   1.596   5.667   1.974  1.6447  1.0026 -0.5913
13802TIP3   OH262820   1.659   0.539  13.588  0.4870 -0.0294  0.6659
13802TIP3    H162821   1.703   0.568  13.668  0.6272 -0.2797  0.6802
13802TIP3    H262822   1.574   0.582  13.591  1.1220  1.3545  0.0914
13803TIP3   OH262823   1.074   3.926  12.788  0.4352 -0.5558 -0.4724
13803TIP3    H162824   0.992   3.922  12.838  0.9848 -1.5496  0.3858
13803TIP3    H262825   1.049   3.969  12.707 -0.4564  1.2286  0.6824
13804TIP3   OH262826   5.134   4.174   0.278 -0.6706  0.0812 -0.3254
13804TIP3    H162827   5.168   4.093   0.240  1.0546  1.7688 -2.7290
13804TIP3    H262828   5.207   4.236   0.269 -2.2718  2.1666  0.4282
13805TIP3   OH262829   0.912   5.018   3.586  0.2380  0.4550  0.4516
13805TIP3    H162830   0.952   5.103   3.604 -2.4951  1.9994 -0.2033
13805TIP3    H262831   0.854   5.001   3.661  0.8559 -0.9467  0.6527
13806TIP3   OH262832   4.439   2.069  16.270 -0.0510 -0.1048  0.2667
13806TIP3    H162833   4.464   2.162  16.268  0.7399 -0.3170  0.0253
13806TIP3    H262834   4.512   2.024  16.228 -1.0696 -0.7064 -0.9072
13807TIP3   OH262835   1.391   3.300  14.170  0.1387  0.0026  0.0620
13807TIP3    H162836   1.401   3.356  14.093 -0.2232 -0.5593 -0.3963
13807TIP3    H262837   1.343   3.224  14.139  1.2400 -0.9135  0.5304
13808TIP3   OH262838   2.277   3.079   5.076  0.2634 -0.3488  0.4396
13808TIP3    H162839   2.221   3.002   5.073 -0.4389  0.0935  1.4403
13808TIP3    H262840   2.287   3.097   5.170  0.5611  0.6591  0.2273
13809TIP3   OH262841   1.190   1.955  12.101  0.1139  0.2216 -0.2081
13809TIP3    H162842   1.259   1.988  12.158 -0.5209  0.9416  0.1762
13809TIP3    H262843   1.109   1.985  12.143 -0.3941  0.0784 -1.0632
13810TIP3   OH262844   3.827   3.403   3.944 -0.2004  0.8087  0.3859
13810TIP3    H162845   3.892   3.468   3.916  0.6085 -0.2134 -0.1657
13810TIP3    H262846   3.878   3.324   3.962 -1.2964 -0.0488 -0.1714
13811TIP3   OH262847   5.744   6.111   3.792  0.1227 -0.6416 -0.2201
13811TIP3    H162848   5.694   6.031   3.809  0.1339 -0.1137  2.8765
13811TIP3    H262849   5.833   6.080   3.776  0.4936 -1.2780  2.6141
13812TIP3   OH262850   6.136   4.054   5.059  0.2446 -0.4605  0.1252
13812TIP3    H162851   6.049   4.053   5.098  0.4805 -2.8347  0.7794
13812TIP3    H262852   6.189   4.105   5.121 -0.9349  2.3965 -1.0959
13813TIP3   OH262853   0.796   6.752   3.524  0.6054 -0.2565 -0.0915
13813TIP3    H162854   0.764   6.662   3.530  2.5678 -1.0690 -0.8793
13813TIP3    H262855   0.832   6.770   3.611  0.2216 -0.2175  0.0639
13814TIP3   OH262856   5.657   3.938   5.347  0.3488 -0.5959 -0.5379
13814TIP3    H162857   5.743   3.899   5.328  0.2274  0.0273 -2.5945
13814TIP3    H262858   5.607   3.866   5.385  1.3381 -1.3632 -0.6359
13815TIP3   OH262859   3.156   6.741   2.794 -0.3081  0.6950 -0.1432
13815TIP3    H162860   3.205   6.720   2.874 -0.7177  2.8254  0.7640
13815TIP3    H262861   3.199   6.819   2.759 -0.4265  0.0671 -1.7713
13816TIP3   OH262862   1.544   0.480  16.797 -0.3933  0.0154 -0.1856
13816TIP3    H162863   1.616   0.506  16.854 -0.3114  0.2777 -0.4033
13816TIP3    H262864   1.586   0.428  16.729 -0.5023 -0.3655  0.0389
13817TIP3   OH262865   5.556   4.952  16.107 -0.5434  0.0867  0.3515
13817TIP3    H162866   5.532   5.036  16.145  0.5715  0.1932  0.8377
13817TIP3    H262867   5.555   4.967  16.013 -2.1998  0.1270  0.3513
13818TIP3   OH262868   2.993   2.672   4.842 -0.1707  0.2891  0.3041
13818TIP3    H162869   2.948   2.680   4.758 -2.5973 -1.8410  1.2461
13818TIP3    H262870   3.061   2.606   4.826 -1.3948 -1.0044  0.2223
13819TIP3   OH262871   2.860   2.303  13.525  0.2431  0.0856 -0.2354
13819TIP3    H162872   2.893   2.244  13.457 -1.7614  1.5625 -2.6363
13819TIP3    H262873   2.766   2.283  13.531  0.5439 -1.0428  3.3137
13820TIP3   OH262874   2.889   3.855   6.142  0.1329 -0.4009 -0.0988
13820TIP3    H162875   2.924   3.798   6.210 -1.6113 -0.8040  0.5294
13820TIP3    H262876   2.933   3.938   6.155 -0.3508 -0.3842  1.7534
13821TIP3   OH262877   5.881   6.259  16.809  0.0248  0.0173 -0.0723
13821TIP3    H162878   5.913   6.349  16.821  1.5787 -0.3574 -1.1806
13821TIP3    H262879   5.939   6.205  16.863 -0.8388 -0.3645  0.5053
13822TIP3   OH262880   3.942   6.282   0.064 -0.2626  0.3808  0.0042
13822TIP3    H162881   3.969   6.336   0.138 -0.1437  0.2343  0.0675
13822TIP3    H262882   3.982   6.197   0.081 -2.5364 -0.5331  1.2808
13823TIP3   OH262883   6.213   6.522  11.506 -0.7792  0.6942 -0.4539
13823TIP3    H162884   6.172   6.601  11.472  0.4290  1.1387 -0.9466
13823TIP3    H262885   6.307   6.539  11.498 -0.4613  0.1552  1.6165
13824TIP3   OH262886   4.227   6.527   6.263  0.2593 -0.5442 -0.0871
13824TIP3    H162887   4.228   6.431   6.271  2.6999 -0.4733  1.4155
13824TIP3    H262888   4.136   6.548   6.240 -0.3097 -3.2079 -0.6164
13825TIP3   OH262889   2.899   6.682   2.732 -0.5941  0.1634 -0.2692
13825TIP3    H162890   2.988   6.710   2.751 -1.1540  0.2525  2.8161
13825TIP3    H262891   2.895   6.591   2.761 -1.0420 -0.4888 -2.2332
13826TIP3   OH262892   1.513   1.298   3.992  0.2886  0.1830  0.3913
13826TIP3    H162893   1.536   1.228   4.053  1.5014  0.1376 -0.1005
13826TIP3    H262894   1.504   1.255   3.907 -0.4553  0.3982  0.3518
13827TIP3   OH262895   4.903   4.218  11.360  0.4585  0.0357 -0.3016
13827TIP3    H162896   4.814   4.196  11.333  0.4808  0.6370 -0.9008
13827TIP3    H262897   4.956   4.143  11.331 -0.1219 -1.3097  1.9152
13828TIP3   OH262898   5.815   2.663   1.773  0.2142  0.1645  0.1442
13828TIP3    H162899   5.881   2.611   1.819  0.2865  0.0050 -0.1374
13828TIP3    H262900   5.828   2.752   1.805 -0.5415 -0.1257  1.3755
13829TIP3   OH262901   6.789   4.937  11.476 -0.0921 -0.3254 -0.2008
13829TIP3    H162902   6.728   4.943  11.549  0.9882 -0.8037  0.7766
13829TIP3    H262903   6.753   4.994  11.409 -1.5094 -0.4659  0.4108
13830TIP3   OH262904   5.798   0.647  13.572 -0.3521 -0.0334 -0.0213
13830TIP3    H162905   5.817   0.677  13.661 -0.2610  0.2784 -0.1432
13830TIP3    H262906   5.714   0.602  13.579  0.1641 -0.9431  0.4196
13831TIP3   OH262907   1.445   3.132   2.569 -0.0125 -0.5179  0.4994
13831TIP3    H162908   1.481   3.072   2.634 -2.7251  0.3649  3.0093
13831TIP3    H262909   1.382   3.186   2.617  0.0828  2.3538 -2.2430
13832TIP3   OH262910   4.799   2.585   6.154 -0.3831  0.0900  0.1114
13832TIP3    H162911   4.782   2.508   6.208  1.8259  0.6298  1.7523
13832TIP3    H262912   4.865   2.556   6.090  0.9935  0.6965  1.1862
13833TIP3   OH262913   2.359   3.755  13.857  0.0126 -0.5752 -0.1803
13833TIP3    H162914   2.304   3.678  13.840 -0.1924  0.0425 -2.7392
13833TIP3    H262915   2.339   3.815  13.785  1.1988  1.3117  0.9793
13834TIP3   OH262916   3.646   2.679   2.797  0.0999 -0.4461 -0.0247
13834TIP3    H162917   3.565   2.669   2.747  0.6992 -1.1490 -0.8839
13834TIP3    H262918   3.635   2.621   2.872  0.1604 -1.2330 -0.6116
13835TIP3   OH262919   5.499   4.144   2.794 -0.0405 -0.5819  0.4548
13835TIP3    H162920   5.540   4.154   2.708  1.3847  0.4770  1.2055
13835TIP3    H262921   5.471   4.053   2.796  0.9735 -0.9597 -0.6857
13836TIP3   OH262922   2.892   4.846  16.629 -0.2313  0.1916  0.2619
13836TIP3    H162923   2.979   4.857  16.668 -0.6197 -1.4848  1.7273
13836TIP3    H262924   2.905   4.868  16.537  1.1885  2.2877  0.8903
13837TIP3   OH262925   6.374   3.615  10.265  0.5597 -0.5752  0.0355
13837TIP3    H162926   6.405   3.562  10.192  0.2337  0.5042 -0.9064
13837TIP3    H262927   6.453   3.656  10.300  1.0211 -2.6708  1.6439
13838TIP3   OH262928   2.937   2.111  15.480 -0.0205  0.3978 -0.1177
13838TIP3    H162929   2.976   2.112  15.392  0.2706 -0.2820 -0.0002
13838TIP3    H262930   2.893   2.026  15.485  0.4228  0.2026  0.5960
13839TIP3   OH262931   2.871   2.408   3.164  0.4431 -0.4356  0.4778
13839TIP3    H162932   2.936   2.424   3.095 -1.3415  0.6338 -1.0527
13839TIP3    H262933   2.855   2.495   3.202  1.2705 -0.9786  2.2172
13840TIP3   OH262934   2.575   5.439   1.289 -0.1930  0.7228  0.1788
13840TIP3    H162935   2.556   5.356   1.246 -0.7602  1.0167 -0.1607
13840TIP3    H262936   2.647   5.420   1.349 -0.1637  0.0444 -0.0665
13841TIP3   OH262937   5.408   2.818   5.621 -0.5342 -0.1985 -0.1577
13841TIP3    H162938   5.474   2.870   5.575 -1.2180 -0.7559 -1.8288
13841TIP3    H262939   5.409   2.853   5.711  1.6763  0.1110 -0.2437
13842TIP3   OH262940   0.392   5.315  14.826 -0.2595 -0.4287 -0.0577
13842TIP3    H162941   0.299   5.320  14.803 -0.6801 -0.9990  1.4430
13842TIP3    H262942   0.399   5.357  14.911  1.0697  0.5955 -0.6372
13843TIP3   OH262943   2.924   2.131   2.385 -0.0131 -0.2478  0.2346
13843TIP3    H162944   2.857   2.198   2.378  1.5053  1.3031 -0.3903
13843TIP3    H262945   2.932   2.095   2.296  3.2492  3.0916 -1.1263
13844TIP3   OH262946   1.089   4.820   1.634 -0.3376 -0.1961 -0.2407
13844TIP3    H162947   1.144   4.816   1.556  0.1530 -0.6196  0.1263
13844TIP3    H262948   1.130   4.887   1.689  1.0840 -1.9838  0.9824
13845TIP3   OH262949   1.921   1.311   2.829 -0.0717 -0.0181 -0.2529
13845TIP3    H162950   1.879   1.284   2.911  0.3602  2.0180  0.7061
13845TIP3    H262951   1.858   1.371   2.789  0.5408  0.5049 -0.4422
13846TIP3   OH262952   2.091   5.432   0.844 -0.8379 -0.0096  0.2425
13846TIP3    H162953   2.060   5.483   0.769 -0.0079 -1.2617 -1.0161
13846TIP3    H262954   2.184   5.453   0.850 -0.0996 -2.3370 -1.2488
13847TIP3   OH262955   3.737   0.867  13.643  0.0325 -0.0412 -0.3260
13847TIP3    H162956   3.742   0.823  13.728  0.8722 -0.6003 -0.6484
13847TIP3    H262957   3.650   0.907  13.641  0.1280  0.2370  0.9184
13848TIP3   OH262958   6.509   5.581  15.524  0.3938  0.1249  0.2169
13848TIP3    H162959   6.443   5.564  15.591  0.9558 -2.3287  0.2403
13848TIP3    H262960   6.590   5.545  15.560  1.1992  0.7620 -0.8819
13849TIP3   OH262961   4.035   5.413  12.759 -0.0028 -0.1504  0.5358
13849TIP3    H162962   4.059   5.505  12.768 -2.1750  0.3417  2.2600
13849TIP3    H262963   4.092   5.367  12.819  0.3724  0.2136  0.4621
13850TIP3   OH262964   4.496   1.425   3.555 -0.0586 -0.0726 -0.2104
13850TIP3    H162965   4.541   1.356   3.505 -0.8165  1.0001 -2.4877
13850TIP3    H262966   4.564   1.491   3.570  0.1273 -0.3193  0.0680
13851TIP3   OH262967   1.839   0.903  16.404 -0.4609 -0.3038 -0.2893
13851TIP3    H162968   1.816   0.848  16.329  0.5821 -0.0408 -0.8241
13851TIP3    H262969   1.891   0.974  16.366 -1.2905  0.7339  0.4727
13852TIP3   OH262970   2.426   1.968   3.887  0.5105  0.4131  0.0295
13852TIP3    H162971   2.486   1.902   3.853  0.3341 -0.0265  0.5462
13852TIP3    H262972   2.379   2.001   3.810  2.7474  2.1712 -0.6815
13853TIP3   OH262973   1.406   3.735   1.816  0.2466  0.0685  0.5719
13853TIP3    H162974   1.372   3.824   1.826 -0.4301 -0.2582  1.2272
13853TIP3    H262975   1.483   3.733   1.872  0.5547  0.3874  0.1676
13854TIP3   OH262976   0.337   4.847   3.472 -0.0410  0.1526 -0.4508
13854TIP3    H162977   0.265   4.901   3.439  0.5649  1.1105 -0.2598
13854TIP3    H262978   0.365   4.891   3.553  0.2369 -0.6568 -0.0927
13855TIP3   OH262979   2.571   3.652  15.053  0.4060  0.5732  0.1977
13855TIP3    H162980   2.524   3.616  14.977  1.4326  0.5212 -0.4332
13855TIP3    H262981   2.608   3.734  15.021  2.1008 -0.1720  0.1728
13856TIP3   OH262982   4.438   6.129  16.561  0.4838  0.5108  0.8589
13856TIP3    H162983   4.476   6.050  16.520 -3.1553 -0.1926 -1.5929
13856TIP3    H262984   4.387   6.095  16.635  0.4947  0.8538  1.0270
13857TIP3   OH262985   0.668   5.712   4.149 -0.0793  0.3047 -0.1417
13857TIP3    H162986   0.634   5.660   4.222  2.0876 -0.5550  0.3455
13857TIP3    H262987   0.627   5.675   4.071 -2.0919  0.9431  0.5570
13858TIP3   OH262988   4.136   5.894  14.071 -0.0991 -0.5319 -0.3336
13858TIP3    H162989   4.196   5.887  14.146 -0.3431  1.5840  0.1391
13858TIP3    H262990   4.052   5.865  14.105 -0.0804 -0.1471  0.0620
13859TIP3   OH262991   3.704   1.204   0.518 -0.4142  0.0256  0.0226
13859TIP3    H162992   3.761   1.145   0.568 -0.1351  0.2235 -0.0579
13859TIP3    H262993   3.751   1.217   0.435 -0.7966 -0.1769 -0.2321
13860TIP3   OH262994   3.868   4.680   6.001  0.0280 -0.0481 -0.5811
13860TIP3    H162995   3.955   4.657   6.033  0.7949  3.6173  0.4882
13860TIP3    H262996   3.822   4.712   6.078 -0.7647  1.8633 -1.7621
13861TIP3   OH262997   0.992   3.989   4.991 -0.3791  0.6613 -0.3788
13861TIP3    H162998   0.934   4.058   5.022 -0.5067  0.0207  0.8851
13861TIP3    H262999   0.937   3.934   4.935 -0.9398  0.2438  0.5490
13862TIP3   OH263000   1.228   1.601  12.675  0.9604  0.2511 -0.4541
13862TIP3    H163001   1.236   1.511  12.706  2.9452  0.5228 -0.0719
13862TIP3    H263002   1.140   1.605  12.636  1.7228 -2.5342 -2.7365
13863TIP3   OH263003   5.991   6.353   1.053 -0.0920  0.5494 -0.2998
13863TIP3    H163004   6.086   6.348   1.041  0.0683  0.2546  0.9768
13863TIP3    H263005   5.955   6.318   0.971  0.8914  0.3755 -0.6788
13864TIP3   OH263006   0.704   2.567  15.570  0.5039  0.5174 -0.2215
13864TIP3    H163007   0.678   2.647  15.523 -0.3968  0.7153  0.5996
13864TIP3    H263008   0.663   2.496  15.520 -0.1030  0.6954  0.0192
13865TIP3   OH263009   6.135   1.677   4.663 -0.0030 -0.9173 -0.3202
13865TIP3    H163010   6.100   1.765   4.675 -0.3609 -0.9825 -0.8573
13865TIP3    H263011   6.143   1.642   4.752  0.6957 -0.1362 -0.0636
13866TIP3   OH263012   6.397   3.588  12.459  0.0389  0.3844  0.8504
13866TIP3    H163013   6.314   3.636  12.468 -0.2044  0.1763 -0.1632
13866TIP3    H263014   6.384   3.508  12.510 -0.0723  0.7328  1.3816
13867TIP3   OH263015   3.229   2.188   3.623 -0.4853 -0.3553  0.2898
13867TIP3    H163016   3.142   2.225   3.607 -0.3999 -0.2509  0.0627
13867TIP3    H263017   3.279   2.210   3.545  0.4126  1.5671  1.3330
13868TIP3   OH263018   1.370   6.312  14.652  0.0973 -0.0997 -0.2322
13868TIP3    H163019   1.460   6.279  14.660  0.8956  1.8333 -0.6980
13868TIP3    H263020   1.339   6.321  14.742  0.5688 -0.2756 -0.0512
13869TIP3   OH263021   1.976   5.846   1.459  0.2138  0.1168  0.1340
13869TIP3    H163022   1.913   5.832   1.388  1.0012 -0.8272 -0.4120
13869TIP3    H263023   2.061   5.839   1.416  0.6953 -0.0811  1.1086
13870TIP3   OH263024   6.409   4.994   1.558 -0.0967 -0.0746  0.7025
13870TIP3    H163025   6.418   5.002   1.653 -0.7405  1.1112  0.6882
13870TIP3    H263026   6.339   5.055   1.536 -0.2110 -0.6117 -0.4995
13871TIP3   OH263027   2.998   6.021  14.486 -0.1263 -0.3122  0.4440
13871TIP3    H163028   2.918   6.071  14.501 -0.6126 -1.1160  0.5910
13871TIP3    H263029   2.972   5.950  14.428  0.7458  0.0853 -0.4657
13872TIP3   OH263030   3.842   5.220   2.035  0.5656 -0.6222 -0.2820
13872TIP3    H163031   3.767   5.274   2.010  2.0332  2.2944  0.9994
13872TIP3    H263032   3.817   5.180   2.118  0.9923  1.9704  1.2070
13873TIP3   OH263033   4.480   1.974   0.935 -0.4070  0.0318  0.7319
13873TIP3    H163034   4.433   1.950   1.015  0.3799  0.0247  1.1942
13873TIP3    H263035   4.569   1.944   0.950 -0.6031 -1.5251 -0.8243
13874TIP3   OH263036   1.785   2.009   0.422 -0.3414  0.1131 -0.1183
13874TIP3    H163037   1.737   2.083   0.459 -1.0526 -0.3636 -0.0678
13874TIP3    H263038   1.746   1.932   0.464  1.1098 -0.2422  0.6436
13875TIP3   OH263039   4.370   1.029  13.552  0.6658  0.1065 -0.3493
13875TIP3    H163040   4.318   0.969  13.498 -0.2385  0.8739 -0.3488
13875TIP3    H263041   4.317   1.043  13.630 -0.1071  2.4762 -1.2195
13876TIP3   OH263042   4.391   0.285   3.789  0.0618 -0.6195  0.4063
13876TIP3    H163043   4.364   0.312   3.701 -1.8549 -0.2914  1.0656
13876TIP3    H263044   4.481   0.316   3.796  1.2891 -2.9737 -2.3932
13877TIP3   OH263045   4.384   0.432   2.136 -0.0953  0.3892 -0.1570
13877TIP3    H163046   4.375   0.413   2.043 -2.7233 -1.3696  0.3528
13877TIP3    H263047   4.457   0.376   2.165 -2.4465 -3.0789 -0.3073
13878TIP3   OH263048   4.257   5.341  14.110  0.1493  0.5768 -0.0023
13878TIP3    H163049   4.180   5.285  14.124  0.2396  0.5940  0.5872
13878TIP3    H263050   4.331   5.287  14.139  0.3706  0.5392 -0.6246
13879TIP3   OH263051   6.539   1.609   0.950  0.4150  0.0136 -0.6676
13879TIP3    H163052   6.588   1.622   1.032  0.9351  0.3969 -1.0358
13879TIP3    H263053   6.518   1.515   0.950 -1.7164  0.4055  1.0895
13880TIP3   OH263054   1.431   3.681   0.432  0.2840 -0.6688  0.0112
13880TIP3    H163055   1.398   3.591   0.422 -0.4141 -0.3486 -0.6289
13880TIP3    H263056   1.355   3.732   0.459  0.1266  0.1556 -1.8639
13881TIP3   OH263057   6.355   3.885   6.124  0.8008 -0.4606 -0.4192
13881TIP3    H163058   6.440   3.878   6.080  0.4909 -0.9499 -0.9531
13881TIP3    H263059   6.319   3.796   6.121  0.2614 -0.2508 -0.2120
13882TIP3   OH263060   2.672   3.661  14.642 -0.6361 -0.4011  0.0483
13882TIP3    H163061   2.716   3.581  14.611  0.4658  0.4866 -0.7385
13882TIP3    H263062   2.646   3.640  14.732 -0.3399 -1.6275 -0.1230
13883TIP3   OH263063   4.053   4.685  12.060 -0.6961  0.0331 -0.2492
13883TIP3    H163064   4.005   4.604  12.077  0.4903 -0.2833  2.0142
13883TIP3    H263065   4.130   4.659  12.010  0.0097 -0.4045  1.0055
13884TIP3   OH263066   1.916   2.099  15.037 -0.4103 -0.4857 -0.1899
13884TIP3    H163067   1.962   2.141  15.111 -0.6160  0.4221 -0.5577
13884TIP3    H263068   1.828   2.082  15.070 -0.1610 -1.1451  0.1411
13885TIP3   OH263069   6.107   1.676   3.758  0.0394 -0.0262 -0.5357
13885TIP3    H163070   6.150   1.593   3.775  1.8753  1.2630  1.8245
13885TIP3    H263071   6.062   1.697   3.840 -2.3759  0.2622 -1.8593
13886TIP3   OH263072   2.242   3.074   1.902  0.1366 -0.0272 -0.4978
13886TIP3    H163073   2.327   3.040   1.874  0.3888 -1.0320  1.3376
13886TIP3    H263074   2.202   3.002   1.952 -1.3959  0.7527 -0.5310
13887TIP3   OH263075   4.197   0.604   2.237  0.0818 -0.5642 -0.1598
13887TIP3    H163076   4.253   0.537   2.197  0.1311 -0.0377 -1.0015
13887TIP3    H263077   4.219   0.685   2.191 -0.9829 -0.2370 -0.1367
13888TIP3   OH263078   5.759   4.218  14.657  0.2016  0.1296 -0.1362
13888TIP3    H163079   5.825   4.180  14.600 -0.5548  0.4166 -1.2400
13888TIP3    H263080   5.729   4.145  14.711  0.8663 -0.1649 -0.1530
13889TIP3   OH263081   1.160   5.858  13.489 -0.0868  0.0161  0.1037
13889TIP3    H163082   1.211   5.928  13.529 -0.6600  0.6853 -0.3197
13889TIP3    H263083   1.209   5.835  13.410 -0.5045  0.7838 -0.3993
13890TIP3   OH263084   3.886   2.298   5.225 -0.1086 -0.3963 -0.0740
13890TIP3    H163085   3.869   2.220   5.279 -2.2147 -0.1065 -0.2479
13890TIP3    H263086   3.855   2.371   5.278  3.8631  0.6988  1.0493
13891TIP3   OH263087   2.315   0.051  15.949  0.1361 -0.7423  0.5837
13891TIP3    H163088   2.239   0.001  15.921 -0.3130 -0.3555  1.0801
13891TIP3    H263089   2.283   0.140  15.958  0.9681 -0.3294 -0.4362
13892TIP3   OH263090   2.092   4.843   2.897 -0.4311 -0.0470  0.2507
13892TIP3    H163091   2.065   4.921   2.848  2.3708  2.0181  1.7105
13892TIP3    H263092   2.173   4.815   2.855 -0.3005 -0.9146  1.0488
13893TIP3   OH263093   1.871   5.883  13.078  0.0552 -0.0351 -0.3172
13893TIP3    H163094   1.923   5.932  13.141 -0.6325  0.1245  0.1381
13893TIP3    H263095   1.931   5.864  13.006  0.5390  0.7642 -0.1269
13894TIP3   OH263096   1.586   3.779  12.336 -0.0520 -0.1964 -0.4424
13894TIP3    H163097   1.494   3.801  12.326  0.2529  1.2009 -0.3695
13894TIP3    H263098   1.603   3.785  12.430  0.1482 -0.3154 -0.4682
13895TIP3   OH263099   2.238   4.674   2.252 -0.2173 -0.0238 -0.1584
13895TIP3    H163100   2.279   4.675   2.165  0.3084 -1.5047  0.0594
13895TIP3    H263101   2.144   4.665   2.233 -0.0341 -1.2542 -0.5750
13896TIP3   OH263102   3.374   6.571  13.033  0.4871 -0.2427  0.0114
13896TIP3    H163103   3.370   6.666  13.043 -0.1247 -0.2467 -0.1764
13896TIP3    H263104   3.450   6.545  13.086  0.4155  0.3037  0.3887
13897TIP3   OH263105   6.637   1.271   2.946  0.7951  0.0088 -0.7091
13897TIP3    H163106   6.631   1.177   2.933 -1.9337  0.2547 -1.9483
13897TIP3    H263107   6.564   1.292   3.003  1.7267  1.3459  0.0587
13898TIP3   OH263108   5.736   6.155  16.234  0.0325  0.3791  0.2527
13898TIP3    H163109   5.814   6.174  16.286 -1.0563  0.0415  2.1174
13898TIP3    H263110   5.695   6.080  16.279 -2.0692  1.3940  0.1719
13899TIP3   OH263111   5.448   6.236  13.223 -0.2831  0.2248  0.4216
13899TIP3    H163112   5.443   6.217  13.316  0.9802 -2.2276  0.0908
13899TIP3    H263113   5.383   6.178  13.183  0.7969 -0.4909 -0.3700
13900TIP3   OH263114   5.846   6.459   0.182 -1.1815  0.0336 -0.0691
13900TIP3    H163115   5.894   6.509   0.117 -0.0314 -0.6036  0.2626
13900TIP3    H263116   5.776   6.416   0.133  1.2677 -2.6712 -1.5328
13901TIP3   OH263117   3.237   4.484  16.035 -0.0832 -0.3636  0.5563
13901TIP3    H163118   3.196   4.520  16.114 -1.8406  0.0439 -0.4869
13901TIP3    H263119   3.273   4.560  15.990  2.0466 -0.7254  1.5038
13902TIP3   OH263120   2.031   0.602  10.865 -0.0142  0.2191  0.0258
13902TIP3    H163121   1.970   0.579  10.794 -0.8487 -0.5582  0.9747
13902TIP3    H263122   2.069   0.519  10.893  0.6276  0.5722  0.2231
13903TIP3   OH263123   1.988   4.378   2.986  0.0493 -0.8047  0.2164
13903TIP3    H163124   2.071   4.330   2.993 -0.9090 -2.6971 -0.4376
13903TIP3    H263125   1.992   4.419   2.900  0.0740 -1.4285 -0.0910
13904TIP3   OH263126   0.539   6.049  13.402  0.2998  0.2311 -0.0810
13904TIP3    H163127   0.448   6.021  13.395  0.1397  0.5562  0.6229
13904TIP3    H263128   0.587   5.970  13.428 -0.1079  0.5089  1.6234
13905TIP3   OH263129   0.146   0.774   1.029 -0.2714 -0.0736  0.1601
13905TIP3    H163130   0.132   0.866   1.049 -0.4344  0.2039 -1.1015
13905TIP3    H263131   0.235   0.756   1.058 -0.4690  0.2904  1.0242
13906TIP3   OH263132   6.504   2.376  14.352  0.4648 -0.2863 -0.1772
13906TIP3    H163133   6.526   2.469  14.354  0.0804 -0.2000  0.0940
13906TIP3    H263134   6.430   2.367  14.413 -0.7465 -0.4404 -1.6090
13907TIP3   OH263135   6.080   5.769   5.700 -0.1507  0.0880 -0.2606
13907TIP3    H163136   6.047   5.849   5.742  0.5812  1.7713 -2.6485
13907TIP3    H263137   6.175   5.779   5.704 -0.0638 -0.2979 -1.1907
13908TIP3   OH263138   3.326   2.404   4.250  0.1396  0.0200 -0.1327
13908TIP3    H163139   3.379   2.441   4.320 -0.6462  0.2233  0.3749
13908TIP3    H263140   3.257   2.355   4.295 -0.2934  0.0294 -0.7590
13909TIP3   OH263141   4.335   2.857   6.674 -0.5973 -0.5721 -0.1799
13909TIP3    H163142   4.409   2.859   6.613  0.9745 -1.4649  1.5817
13909TIP3    H263143   4.314   2.950   6.688 -0.9757 -0.3502 -2.0002
13910TIP3   OH263144   0.497   5.044  13.144 -0.0172  0.7099 -0.0941
13910TIP3    H163145   0.557   5.116  13.163 -0.1540  0.7288  0.2730
13910TIP3    H263146   0.552   4.977  13.105 -0.2009  1.7414 -2.2912
13911TIP3   OH263147   1.886   1.421   3.147 -0.4303 -0.9558  0.2616
13911TIP3    H163148   1.920   1.369   3.220 -0.1915 -1.0393  0.0923
13911TIP3    H263149   1.810   1.373   3.116  0.3457 -1.7219 -0.5172
13912TIP3   OH263150   0.411   6.804   1.899  0.3461 -0.2345  0.0606
13912TIP3    H163151   0.460   6.880   1.931  1.5340 -1.4973  1.3540
13912TIP3    H263152   0.437   6.796   1.807 -1.0939  1.8836 -0.5956
13913TIP3   OH263153   0.061   4.724  16.293 -0.4975 -0.3230 -0.4707
13913TIP3    H163154   0.024   4.758  16.374  1.2292 -1.3722  0.8275
13913TIP3    H263155   0.149   4.695  16.317  0.2519 -0.2084 -2.8479
13914TIP3   OH263156   3.264   3.830  13.945  0.0714  0.3970 -0.3429
13914TIP3    H163157   3.300   3.833  14.034 -1.1217 -0.3784  0.1854
13914TIP3    H263158   3.247   3.922  13.924 -1.7025  0.4654  1.1232
13915TIP3   OH263159   0.352   1.696   0.473 -0.4447 -0.3859  0.1410
13915TIP3    H163160   0.413   1.730   0.407  2.2202 -1.1987  2.0191
13915TIP3    H263161   0.409   1.659   0.541 -3.0988 -1.8641  1.7003
13916TIP3   OH263162   5.441   1.224   5.919  0.3130 -0.0324 -0.1229
13916TIP3    H163163   5.447   1.314   5.889  1.1241  0.0650  0.2823
13916TIP3    H263164   5.388   1.179   5.853 -1.5038  1.0775  0.5096
13917TIP3   OH263165   6.450   6.425   4.426  0.7698  0.0438  0.5500
13917TIP3    H163166   6.379   6.368   4.456  1.5515 -0.4363  1.5267
13917TIP3    H263167   6.500   6.371   4.364 -0.8985  1.0624 -1.8527
13918TIP3   OH263168   4.481   6.399   4.792 -0.1280 -0.0059  0.4390
13918TIP3    H163169   4.416   6.329   4.794  2.2559 -2.4106 -0.0250
13918TIP3    H263170   4.524   6.390   4.707  2.3464 -0.0815  1.5946
13919TIP3   OH263171   5.846   1.975  16.882 -0.1667  0.1648 -0.5920
13919TIP3    H163172   5.757   1.997  16.910  0.0559 -0.6768  0.8473
13919TIP3    H263173   5.902   2.034  16.931  0.3357 -2.3672  2.1615
13920TIP3   OH263174   6.393   6.035  12.000 -0.7120  0.4118  0.8447
13920TIP3    H163175   6.347   6.111  12.036 -1.0458  0.7075 -0.1776
13920TIP3    H263176   6.448   6.005  12.072 -0.2408  1.8754  1.1360
13921TIP3   OH263177   1.312   0.176  14.492  0.4680  0.2012  0.3372
13921TIP3    H163178   1.218   0.164  14.476  0.2968  0.4629  1.0920
13921TIP3    H263179   1.344   0.088  14.512  0.1839  0.2375  1.0150
13922TIP3   OH263180   0.240   3.279  11.853 -0.2854  0.3382 -0.5422
13922TIP3    H163181   0.190   3.212  11.805  0.5922 -1.2622  0.6661
13922TIP3    H263182   0.319   3.292  11.801 -0.7998  1.0107 -1.1674
13923TIP3   OH263183   2.295   5.435  13.530  0.5409 -0.5246  0.1534
13923TIP3    H163184   2.255   5.373  13.469 -2.0244  1.1449 -0.0307
13923TIP3    H263185   2.388   5.436  13.507  0.0733 -1.7956 -2.0514
13924TIP3   OH263186   5.868   5.048   4.215  0.0969 -0.0194  0.4440
13924TIP3    H163187   5.800   5.095   4.166 -0.0174 -0.6272  0.0087
13924TIP3    H263188   5.826   5.025   4.298 -0.4806 -1.0205 -0.1039
13925TIP3   OH263189   2.612   5.983   3.095  0.2450 -0.0501 -0.0357
13925TIP3    H163190   2.679   5.916   3.083  0.2569 -0.2484  1.0136
13925TIP3    H263191   2.649   6.062   3.056  1.9759  0.3566  2.1849
13926TIP3   OH263192   1.204   0.477   3.392 -0.1176 -0.3063 -0.4620
13926TIP3    H163193   1.204   0.445   3.302 -0.5703 -1.3436 -0.0979
13926TIP3    H263194   1.295   0.467   3.421  0.3586  1.3596 -1.2435
13927TIP3   OH263195   2.677   4.465  14.249 -0.3604  0.0131 -0.5730
13927TIP3    H163196   2.689   4.420  14.333  0.9897 -0.8951 -1.2238
13927TIP3    H263197   2.607   4.416  14.205  1.1433 -1.5650 -1.3030
13928TIP3   OH263198   3.926   3.538   1.435  0.4383 -0.2998  0.0144
13928TIP3    H163199   3.853   3.541   1.498  0.0948  0.3194 -0.4112
13928TIP3    H263200   3.921   3.450   1.397 -0.5415 -0.0185 -0.5389
13929TIP3   OH263201   1.826   6.523  15.826 -0.4525  0.3246 -0.1013
13929TIP3    H163202   1.777   6.554  15.902 -1.0881 -1.1996  0.1464
13929TIP3    H263203   1.758   6.502  15.762 -0.1242 -1.4771  0.1083
13930TIP3   OH263204   6.758   4.350  13.599  0.6422 -0.6020  0.1034
13930TIP3    H163205   6.848   4.378  13.582  0.3000 -0.4585 -1.6423
13930TIP3    H263206   6.712   4.432  13.619  0.2488 -0.1818 -2.2180
13931TIP3   OH263207   5.240   5.583  14.352 -0.6252  0.2373 -0.0817
13931TIP3    H163208   5.306   5.650  14.331  0.4623 -0.6123  0.5586
13931TIP3    H263209   5.262   5.555  14.441 -0.9198 -1.1370 -0.4306
13932TIP3   OH263210   4.855   6.759   2.260 -0.7017 -0.0426  0.2987
13932TIP3    H163211   4.794   6.748   2.332 -1.0811 -2.9123 -0.3207
13932TIP3    H263212   4.823   6.835   2.212 -2.2682  0.0331  1.4022
13933TIP3   OH263213   5.606   6.805   2.792 -0.7316  0.1009 -0.0121
13933TIP3    H163214   5.526   6.781   2.744 -0.4370  1.0681 -1.0401
13933TIP3    H263215   5.627   6.893   2.760  1.6254 -0.7217 -0.9581
13934TIP3   OH263216   2.211   5.926   1.905  0.0146  0.4139 -0.3314
13934TIP3    H163217   2.223   5.873   1.826  0.8009  1.6469 -1.0874
13934TIP3    H263218   2.195   6.015   1.872 -1.0512  0.7034  0.8904
13935TIP3   OH263219   4.314   2.349  12.535 -0.1819  0.4917 -0.1170
13935TIP3    H163220   4.278   2.407  12.602 -1.2266 -1.8640  1.4969
13935TIP3    H263221   4.243   2.340  12.471  0.4420  1.8986 -1.0800
13936TIP3   OH263222   5.658   3.294   1.463 -0.0109  0.1550 -0.2368
13936TIP3    H163223   5.628   3.257   1.547 -1.8783  0.9112 -0.5037
13936TIP3    H263224   5.648   3.222   1.401  1.1484 -0.3370  0.1166
13937TIP3   OH263225   0.808   1.065   4.524 -0.1626  0.9515  0.1807
13937TIP3    H163226   0.774   1.148   4.490 -0.3832  0.3363 -1.1591
13937TIP3    H263227   0.813   1.078   4.618  1.2887  3.0277 -0.1154
13938TIP3   OH263228   6.334   0.439  13.218 -0.1512 -0.1370 -0.2129
13938TIP3    H163229   6.309   0.455  13.127 -1.5931  0.4420  0.2522
13938TIP3    H263230   6.259   0.392  13.255  0.3916 -0.3026  0.6967
13939TIP3   OH263231   0.236   6.773  12.013 -0.4297 -0.5063  0.2243
13939TIP3    H163232   0.298   6.844  12.032  1.8799 -2.2056 -0.5741
13939TIP3    H263233   0.178   6.770  12.089  1.0703  0.5248  1.4446
13940TIP3   OH263234   2.363   2.258  14.344 -0.4624  0.0245  0.1325
13940TIP3    H163235   2.386   2.183  14.399 -1.1391 -0.2214  0.0907
13940TIP3    H263236   2.272   2.277  14.367 -0.7936 -0.1458 -0.9655
13941TIP3   OH263237   3.808   3.299  16.150  0.0886 -0.5693  0.1512
13941TIP3    H163238   3.817   3.389  16.180 -1.1292  0.0686 -1.2518
13941TIP3    H263239   3.877   3.251  16.195  0.8388  1.0878  0.8284
13942TIP3   OH263240   3.648   0.881  15.049 -0.1936  0.2625 -0.4465
13942TIP3    H163241   3.722   0.905  14.993 -2.0722  0.8833 -2.8409
13942TIP3    H263242   3.609   0.964  15.075  0.7709 -0.0143  2.0950
13943TIP3   OH263243   0.495   3.016  11.680  0.2678 -0.0903 -0.0483
13943TIP3    H163244   0.419   2.962  11.703 -0.2559  1.2856  1.6387
13943TIP3    H263245   0.526   3.051  11.763  0.7856  1.9164 -1.0211
13944TIP3   OH263246   4.834   4.222  12.855  0.2655 -0.7086  0.6250
13944TIP3    H163247   4.750   4.239  12.897  0.5295  0.0121  0.8595
13944TIP3    H263248   4.891   4.190  12.926  0.8326  0.8973  0.9263
13945TIP3   OH263249   0.158   3.003  10.954  0.6071 -0.2939 -0.2982
13945TIP3    H163250   0.213   2.948  11.010  0.9371  1.3273  1.0472
13945TIP3    H263251   0.213   3.022  10.878  0.9261 -0.8323 -0.2046
13946TIP3   OH263252   5.678   2.405  13.261  0.2168  0.2367  1.2134
13946TIP3    H163253   5.762   2.433  13.225  0.0715  1.2422  1.6467
13946TIP3    H263254   5.615   2.471  13.232 -1.1992 -2.3152 -2.1668
13947TIP3   OH263255   2.118   1.676   0.979 -0.1714 -0.4650 -0.2455
13947TIP3    H163256   2.030   1.710   0.964 -0.1290  0.0087  0.5524
13947TIP3    H263257   2.177   1.748   0.958  0.0504 -0.8438 -0.9769
13948TIP3   OH263258   0.492   5.768  16.562  0.2390 -0.1244 -0.0218
13948TIP3    H163259   0.409   5.766  16.513  0.1873 -0.2733  0.0712
13948TIP3    H263260   0.498   5.681  16.602  0.1930  0.0561  0.3853
13949TIP3   OH263261   5.780   4.343  12.276 -0.0128 -0.0490 -0.0131
13949TIP3    H163262   5.697   4.296  12.274 -1.2799  2.0667 -0.5806
13949TIP3    H263263   5.817   4.322  12.361 -1.7422 -0.0861  0.7768
13950TIP3   OH263264   1.414   6.652  13.193 -0.2007 -0.2959 -0.5775
13950TIP3    H163265   1.504   6.681  13.205 -0.1443 -1.2538  1.7461
13950TIP3    H263266   1.418   6.557  13.199 -1.3998 -0.3400 -0.1969
13951TIP3   OH263267   4.495   0.339   4.465 -0.0890 -0.3798 -0.0404
13951TIP3    H163268   4.528   0.378   4.384  0.1669 -1.7229 -0.6102
13951TIP3    H263269   4.534   0.252   4.467 -0.2734 -0.4531  1.4289
13952TIP3   OH263270   5.146   5.302  13.219  0.7157 -0.0236 -0.2003
13952TIP3    H163271   5.119   5.242  13.149  1.9820 -0.0065 -0.7233
13952TIP3    H263272   5.240   5.287  13.229  0.4583 -0.4740  1.9462
13953TIP3   OH263273   1.365   1.074  16.414  0.2242 -0.1186 -0.4201
13953TIP3    H163274   1.421   1.071  16.492 -0.5882 -0.2231  0.1738
13953TIP3    H263275   1.293   1.133  16.439 -0.4755 -0.8077 -0.7926
13954TIP3   OH263276   4.479   1.207   4.907  0.2568 -0.0271  0.0046
13954TIP3    H163277   4.482   1.122   4.863  0.0449 -0.3981  0.6876
13954TIP3    H263278   4.521   1.268   4.846  1.3266 -0.8101 -0.0709
13955TIP3   OH263279   4.808   6.567   4.912  0.0216 -0.1877 -0.2314
13955TIP3    H163280   4.895   6.594   4.939 -0.3152 -0.6893  1.4899
13955TIP3    H263281   4.820   6.479   4.876  0.5673  0.7248 -2.4579
13956TIP3   OH263282   2.947   4.779   3.453  0.1556 -0.2540  0.9163
13956TIP3    H163283   2.856   4.787   3.481 -0.6368  1.9373 -1.8331
13956TIP3    H263284   2.998   4.810   3.528 -1.7273  3.7970  0.8259
13957TIP3   OH263285   1.292   2.745   3.680  0.0863  0.6452  0.1945
13957TIP3    H163286   1.384   2.769   3.677 -0.0412  1.5886  2.3173
13957TIP3    H263287   1.248   2.808   3.623  0.5884  1.1181  0.3268
13958TIP3   OH263288   1.728   6.011   1.989  0.8269  0.8006 -0.3277
13958TIP3    H163289   1.806   5.991   2.041  0.4695  1.1927  0.3653
13958TIP3    H263290   1.677   5.931   1.989  0.4531  1.0342  0.5901
13959TIP3   OH263291   2.379   5.746   5.033 -0.0149  0.7127  0.2794
13959TIP3    H163292   2.304   5.803   5.014  1.5327  2.8583  0.3064
13959TIP3    H263293   2.401   5.765   5.124 -1.4625 -2.4721  1.4653
13960TIP3   OH263294   4.010   1.952   1.863 -0.4044  0.2908 -0.3129
13960TIP3    H163295   3.928   1.932   1.910 -0.9198  0.3642 -1.1552
13960TIP3    H263296   3.981   1.996   1.783  0.3673 -0.8375 -1.2478
13961TIP3   OH263297   0.069   1.264  13.695  0.0395 -0.4767  0.2775
13961TIP3    H163298   0.097   1.354  13.709 -1.6756 -0.0859  1.5522
13961TIP3    H263299  -0.014   1.271  13.648  0.3839 -1.4433 -0.5115
13962TIP3   OH263300   4.608   1.547  10.868  0.2920  0.0866  0.0844
13962TIP3    H163301   4.635   1.543  10.776  0.5149  0.5038  0.1310
13962TIP3    H263302   4.524   1.593  10.867 -0.4327 -1.2059 -0.0588
13963TIP3   OH263303   1.123   1.300   5.634 -0.8300 -0.1991 -0.4674
13963TIP3    H163304   1.092   1.265   5.717  2.0816 -0.6005  0.5812
13963TIP3    H263305   1.111   1.394   5.642 -0.3583 -0.2059  0.5660
13964TIP3   OH263306   2.278   3.128   4.493 -0.3006  0.3556 -0.6492
13964TIP3    H163307   2.323   3.068   4.433  1.3235  0.3068  0.5404
13964TIP3    H263308   2.349   3.168   4.544 -1.5348  1.3983  0.3211
13965TIP3   OH263309   3.227   4.115  15.258  0.0455 -0.9761  0.6551
13965TIP3    H163310   3.271   4.170  15.323  2.1532 -0.2323 -1.2366
13965TIP3    H263311   3.299   4.070  15.213 -0.8751  1.0638 -3.3163
13966TIP3   OH263312   3.763   4.184  13.505  0.0262 -0.0677 -0.1476
13966TIP3    H163313   3.845   4.152  13.467  0.2952 -0.4134  0.7032
13966TIP3    H263314   3.720   4.105  13.538  0.6177  0.3867  1.8324
13967TIP3   OH263315   6.051   1.471   1.467 -0.0256 -0.5093  0.0409
13967TIP3    H163316   5.978   1.525   1.499 -0.2131  0.3655 -1.7430
13967TIP3    H263317   6.055   1.398   1.529 -0.9541  0.5906  1.4727
13968TIP3   OH263318   3.184   0.816   0.847  0.2382  0.2821 -0.1841
13968TIP3    H163319   3.203   0.894   0.794  0.7430  0.1827 -0.1528
13968TIP3    H263320   3.257   0.757   0.830  0.3791  0.2253  0.5782
13969TIP3   OH263321   6.717   6.661   6.120  0.9529 -0.1781 -0.1232
13969TIP3    H163322   6.749   6.631   6.205  0.6696  0.1321  0.0927
13969TIP3    H263323   6.656   6.593   6.091 -2.8451  1.9016  2.1775
13970TIP3   OH263324   0.042   2.676  13.175  0.1943  1.0288  0.3230
13970TIP3    H163325  -0.035   2.696  13.123  0.5258  2.4481  0.3277
13970TIP3    H263326   0.108   2.647  13.112  0.2535  1.6990  0.0682
13971TIP3   OH263327   0.300   6.677   0.562 -0.8735  0.3947  0.1341
13971TIP3    H163328   0.362   6.736   0.605  0.3001 -0.2651 -0.6275
13971TIP3    H263329   0.245   6.644   0.634  0.1634  0.3628  0.9352
13972TIP3   OH263330   5.260   1.495  14.517 -0.4580  0.4800  0.1201
13972TIP3    H163331   5.258   1.405  14.485 -1.9287  0.9405 -1.2296
13972TIP3    H263332   5.178   1.534  14.485  0.5362  2.5449 -0.0689
13973TIP3   OH263333   2.930   6.778   5.099 -0.7285 -0.0533 -0.3613
13973TIP3    H163334   2.874   6.820   5.164 -0.2409 -0.7328  0.5149
13973TIP3    H263335   2.976   6.710   5.147 -0.4017 -0.6164 -1.4369
13974TIP3   OH263336   3.773   5.053  11.807  0.0429  0.3592 -0.4146
13974TIP3    H163337   3.844   5.026  11.866 -1.1000 -1.2743  0.2937
13974TIP3    H263338   3.694   5.047  11.861 -0.9232 -0.2763 -1.8451
13975TIP3   OH263339   6.092   1.496   2.606 -0.0192 -0.4863 -0.3234
13975TIP3    H163340   6.138   1.579   2.616  0.3001 -0.5010 -1.5151
13975TIP3    H263341   6.013   1.505   2.658  0.5006  0.1891  0.3567
13976TIP3   OH263342   3.468   1.165   4.654 -0.3171  0.1207 -0.1351
13976TIP3    H163343   3.562   1.176   4.667 -0.2109  2.4261 -2.0551
13976TIP3    H263344   3.457   1.164   4.559 -2.2269 -0.2891  0.0475
13977TIP3   OH263345   3.137   0.106   5.010  0.0489  0.0574 -0.4000
13977TIP3    H163346   3.189   0.052   4.950  0.1461 -1.3536  0.8950
13977TIP3    H263347   3.056   0.056   5.022 -0.9869  1.4812 -1.1667
13978TIP3   OH263348   2.224   2.078  15.146 -0.1498 -0.3486  0.2548
13978TIP3    H163349   2.179   2.057  15.227 -1.4373 -0.0949 -0.3730
13978TIP3    H263350   2.214   2.000  15.091  1.0406 -0.6677  0.4465
13979TIP3   OH263351   1.900   5.624   5.915 -0.1173  0.5056  0.6807
13979TIP3    H163352   1.902   5.563   5.989  0.2545 -0.9064 -0.4507
13979TIP3    H263353   1.809   5.628   5.889 -0.1419  0.4507  0.7570
13980TIP3   OH263354   5.980   1.284  15.965  0.1644  0.3673 -0.1914
13980TIP3    H163355   5.907   1.313  15.911  0.7510  0.5295 -0.9011
13980TIP3    H263356   5.948   1.203  16.006 -0.5412  0.6303 -0.2018
13981TIP3   OH263357   5.709   4.323   3.363  0.8598  0.5274  0.4767
13981TIP3    H163358   5.669   4.252   3.414  1.2425  0.4238  0.6371
13981TIP3    H263359   5.709   4.290   3.273  1.6554  0.0286  0.6442
13982TIP3   OH263360   0.760   4.027  11.944  0.4280  0.1293 -0.3549
13982TIP3    H163361   0.687   4.030  12.006  0.7557 -2.3079  0.2399
13982TIP3    H263362   0.728   4.074  11.867 -1.5171 -0.3167  0.1341
13983TIP3   OH263363   5.537   2.023  14.972  0.2697  0.6216 -0.2484
13983TIP3    H163364   5.468   2.020  15.038  0.9970 -1.2016  0.4955
13983TIP3    H263365   5.616   2.049  15.020  1.0398 -1.7419 -0.0678
13984TIP3   OH263366   6.583   3.226   2.478 -0.0111 -0.0849 -0.3822
13984TIP3    H163367   6.598   3.146   2.428 -0.2912 -1.2251  1.2595
13984TIP3    H263368   6.600   3.201   2.569  3.5550  2.6444 -0.0790
13985TIP3   OH263369   1.878   0.228  16.958 -0.0951 -0.1495  0.6188
13985TIP3    H163370   1.951   0.227  16.896  0.3230  0.6737  1.0956
13985TIP3    H263371   1.866   0.136  16.982  0.6908 -0.3087  0.4296
13986TIP3   OH263372   4.827   0.457  15.471  0.0919  0.1960  0.3182
13986TIP3    H163373   4.899   0.505  15.513 -0.6347  1.5856  0.0298
13986TIP3    H263374   4.827   0.372  15.515  1.7662  0.2311  0.4680
13987TIP3   OH263375   4.441   0.366  13.022  0.3205 -0.4986  0.0709
13987TIP3    H163376   4.375   0.386  13.089 -0.4373  0.5746 -0.9620
13987TIP3    H263377   4.454   0.272  13.029  1.4517 -0.2547  2.7936
13988TIP3   OH263378   6.772   0.986   6.134  0.5209 -0.2647  0.3090
13988TIP3    H163379   6.757   1.048   6.205  0.9671  0.6323 -0.3561
13988TIP3    H263380   6.686   0.975   6.093  0.9343  2.5628 -1.6528
13989TIP3   OH263381   1.407   5.080   2.826  0.3190  0.2820 -0.3721
13989TIP3    H163382   1.446   5.167   2.811 -1.0738  1.4199  2.0545
13989TIP3    H263383   1.469   5.035   2.883  0.2944  0.2985 -0.3321
13990TIP3   OH263384   1.718   0.910  14.202  0.3050  0.5234  0.2995
13990TIP3    H163385   1.803   0.868  14.208  0.7774  1.5500  1.0253
13990TIP3    H263386   1.735   1.003  14.219 -0.9698  0.7199  0.6190
13991TIP3   OH263387   1.107   3.726   4.769 -0.1473 -0.2062  0.3579
13991TIP3    H163388   1.127   3.760   4.682  1.2398  0.5133  0.9149
13991TIP3    H263389   1.138   3.636   4.768 -1.0761 -0.5249 -0.2017
13992TIP3   OH263390   1.823   5.551   0.772 -0.2132  0.3255 -0.3776
13992TIP3    H163391   1.844   5.494   0.698 -1.4415  0.2849 -0.7168
13992TIP3    H263392   1.789   5.631   0.733  1.3497  1.2915  0.1004
13993TIP3   OH263393   5.440   5.992   6.439  0.8815  0.1140 -0.2803
13993TIP3    H163394   5.477   5.908   6.468  1.0207  0.2927  0.0658
13993TIP3    H263395   5.515   6.040   6.403  1.2931  1.0358  1.6899
13994TIP3   OH263396   6.780   3.867   1.111 -0.3642  0.0765 -0.1905
13994TIP3    H163397   6.757   3.774   1.118 -1.2243  0.1152 -1.8170
13994TIP3    H263398   6.809   3.877   1.020  0.5896  1.2307  0.2206
13995TIP3   OH263399   5.187   2.829  12.327  0.2089 -0.7187 -0.0223
13995TIP3    H163400   5.092   2.816  12.329 -0.0555  0.9525 -0.1322
13995TIP3    H263401   5.221   2.753  12.281 -1.1514 -1.0377 -0.5516
13996TIP3   OH263402   3.668   1.510  16.808 -0.2636  0.0053  0.3857
13996TIP3    H163403   3.573   1.512  16.818 -0.4321 -2.3917  0.0466
13996TIP3    H263404   3.701   1.574  16.871 -2.0682  0.1797  1.2107
13997TIP3   OH263405   5.633   1.588  16.383  0.2726  0.5690 -0.3474
13997TIP3    H163406   5.667   1.604  16.295 -1.8933 -2.2091 -1.8519
13997TIP3    H263407   5.668   1.502  16.406 -2.2023 -0.4846 -0.2253
13998TIP3   OH263408   2.590   4.728  11.880  0.4607  0.3825  0.2719
13998TIP3    H163409   2.547   4.725  11.794  1.3007  0.8916 -0.1796
13998TIP3    H263410   2.537   4.788  11.932 -1.3359 -1.5590  0.8671
13999TIP3   OH263411   1.156   5.218   0.725  0.8492  0.1687 -0.0678
13999TIP3    H163412   1.080   5.209   0.667  0.3874 -0.2626  0.5918
13999TIP3    H263413   1.222   5.262   0.671  0.0637  0.7397 -0.5817
14000TIP3   OH263414   6.569   0.061  16.208 -0.1832 -0.2028 -0.1777
14000TIP3    H163415   6.547   0.113  16.285 -1.2506 -1.3046  0.2858
14000TIP3    H263416   6.653   0.021  16.230  0.1716  0.5445 -0.1476
14001TIP3   OH263417   4.451   3.860   1.111  0.6766  0.4591 -0.1886
14001TIP3    H163418   4.445   3.766   1.126 -0.7376  0.4443 -0.6904
14001TIP3    H263419   4.375   3.896   1.157 -0.1476  1.0708 -1.9167
14002TIP3   OH263420   5.232   1.540  13.838  0.3256 -0.2916 -0.0579
14002TIP3    H163421   5.225   1.633  13.856 -0.4905 -0.2945 -0.3151
14002TIP3    H263422   5.308   1.532  13.781  0.0119  0.3050 -0.5751
14003TIP3   OH263423   0.068   6.304   5.232  0.0879 -0.4547  0.1131
14003TIP3    H163424  -0.003   6.240   5.234  0.8904 -1.3775  0.0142
14003TIP3    H263425   0.083   6.325   5.325  1.5505 -2.4422  0.4026
14004TIP3   OH263426   5.461   1.405  16.633  0.4520 -0.2813  0.2114
14004TIP3    H163427   5.554   1.389  16.644  0.9070  1.8828 -0.0689
14004TIP3    H263428   5.450   1.499  16.649 -1.1740  0.1604 -2.6641
14005TIP3   OH263429   2.973   1.177   5.724 -0.3600  0.0266  0.1405
14005TIP3    H163430   3.001   1.268   5.709 -2.8285  0.5937 -1.8015
14005TIP3    H263431   2.915   1.158   5.651 -1.3776 -2.5062  1.4885
14006TIP3   OH263432   2.266   2.165  16.413 -0.2508  0.1687 -0.3890
14006TIP3    H163433   2.342   2.214  16.445  0.1560 -0.0021 -1.0580
14006TIP3    H263434   2.193   2.226  16.421 -0.6924 -0.6282  3.1078
14007TIP3   OH263435   5.266   5.271  12.087 -0.5480 -0.5490  0.2647
14007TIP3    H163436   5.237   5.236  12.171 -0.8486 -0.3372  0.2509
14007TIP3    H263437   5.234   5.361  12.087  2.0091  0.4512  1.2287
14008TIP3   OH263438   0.516   0.487   4.958 -0.2821 -0.0667  0.5798
14008TIP3    H163439   0.435   0.436   4.951 -0.4383 -0.0166  1.8162
14008TIP3    H263440   0.487   0.578   4.963 -0.0912  0.0254  0.0726
14009TIP3   OH263441   0.384   2.862   0.600  0.3686  0.4826 -0.4763
14009TIP3    H163442   0.464   2.876   0.651  0.7268 -1.5049 -0.4112
14009TIP3    H263443   0.414   2.848   0.511  0.1877 -0.9912 -0.3280
14010TIP3   OH263444   1.756   3.252   5.480 -0.3203  0.5874 -0.2071
14010TIP3    H163445   1.834   3.237   5.427 -0.5202  0.6926 -0.5287
14010TIP3    H263446   1.760   3.182   5.546  0.4421  1.0432  0.2472
14011TIP3   OH263447   2.850   0.466   2.474  0.0026 -0.2538  0.5552
14011TIP3    H163448   2.847   0.393   2.537 -1.9899 -0.6723  0.0617
14011TIP3    H263449   2.819   0.541   2.523  0.0721 -0.2030  0.5210
14012TIP3   OH263450   0.440   3.197  10.451  0.3785 -0.2697 -0.0460
14012TIP3    H163451   0.410   3.117  10.496  0.0736  0.9098  1.9480
14012TIP3    H263452   0.387   3.267  10.489  0.3131  0.8677 -2.0915
14013TIP3   OH263453   0.979   3.616  14.209  0.1146  0.5110  0.1104
14013TIP3    H163454   1.029   3.590  14.131 -1.3141 -0.3524 -0.5725
14013TIP3    H263455   1.019   3.568  14.281 -0.0213 -0.5321 -0.4981
14014TIP3   OH263456   1.092   3.049   2.359  0.0951 -0.5490  0.4573
14014TIP3    H163457   1.103   3.028   2.452  2.4503 -0.6264  0.2026
14014TIP3    H263458   1.129   3.136   2.349 -0.1530 -0.5342 -0.4275
14015TIP3   OH263459   6.490   1.152   3.156 -0.1330 -0.0723 -0.0457
14015TIP3    H163460   6.568   1.098   3.153  0.7087  1.1283 -2.1920
14015TIP3    H263461   6.422   1.098   3.116  0.0712 -0.4326  0.0860
14016TIP3   OH263462   0.885   5.512   3.869 -0.3172  0.3081 -0.1070
14016TIP3    H163463   0.877   5.418   3.853 -0.0910  0.6964 -2.9574
14016TIP3    H263464   0.960   5.519   3.929 -0.5364 -1.3108  0.4136
14017TIP3   OH263465   5.972   2.230  14.042  0.0956 -0.6141  0.8414
14017TIP3    H163466   5.934   2.142  14.048 -0.7063 -0.3677 -0.3466
14017TIP3    H263467   6.065   2.214  14.025 -0.0110 -1.2331  0.7979
14018TIP3   OH263468   3.034   5.873  13.950  0.5090 -0.2632 -0.2455
14018TIP3    H163469   2.944   5.880  13.920  0.4864 -1.3000 -0.4246
14018TIP3    H263470   3.085   5.920  13.884  0.1737 -0.1920 -0.4555
14019TIP3   OH263471   3.920   3.818   0.633  0.3200  0.6329 -0.1751
14019TIP3    H163472   3.828   3.790   0.633 -0.0777  1.7693  1.2056
14019TIP3    H263473   3.916   3.909   0.602  1.1345  0.3348 -1.1929
14020TIP3   OH263474   0.887   6.102   2.575  0.3453 -0.2359  0.1140
14020TIP3    H163475   0.933   6.097   2.491 -0.5689  1.4495 -0.5386
14020TIP3    H263476   0.819   6.034   2.569 -0.8057  0.9685 -1.2558
14021TIP3   OH263477   0.379   6.690   4.595 -0.8538  0.3089 -0.4490
14021TIP3    H163478   0.298   6.723   4.634 -1.1063  1.2424 -1.6840
14021TIP3    H263479   0.447   6.750   4.625 -0.7495  0.0017 -0.0632
14022TIP3   OH263480   6.265   5.655  14.505 -0.5422  1.0267  0.3588
14022TIP3    H163481   6.234   5.638  14.416 -0.2830 -0.7241  0.5676
14022TIP3    H263482   6.343   5.709  14.493 -0.8341  1.2901 -0.4351
14023TIP3   OH263483   4.201   4.353   2.331  0.3107  0.2864  0.7592
14023TIP3    H163484   4.244   4.376   2.414  1.4390  1.8191 -0.2061
14023TIP3    H263485   4.150   4.431   2.308  0.9047  0.3072 -0.5380
14024TIP3   OH263486   4.550   5.783   5.446  0.5196 -0.1019  0.0400
14024TIP3    H163487   4.579   5.693   5.432 -2.3171 -1.8619  3.7543
14024TIP3    H263488   4.605   5.816   5.517  0.3125  0.3909 -0.0221
14025TIP3   OH263489   5.197   0.036  15.636 -0.1041  0.4826  0.3256
14025TIP3    H163490   5.105   0.060  15.631 -0.0968  0.5040  0.2818
14025TIP3    H263491   5.199  -0.043  15.689 -0.0471  1.0258  1.1513
14026TIP3   OH263492   1.961   5.317   3.677 -0.2240  0.0123  0.2921
14026TIP3    H163493   1.993   5.254   3.612  1.2995  0.2044  0.8188
14026TIP3    H263494   1.975   5.274   3.761 -0.1002  0.6396  0.6007
14027TIP3   OH263495   5.140   6.723   0.915  0.8318  0.8398 -0.1985
14027TIP3    H163496   5.106   6.634   0.898  1.1087  0.5263  0.8427
14027TIP3    H263497   5.065   6.780   0.897  0.2189  0.2776  0.4571
14028TIP3   OH263498   0.775   6.303  11.897  0.2045  0.1099 -0.2028
14028TIP3    H163499   0.737   6.306  11.809 -0.0506 -3.3039 -0.3313
14028TIP3    H263500   0.704   6.272  11.953  0.6302  1.3459  1.0971
14029TIP3   OH263501   2.527   5.625  12.306 -0.2365  0.0215  0.1567
14029TIP3    H163502   2.570   5.695  12.354 -0.2349 -1.5327  2.5972
14029TIP3    H263503   2.557   5.635  12.216  1.1263  2.0668  0.7849
14030TIP3   OH263504   3.692   5.027   1.860 -0.1036 -0.4071 -0.3137
14030TIP3    H163505   3.678   5.114   1.897 -1.1139 -0.3886 -0.7020
14030TIP3    H263506   3.722   5.043   1.771  2.0492 -0.4555  0.3262
14031TIP3   OH263507   1.084   5.457  14.259  0.2211 -0.2876  0.0550
14031TIP3    H163508   1.061   5.371  14.224  4.6085 -1.4373 -0.5412
14031TIP3    H263509   1.082   5.515  14.183  1.6551 -0.9514 -0.5248
14032TIP3   OH263510   5.318   3.191   0.131  0.0045 -0.4460 -0.0998
14032TIP3    H163511   5.359   3.157   0.211  0.4086  0.2339 -0.0031
14032TIP3    H263512   5.298   3.114   0.079  2.0962 -0.8034 -0.4800
14033TIP3   OH263513   1.723   1.783  10.921 -0.5885 -0.2243 -0.2443
14033TIP3    H163514   1.766   1.740  10.995 -0.3962 -0.4711 -0.5024
14033TIP3    H263515   1.629   1.770  10.937 -0.5502 -0.2142 -0.0071
14034TIP3   OH263516   4.790   5.795   4.795 -0.3795  0.7137 -0.2753
14034TIP3    H163517   4.882   5.779   4.774 -0.6782  0.4976 -1.4971
14034TIP3    H263518   4.765   5.722   4.851  0.2859  0.9758  0.3770
14035TIP3   OH263519   3.274   6.238   4.158 -0.0245  0.2689  0.0529
14035TIP3    H163520   3.331   6.182   4.210 -1.3457  0.5964  1.9544
14035TIP3    H263521   3.333   6.299   4.115  1.1526 -0.3230  0.7766
14036TIP3   OH263522   3.764   2.717  12.571  0.3621  0.2355  0.2720
14036TIP3    H163523   3.685   2.687  12.527  0.8916 -0.4220 -0.2692
14036TIP3    H263524   3.782   2.649  12.637 -0.1595  0.9718  1.1964
14037TIP3   OH263525   2.353   3.728   0.796  0.3430 -0.4208  0.5406
14037TIP3    H163526   2.367   3.803   0.855 -2.0785 -1.5795  2.8155
14037TIP3    H263527   2.417   3.663   0.825  0.2825 -0.3765  0.7773
14038TIP3   OH263528   6.447   4.492   5.420 -0.5116 -0.1128  0.2172
14038TIP3    H163529   6.392   4.550   5.473  0.6538  0.3451  0.9776
14038TIP3    H263530   6.389   4.421   5.393 -0.7855 -1.4305  3.6969
14039TIP3   OH263531   2.356   1.248  13.689 -0.3105  0.8447 -0.1817
14039TIP3    H163532   2.280   1.240  13.747  0.2830 -1.5978  0.3946
14039TIP3    H263533   2.413   1.311  13.732 -0.1525 -0.4646  1.6812
14040TIP3   OH263534   3.715   0.545  14.859  0.3360  0.0350 -0.3755
14040TIP3    H163535   3.624   0.566  14.841 -0.3448 -2.6021 -0.3661
14040TIP3    H263536   3.735   0.594  14.939 -1.2577  0.1725 -0.0275
14041TIP3   OH263537   5.403   3.010  15.847 -0.3373 -0.0377 -0.3908
14041TIP3    H163538   5.367   2.985  15.762 -0.6922  1.5548 -0.7381
14041TIP3    H263539   5.498   3.001  15.836 -0.3331  0.8215 -1.2010
14042TIP3   OH263540   5.180   0.660   3.043 -0.8625 -0.0959  0.0871
14042TIP3    H163541   5.089   0.637   3.060 -0.5563 -1.0851  0.4675
14042TIP3    H263542   5.212   0.693   3.128 -1.0826  1.0728 -0.2580
14043TIP3   OH263543   1.217   2.248  12.168  0.1572 -0.6182 -0.4981
14043TIP3    H163544   1.210   2.312  12.098  0.3569  1.4605  1.2758
14043TIP3    H263545   1.309   2.219  12.165  0.2325 -0.3427 -0.8989
14044TIP3   OH263546   2.205   1.551   5.200 -0.5128 -0.1144 -0.0833
14044TIP3    H163547   2.184   1.602   5.122 -1.2956  2.1480  1.4910
14044TIP3    H263548   2.121   1.514   5.228 -0.7870  1.3915  1.1808
14045TIP3   OH263549   2.609   0.209   0.018 -0.2165  0.0780 -0.6719
14045TIP3    H163550   2.561   0.235   0.096  0.6941  0.5176 -0.2438
14045TIP3    H263551   2.607   0.113   0.020 -0.1956  0.0871 -0.1041
14046TIP3   OH263552   5.853   6.300   5.933  0.0156 -0.2943  0.1569
14046TIP3    H163553   5.947   6.296   5.946  0.3220  0.6964 -1.4691
14046TIP3    H263554   5.817   6.314   6.020  1.3704 -0.6045  0.7814
14047TIP3   OH263555   3.152   4.561  12.668 -0.1094  0.5213 -0.4830
14047TIP3    H163556   3.182   4.471  12.680 -0.1778  0.6820  1.0310
14047TIP3    H263557   3.208   4.595  12.597  2.2481  0.2883  1.1388
14048TIP3   OH263558   3.648   2.399   3.276  0.5278  0.0878 -0.4222
14048TIP3    H163559   3.686   2.481   3.309 -1.2131  0.8492 -0.2345
14048TIP3    H263560   3.649   2.409   3.181  1.9551 -0.4583 -0.4886
14049TIP3   OH263561   4.258   4.476  16.931  0.2902  0.2499 -0.1100
14049TIP3    H163562   4.307   4.485  16.849  1.2684 -0.2292  0.4080
14049TIP3    H263563   4.194   4.408  16.913  0.6201  0.0183 -0.4237
14050TIP3   OH263564   2.741   0.443   0.047  0.7340 -0.1426 -0.0230
14050TIP3    H163565   2.699   0.368   0.090 -1.0304  0.6082 -0.3578
14050TIP3    H263566   2.803   0.403  -0.015 -0.6682 -1.3763 -0.7063
14051TIP3   OH263567   4.246   3.570   5.696 -0.0839  0.1111 -0.0701
14051TIP3    H163568   4.223   3.497   5.638 -0.8394  0.5108 -0.2925
14051TIP3    H263569   4.228   3.537   5.784 -1.0274  0.2175 -0.2051
14052TIP3   OH263570   4.028   2.535  14.241 -0.1399 -0.2693  0.1437
14052TIP3    H163571   4.084   2.610  14.261 -1.8540  0.9732  0.4780
14052TIP3    H263572   4.008   2.497  14.327  1.5565 -1.8043 -0.0804
14053TIP3   OH263573   1.925   2.184   6.046  0.0382  0.2867 -0.4107
14053TIP3    H163574   1.899   2.276   6.045 -1.4105 -0.0960 -0.2364
14053TIP3    H263575   1.953   2.166   5.956 -0.3231  0.7176 -0.6117
14054TIP3   OH263576   3.259   4.377   2.240  0.2185 -0.0050 -0.6294
14054TIP3    H163577   3.183   4.345   2.289  0.9715 -0.2085  0.4249
14054TIP3    H263578   3.303   4.437   2.300  1.8921 -1.2573 -0.5338
14055TIP3   OH263579   3.178   0.867  11.334  0.3387 -0.0618  0.2498
14055TIP3    H163580   3.125   0.832  11.406 -0.3631  0.7514  0.1525
14055TIP3    H263581   3.120   0.931  11.292  0.6769 -0.6639 -1.1538
14056TIP3   OH263582   4.524   0.111  13.625  0.0808  0.3976 -0.4799
14056TIP3    H163583   4.513   0.206  13.633 -0.0676  0.3429 -0.0380
14056TIP3    H263584   4.545   0.081  13.713 -0.0167  0.0009 -0.5902
14057TIP3   OH263585   2.393   2.645  15.201  0.0097  0.0971 -0.2505
14057TIP3    H163586   2.411   2.681  15.114  2.0993 -2.4504 -1.0010
14057TIP3    H263587   2.475   2.657  15.249 -0.8462  0.6690  1.1254
14058TIP3   OH263588   3.871   5.695  13.904 -0.2972 -0.1605  0.0058
14058TIP3    H163589   3.891   5.609  13.866  0.4254 -0.5054  1.1131
14058TIP3    H263590   3.938   5.753  13.869 -0.6563 -0.0888 -0.5745
14059TIP3   OH263591   2.481   3.970  12.090  0.0430  0.3666  0.2542
14059TIP3    H163592   2.418   3.983  12.019  0.7636  1.0648 -0.2755
14059TIP3    H263593   2.455   3.888  12.130 -0.3435 -0.0800 -0.8666
14060TIP3   OH263594   5.171   1.114  14.678 -0.1711  0.1012 -0.3472
14060TIP3    H163595   5.193   1.189  14.623  1.7953  0.0407  0.2958
14060TIP3    H263596   5.145   1.046  14.615  0.7953  0.4320 -1.1383
14061TIP3   OH263597   5.774   2.234   3.707 -0.0146 -0.2863 -0.2906
14061TIP3    H163598   5.856   2.192   3.680 -0.0432  1.0271 -2.6940
14061TIP3    H263599   5.705   2.179   3.670 -0.1785 -0.3711  0.1324
14062TIP3   OH263600   3.399   3.277   2.020 -0.3847 -0.1505 -0.6839
14062TIP3    H163601   3.419   3.257   1.929 -2.2467 -1.6680 -0.8275
14062TIP3    H263602   3.320   3.226   2.039 -0.8267  1.1771  1.3783
14063TIP3   OH263603   2.592   5.250  14.515  0.0687  0.0015  0.5458
14063TIP3    H163604   2.528   5.274  14.582 -1.2888 -0.7179 -0.4692
14063TIP3    H263605   2.632   5.170  14.548 -0.8047 -0.5153  0.3832
14064TIP3   OH263606   0.877   6.551   1.576 -0.4680 -0.1897 -0.0337
14064TIP3    H163607   0.971   6.557   1.563 -0.4449  0.4119  0.3504
14064TIP3    H263608   0.842   6.633   1.540 -0.5825  0.6887  1.9022
14065TIP3   OH263609   5.351   0.923  15.409  0.4399  0.7314 -0.6214
14065TIP3    H163610   5.261   0.894  15.395 -0.7122  2.9203  1.5372
14065TIP3    H263611   5.397   0.846  15.441 -0.0292 -0.9731 -3.6356
14066TIP3   OH263612   6.364   1.451  12.663  0.2489 -0.1762 -0.0269
14066TIP3    H163613   6.274   1.445  12.631 -0.1268 -0.2975  0.9933
14066TIP3    H263614   6.357   1.510  12.739  1.0482 -0.1254  0.0099
14067TIP3   OH263615   2.401   4.326  14.740  0.7880 -0.2653  0.0320
14067TIP3    H163616   2.443   4.240  14.735 -2.4849 -2.0607  0.5923
14067TIP3    H263617   2.423   4.359  14.828 -1.2823 -2.5690  1.5331
14068TIP3   OH263618   6.755   6.180  13.588  0.4198  0.1324  0.0104
14068TIP3    H163619   6.725   6.098  13.627  0.7200  0.0636  0.0958
14068TIP3    H263620   6.700   6.192  13.511  0.3096 -0.0973  0.0535
14069TIP3   OH263621   5.944   3.291   2.809 -0.3419  0.0399 -0.0860
14069TIP3    H163622   5.867   3.256   2.764 -1.2372 -0.0760  1.4892
14069TIP3    H263623   5.925   3.384   2.821  0.3699  0.3012 -0.8649
14070TIP3   OH263624   1.304   0.209   4.786  0.3432 -0.4034 -0.2929
14070TIP3    H163625   1.326   0.263   4.710  2.5426 -1.4260 -0.4587
14070TIP3    H263626   1.266   0.129   4.747 -1.9280  0.5140 -0.0947
14071TIP3   OH263627   4.911   5.393   2.797 -0.5815 -0.2445 -0.6489
14071TIP3    H163628   4.842   5.355   2.851 -1.1172  1.1542 -0.3116
14071TIP3    H263629   4.955   5.456   2.853 -0.0507  0.0299 -1.3490
14072TIP3   OH263630   2.493   0.319   3.294 -0.0173  0.3079 -0.2167
14072TIP3    H163631   2.535   0.284   3.216 -1.0432 -0.8559 -0.2888
14072TIP3    H263632   2.482   0.242   3.351 -1.5489  0.6552 -0.0000
14073TIP3   OH263633   2.302   2.397  11.387  0.3589 -0.3111 -0.2232
14073TIP3    H163634   2.387   2.372  11.352  0.3564  0.7063 -0.9873
14073TIP3    H263635   2.239   2.352  11.331  0.3770 -1.0454  0.3273
14074TIP3   OH263636   0.040   2.012   2.780  0.6927 -0.3961 -0.1404
14074TIP3    H163637   0.033   1.996   2.875 -0.3902 -0.9405 -0.2952
14074TIP3    H263638   0.004   2.099   2.767  2.5615  0.4795  0.1525
14075TIP3   OH263639   2.985   2.818   1.882 -0.1035  0.5195 -0.1911
14075TIP3    H163640   2.956   2.785   1.967 -0.7552  0.5738 -0.3851
14075TIP3    H263641   3.080   2.804   1.882 -0.2733 -0.6889  0.0069
14076TIP3   OH263642   3.313   3.655   0.674 -0.1216  0.1096 -0.1460
14076TIP3    H163643   3.344   3.581   0.621  0.7717 -0.2866  0.8801
14076TIP3    H263644   3.296   3.724   0.611  2.5380  0.2340 -0.8713
14077TIP3   OH263645   0.410   6.308   1.811 -0.0545 -0.4257 -0.4396
14077TIP3    H163646   0.472   6.244   1.844  0.5132 -0.3444 -1.3195
14077TIP3    H263647   0.328   6.259   1.803 -0.5703 -0.1576  2.1903
14078TIP3   OH263648   6.585   5.518   5.634 -0.0090 -0.0043  0.4102
14078TIP3    H163649   6.591   5.500   5.728 -0.6501 -0.4534  0.3728
14078TIP3    H263650   6.616   5.437   5.592  1.8006  0.7449  0.2121
14079TIP3   OH263651   0.537   6.262   2.931  0.0098  0.1798 -0.4251
14079TIP3    H163652   0.560   6.316   3.006 -0.9029  0.8618 -0.6262
14079TIP3    H263653   0.617   6.212   2.912  0.8710  1.4477 -0.2361
14080TIP3   OH263654   4.005   0.900  14.080 -0.5403 -0.2422 -0.4752
14080TIP3    H163655   3.999   0.995  14.068  0.8414  0.0856  1.0155
14080TIP3    H263656   4.096   0.880  14.061 -0.7291 -1.2121 -0.3860
14081TIP3   OH263657   3.743   0.976  16.318 -0.1723  0.0514  0.9599
14081TIP3    H163658   3.658   0.981  16.362 -1.0911  0.4006 -0.7739
14081TIP3    H263659   3.726   1.005  16.229  1.4347 -1.4841  0.0861
14082TIP3   OH263660   3.780   2.470  13.323 -0.6036 -0.5627 -0.1314
14082TIP3    H163661   3.825   2.486  13.405 -1.5712 -1.7641  0.6706
14082TIP3    H263662   3.717   2.400  13.343 -0.6388 -1.1117 -1.9634
14083TIP3   OH263663   4.783   4.570  10.869  0.1664  0.5271  0.4202
14083TIP3    H163664   4.708   4.539  10.919  1.0783 -1.2502  0.7904
14083TIP3    H263665   4.761   4.549  10.778 -0.0417  0.5720  0.4594
14084TIP3   OH263666   3.750   6.380   1.431  0.6352 -0.2847 -0.1860
14084TIP3    H163667   3.836   6.369   1.390  1.1107 -1.1170  1.0032
14084TIP3    H263668   3.692   6.326   1.379  0.7858  0.3826 -1.0773
14085TIP3   OH263669   1.303   2.773  16.176  0.4012  0.4808  0.3340
14085TIP3    H163670   1.279   2.768  16.269  0.7941 -0.6751  0.3947
14085TIP3    H263671   1.339   2.860  16.165  0.4448  0.5952  1.2969
14086TIP3   OH263672   5.012   3.840  13.700 -0.3586 -0.2071 -0.3212
14086TIP3    H163673   4.983   3.797  13.619 -0.4454 -0.8478  0.0463
14086TIP3    H263674   5.038   3.768  13.757  0.4085  0.2778 -0.0461
14087TIP3   OH263675   5.937   0.066   4.620 -0.1177 -0.0206  0.2114
14087TIP3    H163676   6.015   0.014   4.600 -0.2057 -1.2318  2.6408
14087TIP3    H263677   5.889   0.072   4.537  1.7685 -0.5472 -0.9832
14088TIP3   OH263678   3.444   3.412   2.721  0.6781 -0.1492 -0.3302
14088TIP3    H163679   3.383   3.460   2.666  1.7331 -0.6977 -2.0367
14088TIP3    H263680   3.390   3.349   2.768 -0.3574  0.9191 -0.0437
14089TIP3   OH263681   4.427   1.296  13.331  0.1119  0.3018 -0.6560
14089TIP3    H163682   4.437   1.334  13.418 -1.0020  2.3128 -1.3348
14089TIP3    H263683   4.423   1.371  13.272  0.6179 -0.9950 -2.4387
14090TIP3   OH263684   3.882   2.768  17.027  0.4591 -0.1244  0.2843
14090TIP3    H163685   3.801   2.722  17.006 -1.1638  2.9353 -0.7751
14090TIP3    H263686   3.864   2.812  17.110  1.8677 -1.0883  1.1442
14091TIP3   OH263687   4.358   2.176  16.689 -0.0553  0.0516 -0.0135
14091TIP3    H163688   4.435   2.227  16.664  1.4414 -1.7786  0.6292
14091TIP3    H263689   4.321   2.146  16.606  0.2939  0.4159 -0.3058
14092TIP3   OH263690   2.627   1.884  12.033 -0.5349  0.9183 -0.0593
14092TIP3    H163691   2.619   1.960  12.091  0.7553 -0.4899  2.1230
14092TIP3    H263692   2.656   1.813  12.091  2.4205 -0.2470 -2.7144
14093TIP3   OH263693   3.178   3.003  11.484 -0.0111 -0.1042  0.1049
14093TIP3    H163694   3.170   3.003  11.388 -2.4299 -0.3677  0.2525
14093TIP3    H263695   3.114   3.067  11.513 -1.2678 -1.9386  1.6278
14094TIP3   OH263696   5.041   5.429  10.384  0.3039  0.0612  0.4148
14094TIP3    H163697   5.102   5.358  10.404  1.4796  1.5770  2.6865
14094TIP3    H263698   5.093   5.494  10.337 -0.4217  0.0012 -0.5029
14095TIP3   OH263699   5.856   3.650   5.874  0.4705  0.3430  0.1068
14095TIP3    H163700   5.799   3.660   5.950 -0.1146  0.7260 -0.3744
14095TIP3    H263701   5.940   3.686   5.902 -0.0854  1.6427  0.1841
14096TIP3   OH263702   3.002   6.739  16.026  0.3493  0.6988 -0.4266
14096TIP3    H163703   3.061   6.813  16.012  0.0605  1.1755  0.6923
14096TIP3    H263704   3.046   6.686  16.092 -0.4782  1.0981  0.4746
14097TIP3   OH263705   4.899   4.905   6.340  0.7403 -0.3563  0.0740
14097TIP3    H163706   4.978   4.863   6.306  1.4281  2.3841 -2.0880
14097TIP3    H263707   4.931   4.984   6.383 -0.6718 -0.7038  1.8590
14098TIP3   OH263708   2.562   0.387  15.108 -0.0868 -0.4094 -0.2637
14098TIP3    H163709   2.509   0.340  15.044 -1.1445  0.4130 -0.0253
14098TIP3    H263710   2.499   0.412  15.177  0.9410 -0.9207  0.8937
14099TIP3   OH263711   2.813   1.509  11.448 -0.2944 -0.3963 -0.0885
14099TIP3    H163712   2.752   1.451  11.403  1.2961 -2.7092  0.5022
14099TIP3    H263713   2.821   1.471  11.536 -1.5904  2.6603  1.5136
14100TIP3   OH263714   0.277   1.911  12.647 -0.3902  0.2761 -0.0861
14100TIP3    H163715   0.186   1.937  12.639 -0.7416 -0.6522  0.6154
14100TIP3    H263716   0.295   1.916  12.741 -0.1863 -0.9537 -0.0354
14101TIP3   OH263717   3.037   3.730   2.985  0.1519  0.1455 -0.0563
14101TIP3    H163718   3.035   3.698   2.895  1.0363 -1.6106  0.4915
14101TIP3    H263719   2.966   3.682   3.029 -0.6632  1.4316  0.0605
14102TIP3   OH263720   1.302   2.351  16.120  0.8453  0.6670 -0.0916
14102TIP3    H163721   1.337   2.404  16.191  1.5536  1.4768 -1.0147
14102TIP3    H263722   1.225   2.399  16.090  0.6958  0.4628 -0.0369
14103TIP3   OH263723   3.467   1.035  17.011  0.6835 -0.7519 -0.6468
14103TIP3    H163724   3.560   1.031  17.034  0.5749  1.5555  0.4649
14103TIP3    H263725   3.422   1.044  17.095 -0.3943 -0.0834 -1.2769
14104TIP3   OH263726   3.224   6.513   5.583 -0.1757  0.1744 -0.2246
14104TIP3    H163727   3.211   6.425   5.619 -1.2233  0.5438  0.3666
14104TIP3    H263728   3.315   6.535   5.604  0.1014 -0.7750 -0.4017
14105TIP3   OH263729   5.470   1.794  12.839  0.1610 -0.1086  0.1876
14105TIP3    H163730   5.427   1.879  12.853 -0.3019  0.1302 -2.2238
14105TIP3    H263731   5.401   1.738  12.803  0.5638 -1.4412  1.3625
14106TIP3   OH263732   5.647   2.533   1.417 -0.0274 -0.5164 -0.9906
14106TIP3    H163733   5.568   2.587   1.428  1.3035  1.4583 -0.6133
14106TIP3    H263734   5.697   2.577   1.348  1.9017 -0.2242  0.5079
14107TIP3   OH263735   1.886   4.680   5.717 -0.1964  0.0165 -0.7201
14107TIP3    H163736   1.824   4.740   5.677  0.9390  1.9557  0.2470
14107TIP3    H263737   1.877   4.695   5.811 -0.6766 -2.2131 -0.3545
14108TIP3   OH263738   6.176   5.539  12.072  0.1763 -0.0505  0.2869
14108TIP3    H163739   6.083   5.518  12.075  0.0158  0.7140  1.3269
14108TIP3    H263740   6.179   5.634  12.061  0.8724 -0.3150 -2.4725
14109TIP3   OH263741   5.054   5.184   2.604  0.1617  0.1249  0.3917
14109TIP3    H163742   5.034   5.267   2.648 -0.7106  0.1932 -0.1167
14109TIP3    H263743   5.028   5.199   2.513 -1.3437 -1.1707  0.5801
14110TIP3   OH263744   0.241   0.115  13.587  0.0146  0.0220  0.1621
14110TIP3    H163745   0.333   0.092  13.591 -0.0179 -0.1787 -0.1992
14110TIP3    H263746   0.198   0.039  13.548 -0.2150  0.3467 -0.2394
14111TIP3   OH263747   2.437   0.949   1.648  0.1183  0.0818 -0.0052
14111TIP3    H163748   2.395   0.865   1.666 -1.0277  0.4482 -0.8455
14111TIP3    H263749   2.480   0.936   1.563 -1.8154  0.9242 -1.1744
14112TIP3   OH263750   3.968   0.052  12.906 -0.1569  0.1206  0.4838
14112TIP3    H163751   4.021  -0.017  12.946  1.5489  1.3426  0.4313
14112TIP3    H263752   3.915   0.086  12.978 -0.2839 -0.5775  0.7255
14113TIP3   OH263753   5.230   0.624  15.417 -0.7261 -0.5066 -0.2284
14113TIP3    H163754   5.307   0.649  15.366 -1.6455  1.5963 -0.7076
14113TIP3    H263755   5.265   0.599  15.503  0.4322  2.6180  0.3622
14114TIP3   OH263756   1.241   2.829   1.097  0.0502 -0.6956  0.2891
14114TIP3    H163757   1.204   2.830   1.009  0.2530 -1.7511  0.1746
14114TIP3    H263758   1.186   2.889   1.147 -0.8692 -1.0770 -0.2501
14115TIP3   OH263759   4.157   5.575  13.919  0.0824 -0.1982  0.2937
14115TIP3    H163760   4.105   5.513  13.868  1.3939  0.8059 -2.5004
14115TIP3    H263761   4.109   5.585  14.001 -2.0711 -2.1233 -0.6173
14116TIP3   OH263762   6.298   6.117   3.438 -0.4731  0.2901  0.2464
14116TIP3    H163763   6.368   6.140   3.377 -1.0507 -0.4461 -0.7032
14116TIP3    H263764   6.253   6.200   3.455  1.0038  0.9080  1.3942
14117TIP3   OH263765   0.759   1.574   3.491  0.3539 -0.0094  0.6934
14117TIP3    H163766   0.674   1.535   3.510 -0.4021  1.6376  0.8400
14117TIP3    H263767   0.797   1.591   3.578 -0.2107  1.4057  0.6852
14118TIP3   OH263768   1.163   1.758   4.608  0.0262 -0.8018  0.1009
14118TIP3    H163769   1.202   1.842   4.632  2.1032 -1.9908  1.2559
14118TIP3    H263770   1.177   1.751   4.514 -1.4120  0.6951 -0.2618
14119TIP3   OH263771   4.683   1.212  14.387  0.5225 -0.5158 -0.1116
14119TIP3    H163772   4.597   1.171  14.394  0.7898 -0.9170  1.0020
14119TIP3    H263773   4.697   1.255  14.471  0.7915  0.8239 -0.8140
14120TIP3   OH263774   3.424   5.652  15.067  0.1206  0.4391  0.1166
14120TIP3    H163775   3.437   5.733  15.117 -0.7875  1.3154 -1.0028
14120TIP3    H263776   3.347   5.612  15.107  0.1763  0.4574  0.2457
14121TIP3   OH263777   1.644   3.657   4.272 -0.2330  0.0159  0.3532
14121TIP3    H163778   1.612   3.737   4.313  0.0322 -0.2525  1.0971
14121TIP3    H263779   1.616   3.586   4.331 -1.1600 -0.5256 -0.6985
14122TIP3   OH263780   3.815   2.261   3.429 -0.3487  0.2571  0.2325
14122TIP3    H163781   3.830   2.196   3.360 -2.1056  0.2023 -0.1650
14122TIP3    H263782   3.740   2.312   3.397  1.0959  2.6760  0.4080
14123TIP3   OH263783   3.837   1.307   1.357  0.2330  0.0519 -0.1180
14123TIP3    H163784   3.851   1.232   1.299 -0.6852 -1.1755  1.1722
14123TIP3    H263785   3.742   1.317   1.361  0.3569  1.7092 -0.7450
14124TIP3   OH263786   4.106   4.385   4.945 -0.2585  0.6099  0.1106
14124TIP3    H163787   4.071   4.338   4.869 -0.3761  0.6221  0.1571
14124TIP3    H263788   4.030   4.428   4.984 -0.4324 -0.4506  0.9890
14125TIP3   OH263789   4.180   1.650  15.750 -0.1322  0.1238 -0.1402
14125TIP3    H163790   4.112   1.702  15.707  0.4893  0.9055 -0.2015
14125TIP3    H263791   4.243   1.714  15.782 -0.4713 -0.4507  1.7787
14126TIP3   OH263792   4.154   1.573   5.541  0.4570  0.5273  0.2286
14126TIP3    H163793   4.064   1.577   5.572  0.3239  0.2776 -0.1182
14126TIP3    H263794   4.170   1.658   5.501  0.5010  0.7083  0.6239
14127TIP3   OH263795   5.852   4.049  11.936 -0.8672 -0.5521 -0.1066
14127TIP3    H163796   5.810   4.023  12.018 -0.6602 -1.3428 -0.2390
14127TIP3    H263797   5.829   4.141  11.925 -0.8206 -0.4131  0.8871
14128TIP3   OH263798   6.747   1.363   0.972 -0.2247  0.4581 -0.0455
14128TIP3    H163799   6.792   1.404   0.898  0.8694  1.2819  1.0211
14128TIP3    H263800   6.798   1.391   1.049  0.1089 -2.2622  0.8250
14129TIP3   OH263801   0.738   5.793   0.333  0.0735 -0.0844  0.2599
14129TIP3    H163802   0.819   5.743   0.330  0.3446  0.0819  2.5296
14129TIP3    H263803   0.676   5.735   0.378 -1.6759 -0.9065 -2.9593
14130TIP3   OH263804   2.481   0.669   5.228  0.0887  0.3366 -0.0585
14130TIP3    H163805   2.548   0.667   5.296  1.2940 -0.9065 -1.2346
14130TIP3    H263806   2.527   0.648   5.147 -1.7975 -1.2909 -0.8174
14131TIP3   OH263807   5.094   4.989   3.090 -0.8085  0.0177  0.0954
14131TIP3    H163808   5.063   5.080   3.094 -1.5939 -0.2441  0.2272
14131TIP3    H263809   5.021   4.942   3.048  0.5844 -0.1216 -2.3737
14132TIP3   OH263810   0.609   5.287  12.825  0.1075 -0.0019 -0.0721
14132TIP3    H163811   0.628   5.226  12.754  0.7420  0.7011 -0.5138
14132TIP3    H263812   0.525   5.327  12.800 -0.9292 -1.5120  0.8014
14133TIP3   OH263813   3.326   4.158   3.072  0.2281 -0.3063  0.1171
14133TIP3    H163814   3.340   4.090   3.007  1.6339 -0.5856  0.6690
14133TIP3    H263815   3.414   4.183   3.099 -0.3125  0.2587  1.4306
14134TIP3   OH263816   1.534   6.815   2.610 -0.2916 -0.0095  0.6577
14134TIP3    H163817   1.594   6.741   2.600  0.7802  0.8931  0.2290
14134TIP3    H263818   1.474   6.806   2.535 -0.2746 -0.5286  0.6983
14135TIP3   OH263819   1.990   5.549  13.129  0.9107 -0.4088 -0.0111
14135TIP3    H163820   2.049   5.535  13.054  2.8061  1.4952  0.9999
14135TIP3    H263821   1.904   5.563  13.090  1.8297  0.4460 -1.8637
14136TIP3   OH263822   0.136   1.599   3.088 -0.3376  0.5812 -0.0465
14136TIP3    H163823   0.056   1.616   3.139 -0.0188 -0.7215  0.9383
14136TIP3    H263824   0.207   1.628   3.146  0.0123 -0.6218  0.1605
14137TIP3   OH263825   5.420   0.815   5.802 -0.2515 -0.4805  0.6093
14137TIP3    H163826   5.411   0.887   5.864 -0.3595 -0.7094  0.8670
14137TIP3    H263827   5.348   0.756   5.824  1.3124 -1.9353  2.1195
14138TIP3   OH263828   5.103   2.751  16.709 -0.0293 -0.4016  0.3852
14138TIP3    H163829   5.185   2.797  16.693 -1.0431  2.1074  1.7800
14138TIP3    H263830   5.073   2.723  16.622  1.4391  0.1724 -0.3275
14139TIP3   OH263831   1.669   5.894  14.963 -1.3780  0.2335 -0.1395
14139TIP3    H163832   1.757   5.933  14.969 -1.6506  0.8816 -0.2640
14139TIP3    H263833   1.640   5.885  15.054 -1.0169 -0.3920 -0.0753
14140TIP3   OH263834   6.721   2.325   5.881  0.0706  0.2068 -0.0610
14140TIP3    H163835   6.706   2.399   5.940 -0.7471  0.6664 -0.8293
14140TIP3    H263836   6.646   2.327   5.821  1.5608  0.5915 -1.9903
14141TIP3   OH263837   3.116   1.436   0.180  0.5373  0.2320  0.0832
14141TIP3    H163838   3.051   1.411   0.246  0.1873  2.2077  0.5416
14141TIP3    H263839   3.190   1.469   0.230  1.7968 -1.6377 -0.4538
14142TIP3   OH263840   2.792   5.252   4.004  0.1085  0.4285  0.2768
14142TIP3    H163841   2.747   5.203   3.935 -0.5577  0.5511  0.6146
14142TIP3    H263842   2.726   5.311   4.038  0.7285  1.1187  0.3125
14143TIP3   OH263843   4.050   2.352   5.851 -0.2263 -0.1654  0.1313
14143TIP3    H163844   3.976   2.379   5.796  0.4361 -2.3686 -2.0024
14143TIP3    H263845   4.020   2.370   5.941 -1.8442  2.4225 -0.7940
14144TIP3   OH263846   0.557   1.846  15.437 -0.4840 -0.6949  0.2270
14144TIP3    H163847   0.574   1.926  15.387  2.0841 -1.1072  0.2842
14144TIP3    H263848   0.572   1.775  15.375  0.4724 -1.1673  0.9774
14145TIP3   OH263849   1.361   2.045   5.562 -0.2624 -0.2613 -0.3879
14145TIP3    H163850   1.375   1.961   5.606  2.3556 -0.5964 -1.6443
14145TIP3    H263851   1.418   2.106   5.609 -0.9296  0.4533 -0.4889
14146TIP3   OH263852   2.834   2.414   4.327  0.4238 -0.1292 -0.5034
14146TIP3    H163853   2.751   2.372   4.351  0.3527 -0.3534 -1.1064
14146TIP3    H263854   2.811   2.506   4.315  0.3746 -0.0930 -0.1240
14147TIP3   OH263855   6.575   3.032  10.377 -0.7656  0.1979  0.0317
14147TIP3    H163856   6.637   3.039  10.449 -0.3349 -1.0619 -0.1963
14147TIP3    H263857   6.552   2.939  10.373 -1.9922  0.4954 -0.4513
14148TIP3   OH263858   0.277   1.250   0.984 -0.3298  0.0110  0.3290
14148TIP3    H163859   0.231   1.180   1.031  2.2656 -1.1257  1.3793
14148TIP3    H263860   0.209   1.293   0.933 -2.1552 -3.0900 -0.1453
14149TIP3   OH263861   4.428   6.400   1.341 -0.6699 -0.3125  0.0012
14149TIP3    H163862   4.478   6.325   1.310  0.6978 -0.3434  2.0320
14149TIP3    H263863   4.354   6.362   1.388 -2.1180 -0.2786 -2.1366
14150TIP3   OH263864   4.082   5.258  12.993 -0.0647  0.6539  0.2044
14150TIP3    H163865   4.065   5.188  13.055 -0.9150  1.9868  1.5569
14150TIP3    H263866   3.996   5.298  12.978  0.2685  0.9307 -1.1599
14151TIP3   OH263867   2.135   4.196  15.600 -0.4557 -0.3658 -0.3952
14151TIP3    H163868   2.064   4.147  15.641  0.0785 -1.5620 -0.8617
14151TIP3    H263869   2.191   4.223  15.672 -0.7166 -0.5058 -0.1407
14152TIP3   OH263870   1.870   5.546  14.569  0.0485  0.6048 -0.2544
14152TIP3    H163871   1.806   5.477  14.586 -0.2614 -0.1771 -3.7453
14152TIP3    H263872   1.850   5.614  14.633 -0.5090 -1.9300  2.4692
14153TIP3   OH263873   1.092   3.964   5.961  0.3281 -0.2095 -0.3353
14153TIP3    H163874   1.130   4.025   6.024  0.8242 -0.2949 -0.5513
14153TIP3    H263875   1.069   3.887   6.013  0.2423 -0.0708 -0.1669
14154TIP3   OH263876   6.279   1.008   4.125  0.0073 -0.1929 -1.0035
14154TIP3    H163877   6.372   1.011   4.145 -0.3428  0.6794  0.6217
14154TIP3    H263878   6.237   1.057   4.195 -1.7099 -0.7869 -1.5553
14155TIP3   OH263879   1.595   1.095   3.811  0.1717  0.0228  0.0648
14155TIP3    H163880   1.510   1.101   3.767  0.0405  1.8963  0.4986
14155TIP3    H263881   1.657   1.132   3.749  0.3575  0.4630  0.5043
14156TIP3   OH263882   5.826   0.404  15.370 -0.0663  0.3738 -0.1499
14156TIP3    H163883   5.730   0.400  15.370 -0.0805  0.3967 -1.2673
14156TIP3    H263884   5.850   0.409  15.462 -1.0855 -0.8469  0.2093
14157TIP3   OH263885   2.376   3.316  12.511 -0.7414  0.1415  0.1547
14157TIP3    H163886   2.399   3.242  12.566 -0.8481 -0.1566 -0.1918
14157TIP3    H263887   2.350   3.385  12.572  2.5402  1.0734  0.6670
14158TIP3   OH263888   1.289   5.043   2.362  0.0363 -0.1131  0.2952
14158TIP3    H163889   1.274   5.020   2.454  0.5691 -0.0190  0.4110
14158TIP3    H263890   1.372   5.090   2.363  2.2107 -3.5287 -0.6999
14159TIP3   OH263891   5.551   3.172   2.840  0.0209 -0.7394 -1.0418
14159TIP3    H163892   5.601   3.231   2.783  0.1788  0.7335  0.5563
14159TIP3    H263893   5.459   3.191   2.822  0.0570  0.9234  0.3050
14160TIP3   OH263894   4.600   0.398  14.374 -0.4148 -0.2702  0.0764
14160TIP3    H163895   4.621   0.372  14.284  1.6870  3.0157 -0.5336
14160TIP3    H263896   4.684   0.404  14.418 -1.3991 -1.6979  2.3253
14161TIP3   OH263897   4.906   6.242   0.252  0.1413  0.0190 -0.4341
14161TIP3    H163898   4.885   6.273   0.164 -0.7140 -0.1048 -0.2810
14161TIP3    H263899   4.922   6.148   0.241 -0.1053 -0.0229 -0.4336
14162TIP3   OH263900   0.257   2.011   3.908  0.6136  0.2277 -0.1458
14162TIP3    H163901   0.247   2.017   3.813 -0.1391  0.6246 -0.0482
14162TIP3    H263902   0.322   2.078   3.930  0.7449  0.1747 -0.3711
14163TIP3   OH263903   6.228   5.258  12.606 -0.0326 -0.3984 -0.0619
14163TIP3    H163904   6.275   5.283  12.527  0.7116 -2.2262 -0.2390
14163TIP3    H263905   6.144   5.225  12.574 -1.0850  1.8681  0.1816
14164TIP3   OH263906   6.164   6.575   1.797 -0.0105  0.2504  0.1969
14164TIP3    H163907   6.219   6.499   1.778  1.7720  1.1605  1.3717
14164TIP3    H263908   6.170   6.585   1.892 -3.3875 -0.3904  0.5862
14165TIP3   OH263909   4.489   0.856  14.524 -0.2313 -0.4072 -0.8665
14165TIP3    H163910   4.511   0.946  14.500 -1.6791  0.0787 -0.4202
14165TIP3    H263911   4.426   0.865  14.595  0.6253 -1.7974  0.1220
14166TIP3   OH263912   1.820   5.564   4.102  0.2970  0.0272  0.4139
14166TIP3    H163913   1.821   5.659   4.109  1.2844  0.0529  0.0459
14166TIP3    H263914   1.910   5.537   4.118  0.0492 -0.8374  0.4121
14167TIP3   OH263915   3.885   1.150  13.500  0.0726 -0.0134 -0.6024
14167TIP3    H163916   3.970   1.164  13.459 -0.1451 -0.4531 -1.2203
14167TIP3    H263917   3.860   1.062  13.474  0.3885 -0.7217  1.3208
14168TIP3   OH263918   5.940   1.770  12.813  0.2402  0.4063 -0.0756
14168TIP3    H163919   5.930   1.758  12.718  1.3148  0.6257 -0.2226
14168TIP3    H263920   5.855   1.744  12.849 -0.2912  0.6253 -1.1243
14169TIP3   OH263921   5.430   5.843   0.077 -0.4648  0.0100  0.5290
14169TIP3    H163922   5.525   5.850   0.089 -0.3855 -1.3393  0.8140
14169TIP3    H263923   5.410   5.910   0.011  0.5609  0.8003  0.9757
14170TIP3   OH263924   6.601   1.504  14.253  0.2426  0.3209  1.0282
14170TIP3    H163925   6.516   1.540  14.281 -0.6305 -1.0515  0.2184
14170TIP3    H263926   6.653   1.581  14.230 -1.9726  1.1203 -1.8234
14171TIP3   OH263927   4.101   1.479   2.852 -0.1678  0.2500 -0.8342
14171TIP3    H163928   4.028   1.532   2.821 -0.3130 -0.1788 -1.2353
14171TIP3    H263929   4.179   1.530   2.830 -0.3404  0.6586 -0.5019
14172TIP3   OH263930   6.272   5.375  14.747  1.2239  0.3126  0.1597
14172TIP3    H163931   6.286   5.455  14.695 -1.8818  0.4120 -0.7156
14172TIP3    H263932   6.257   5.307  14.683  2.1716 -0.6570  0.9335
14173TIP3   OH263933   3.669   6.546  10.599  0.0803  0.2194  0.5068
14173TIP3    H163934   3.762   6.565  10.581  0.2886 -0.9390  0.2887
14173TIP3    H263935   3.667   6.453  10.621 -1.0077  0.2862  0.7500
14174TIP3   OH263936   3.427   4.349  13.298  0.4521 -0.0894  0.0713
14174TIP3    H163937   3.462   4.374  13.213  1.5984 -2.2511 -0.1720
14174TIP3    H263938   3.485   4.393  13.361 -0.0093  0.9988 -0.2392
14175TIP3   OH263939   4.777   1.521   5.242 -0.2418  0.1457 -0.3001
14175TIP3    H163940   4.783   1.429   5.220 -0.9861 -0.1475  0.6290
14175TIP3    H263941   4.798   1.567   5.161  1.1702 -0.8161 -0.5052
14176TIP3   OH263942   0.467   4.956   0.304  0.3839 -0.1536  0.4109
14176TIP3    H163943   0.379   4.921   0.290 -0.4515  0.5991  3.1982
14176TIP3    H263944   0.458   5.015   0.379  3.3134 -0.2038  0.9309
14177TIP3   OH263945   2.075   0.136   4.992  0.2124  0.2827 -0.5311
14177TIP3    H163946   1.991   0.120   5.037  0.4604 -0.7082 -0.4117
14177TIP3    H263947   2.077   0.231   4.980 -0.9370  0.3250 -0.5434
14178TIP3   OH263948   1.668   2.035  15.536 -0.1040 -0.1959  0.6579
14178TIP3    H163949   1.577   2.046  15.563 -0.4578  0.8262 -0.7906
14178TIP3    H263950   1.710   1.989  15.608 -0.8475  2.6554  3.1215
14179TIP3   OH263951   1.772   0.903   2.490  0.1557 -0.2815  0.0017
14179TIP3    H163952   1.823   0.822   2.481  0.5524  0.1039 -1.4079
14179TIP3    H263953   1.838   0.971   2.501 -0.1557 -0.0475  0.4697
14180TIP3   OH263954   4.049   5.030   1.541  0.7068  0.3449  0.4218
14180TIP3    H163955   4.093   5.115   1.543 -0.7099  1.1286 -0.1595
14180TIP3    H263956   4.094   4.982   1.472 -0.2304  1.6852 -1.2132
14181TIP3   OH263957   6.448   1.378   3.283  0.3367 -0.4461  0.1911
14181TIP3    H163958   6.469   1.347   3.371  3.3872 -0.5081 -0.4610
14181TIP3    H263959   6.443   1.299   3.230  2.4325 -0.2541 -0.3775
14182TIP3   OH263960   6.286   0.885   4.422 -0.1128 -0.3890  0.1701
14182TIP3    H163961   6.344   0.810   4.438 -0.1033 -0.4630 -0.1883
14182TIP3    H263962   6.314   0.951   4.486 -1.3909 -1.3596  1.7979
14183TIP3   OH263963   5.878   5.287   3.888  0.6334  0.5725 -0.1266
14183TIP3    H163964   5.886   5.380   3.912  2.0026  0.9028 -1.6993
14183TIP3    H263965   5.895   5.285   3.794  0.8217 -1.3145 -0.0938
14184TIP3   OH263966   5.257   2.782   2.754  0.6046 -0.1853  0.1330
14184TIP3    H163967   5.183   2.763   2.811 -1.9352 -0.8633 -3.1157
14184TIP3    H263968   5.328   2.805   2.814 -2.0033 -0.0899  3.4611
14185TIP3   OH263969   4.773   5.324  13.593  0.1220 -0.2994  0.3720
14185TIP3    H163970   4.837   5.289  13.531  1.4169 -1.4424  2.2802
14185TIP3    H263971   4.693   5.336  13.540  0.9092 -2.0014 -1.3246
14186TIP3   OH263972   5.856   5.858  16.079 -0.4927  0.2864  0.1394
14186TIP3    H163973   5.858   5.954  16.083 -0.2737  0.3224 -0.6055
14186TIP3    H263974   5.773   5.833  16.118 -1.0002  0.8388 -0.5711
14187TIP3   OH263975   1.827   3.936  11.634  0.3401  0.1157 -0.1558
14187TIP3    H163976   1.760   3.992  11.596 -3.3985 -2.5039  1.9096
14187TIP3    H263977   1.836   3.965  11.724  0.5721 -0.7285  0.1072
14188TIP3   OH263978   2.300   5.402   6.210  0.1515  0.6423 -0.0772
14188TIP3    H163979   2.355   5.323   6.201 -0.1045  0.3056  1.1072
14188TIP3    H263980   2.347   5.469   6.161 -1.2962 -0.9688 -4.1268
14189TIP3   OH263981   5.647   1.333   0.116  0.4119 -0.3178  0.2139
14189TIP3    H163982   5.726   1.378   0.144 -1.2723  2.9382  0.1841
14189TIP3    H263983   5.612   1.388   0.046 -1.5283 -2.0547 -0.2813
14190TIP3   OH263984   1.449   1.843   4.116  0.0048 -0.0720  0.3575
14190TIP3    H163985   1.434   1.935   4.094 -0.5828  0.1489  1.5790
14190TIP3    H263986   1.538   1.841   4.153  0.2901 -0.1344 -0.3079
14191TIP3   OH263987   5.002   3.210   5.159 -0.5100  0.3984 -0.3603
14191TIP3    H163988   5.027   3.118   5.167  0.9590  0.7117 -0.9349
14191TIP3    H263989   5.082   3.259   5.180 -1.3763  1.5657  0.3793
14192TIP3   OH263990   2.424   5.687  14.837  0.1791  0.1935  0.3569
14192TIP3    H163991   2.329   5.690  14.840  0.1757  0.6423 -0.0429
14192TIP3    H263992   2.447   5.602  14.876 -0.4342 -0.4482 -0.6264
14193TIP3   OH263993   6.638   2.569   3.387 -0.0184 -0.6075 -0.1083
14193TIP3    H163994   6.717   2.529   3.349 -1.8801 -3.2962 -1.4623
14193TIP3    H263995   6.626   2.524   3.470 -0.0908 -0.1270  0.1449
14194TIP3   OH263996   3.202   0.137   1.442 -0.9432  0.1265 -0.5101
14194TIP3    H163997   3.135   0.151   1.375 -0.1997 -0.3886 -1.3839
14194TIP3    H263998   3.166   0.068   1.498 -1.8233  0.9651  0.0020
14195TIP3   OH263999   6.818   1.171  14.594 -0.0274 -0.1829 -0.2470
14195TIP3    H164000   6.817   1.109  14.521 -0.7025 -2.2714  1.4598
14195TIP3    H264001   6.735   1.157  14.639  0.2143  1.3199  0.7437
14196TIP3   OH264002   0.358   1.859  14.477  0.5367  0.2898  0.0905
14196TIP3    H164003   0.381   1.806  14.401 -2.2103  0.8040 -1.2291
14196TIP3    H264004   0.351   1.797  14.549  2.8229 -0.2569 -0.0985
14197TIP3   OH264005   2.471   2.299  11.048 -0.1747 -0.2924 -0.1823
14197TIP3    H164006   2.471   2.383  11.002 -0.4915 -0.0900  0.1842
14197TIP3    H264007   2.539   2.248  11.004 -1.0922 -0.4444 -1.4710
14198TIP3   OH264008   1.744   2.987  14.753  0.0885 -0.2416 -0.3611
14198TIP3    H164009   1.802   3.061  14.736 -0.1736 -0.1051 -0.6979
14198TIP3    H264010   1.786   2.913  14.708  0.0200 -0.1501 -0.5782
14199TIP3   OH264011   3.081   1.238  14.377 -0.3314  0.3981  0.1124
14199TIP3    H164012   3.001   1.289  14.388 -0.5958 -0.0104  0.1130
14199TIP3    H264013   3.062   1.154  14.418 -0.1386  0.0580 -0.4778
14200TIP3   OH264014   3.668   0.589   5.718  0.0687 -0.1971  0.1176
14200TIP3    H164015   3.586   0.633   5.694 -0.6594 -0.7211  1.5770
14200TIP3    H264016   3.735   0.657   5.707 -0.6638  0.4838 -0.2892
14201TIP3   OH264017   4.532   5.568  17.026 -0.2882 -0.9624  0.6021
14201TIP3    H164018   4.606   5.578  16.967 -0.9010 -1.1716 -0.2323
14201TIP3    H264019   4.501   5.478  17.011 -1.2540 -0.5919  0.2570
14202TIP3   OH264020   3.464   5.336  16.967 -0.5022 -0.7378  0.3933
14202TIP3    H164021   3.422   5.306  16.886  0.9277 -0.8854 -0.3396
14202TIP3    H264022   3.397   5.387  17.012 -1.1653 -0.1128 -1.2027
14203TIP3   OH264023   3.225   2.290  14.367 -0.5723 -0.0301 -0.1700
14203TIP3    H164024   3.209   2.373  14.323 -1.5413  0.2200  0.6089
14203TIP3    H264025   3.173   2.226  14.319  0.1137 -0.1774 -0.7232
14204TIP3   OH264026   1.389   2.908   3.418  0.2499  0.2769 -0.1024
14204TIP3    H164027   1.327   2.958   3.471 -0.0275  1.6839 -1.6639
14204TIP3    H264028   1.411   2.967   3.346  2.6068 -0.5939 -0.1703
14205TIP3   OH264029   3.026   5.402  15.654  0.1479  0.6330 -0.4557
14205TIP3    H164030   3.077   5.336  15.701  0.9762  0.2620 -1.8307
14205TIP3    H264031   3.052   5.485  15.692  0.6823  0.3253 -0.1483
14206TIP3   OH264032   3.095   0.502   0.618 -0.2427 -0.9252 -0.1212
14206TIP3    H164033   3.138   0.557   0.552  0.5384 -1.4427 -0.0567
14206TIP3    H264034   3.166   0.471   0.673 -0.9548  0.1481  1.4887
14207TIP3   OH264035   6.705   1.962   1.350 -0.0879 -0.1261  0.4810
14207TIP3    H164036   6.765   1.970   1.424  0.0211 -1.5742  0.5782
14207TIP3    H264037   6.629   1.917   1.386 -0.6885  0.5169  0.0481
14208TIP3   OH264038   4.733   4.321  14.445  0.6624 -0.0390  0.0137
14208TIP3    H164039   4.803   4.384  14.462 -1.0028  1.8570  0.2890
14208TIP3    H264040   4.721   4.275  14.528  0.9475  0.3021  0.2453
14209TIP3   OH264041   5.016   2.431   3.783  0.7303  0.1908  0.5444
14209TIP3    H164042   4.996   2.507   3.838  1.3628  1.0850 -0.4217
14209TIP3    H264043   4.990   2.457   3.695 -1.9645 -1.8817  0.6158
14210TIP3   OH264044   6.598   4.494  16.879  0.2346  0.3016  0.0253
14210TIP3    H164045   6.584   4.459  16.967  0.0810 -1.8662 -0.8048
14210TIP3    H264046   6.690   4.478  16.861  0.5612  1.8110  0.1863
14211TIP3   OH264047   5.943   6.340   4.780  0.2627 -0.1898 -0.2261
14211TIP3    H164048   5.923   6.343   4.874  0.7044  0.0622 -0.1374
14211TIP3    H264049   6.036   6.360   4.775  1.5702 -5.1825 -0.2995
14212TIP3   OH264050   5.144   0.217  13.938  0.6032  0.7576 -0.4755
14212TIP3    H164051   5.055   0.251  13.927  0.9306  1.8742  0.2348
14212TIP3    H264052   5.173   0.251  14.023  1.0705 -1.0617  0.1541
14213TIP3   OH264053   4.432   0.788   4.198  0.9393  0.0867 -0.2002
14213TIP3    H164054   4.372   0.714   4.197  1.9047 -0.7094 -0.2151
14213TIP3    H264055   4.434   0.816   4.290  1.1952 -0.4235 -0.0495
14214TIP3   OH264056   0.149   2.602   4.266 -0.0470  0.6232  0.5357
14214TIP3    H164057   0.201   2.668   4.220 -0.6897  0.6575 -0.1577
14214TIP3    H264058   0.072   2.650   4.297  0.4467  0.6335  1.7969
14215TIP3   OH264059   6.119   1.958  15.626  0.5617 -0.3724 -0.5350
14215TIP3    H164060   6.173   1.896  15.578  1.4662  0.2581 -0.3588
14215TIP3    H264061   6.182   2.017  15.669 -0.2596  0.9089 -1.0227
14216TIP3   OH264062   1.997   2.106   3.319  0.0725 -0.1746  0.1699
14216TIP3    H164063   1.942   2.134   3.392 -0.0354  2.9401 -0.9640
14216TIP3    H264064   2.010   2.012   3.334 -2.2328 -0.2373  2.6263
14217TIP3   OH264065   1.785   1.025   1.967  0.0878  0.3920 -0.1865
14217TIP3    H164066   1.706   0.999   2.014  2.0883 -1.1578  2.5791
14217TIP3    H264067   1.845   1.057   2.035  1.7528  1.9238 -2.2158
14218TIP3   OH264068   6.046   5.195  15.178 -0.3023 -0.0813 -0.1190
14218TIP3    H164069   5.991   5.122  15.149  1.8532 -1.6353 -0.5758
14218TIP3    H264070   6.065   5.244  15.098 -1.0579  0.5137  0.0541
14219TIP3   OH264071   5.178   3.390   0.030  0.0923 -0.5922 -0.3876
14219TIP3    H164072   5.219   3.406  -0.055  0.5639 -0.1476 -0.0844
14219TIP3    H264073   5.213   3.306   0.058 -0.2964 -0.8875 -0.7593
14220TIP3   OH264074   1.055   2.601  16.341  0.0609 -0.4567 -0.1263
14220TIP3    H164075   0.987   2.536  16.321 -0.9531 -0.1487  2.0488
14220TIP3    H264076   1.105   2.609  16.259 -2.0973 -1.1782 -1.5975
14221TIP3   OH264077   5.245   3.485  10.571  0.0615  0.2454 -0.2115
14221TIP3    H164078   5.199   3.488  10.487  1.5117  0.4559 -1.0378
14221TIP3    H264079   5.278   3.395  10.577 -0.3729  0.1183  0.3252
14222TIP3   OH264080   0.474   0.211   6.571 -0.1747  0.1493 -0.0896
14222TIP3    H164081   0.499   0.245   6.657 -1.0808  0.9884 -0.1491
14222TIP3    H264082   0.485   0.116   6.579 -0.1058  0.2309  0.9046
14223TIP3   OH264083   1.448   4.118   1.929  0.3120 -0.0017 -0.0717
14223TIP3    H164084   1.393   4.178   1.980  1.4240  1.4969 -0.5464
14223TIP3    H264085   1.523   4.100   1.986 -0.5877 -1.9745  0.5464
14224TIP3   OH264086   3.425   1.694  16.099  0.3778  0.2760  0.4528
14224TIP3    H164087   3.394   1.717  16.186  0.8853  2.4905  0.1171
14224TIP3    H264088   3.473   1.771  16.069 -0.1197 -0.2413 -1.9478
14225TIP3   OH264089   2.528   1.721   0.903  0.1110 -0.2010 -0.2733
14225TIP3    H164090   2.473   1.750   0.830 -1.2753  0.0366  0.8414
14225TIP3    H264091   2.519   1.788   0.970 -0.1529 -1.3309  0.8658
14226TIP3   OH264092   5.896   5.205  16.690  0.5112  0.0240  0.2609
14226TIP3    H164093   5.801   5.212  16.676  0.2551 -0.9238  1.3920
14226TIP3    H264094   5.934   5.267  16.627 -0.8729  0.7600  0.1086
14227TIP3   OH264095   4.004   5.990  12.395 -0.5177 -0.0179  0.5033
14227TIP3    H164096   3.909   6.002  12.402 -0.7749 -0.2237 -1.8309
14227TIP3    H264097   4.026   5.929  12.465 -2.0944  0.0768  1.1169
14228TIP3   OH264098   0.482   4.221   4.226 -0.0267 -0.2203  0.3644
14228TIP3    H164099   0.539   4.152   4.193 -1.2802  0.0552 -2.7163
14228TIP3    H264100   0.408   4.175   4.265 -0.1754 -0.6528 -0.4025
14229TIP3   OH264101   3.079   5.648  15.743  0.0412 -0.1098 -0.0160
14229TIP3    H164102   3.134   5.719  15.711  0.8335  0.3714  2.2094
14229TIP3    H264103   2.990   5.682  15.737  0.2911  0.4785 -0.3987
14230TIP3   OH264104   1.406   2.408   4.022  0.2491 -0.4298 -0.2085
14230TIP3    H164105   1.417   2.329   4.075  5.0150 -0.8203 -1.3241
14230TIP3    H264106   1.447   2.478   4.073  1.6647 -0.0716 -1.7210
14231TIP3   OH264107   2.907   2.071   4.307  0.4680 -0.0559 -0.3922
14231TIP3    H164108   2.854   2.027   4.373  1.3444  0.7718  0.8906
14231TIP3    H264109   2.888   2.024   4.226 -1.1936 -0.6173  0.2885
14232TIP3   OH264110   2.806   4.990   4.120  0.0220 -0.2491  0.2822
14232TIP3    H164111   2.878   4.987   4.182  0.4023 -2.4419 -0.1695
14232TIP3    H264112   2.822   5.068   4.067  1.2613  0.0876  1.1228
14233TIP3   OH264113   1.356   5.911  14.361  0.0655 -0.7419 -0.7124
14233TIP3    H164114   1.390   5.911  14.272  2.2378 -2.6669  0.0312
14233TIP3    H264115   1.429   5.942  14.415 -0.5825 -1.3624  0.5773
14234TIP3   OH264116   0.901   4.997  16.908 -0.5105 -0.1746  0.1165
14234TIP3    H164117   0.931   4.909  16.887 -1.1958 -0.3544 -0.1265
14234TIP3    H264118   0.822   5.009  16.855 -2.5295 -0.7788  2.7562
14235TIP3   OH264119   2.654   5.025   1.681  0.2752  0.2424  0.0038
14235TIP3    H164120   2.723   5.071   1.728  1.4272 -0.1650 -1.2186
14235TIP3    H264121   2.617   5.090   1.622  0.1418  0.2598  0.1063
14236TIP3   OH264122   5.295   0.604   4.576  0.1452 -0.2165  0.3220
14236TIP3    H164123   5.199   0.603   4.579  0.0509 -0.8773 -1.5514
14236TIP3    H264124   5.319   0.512   4.565  0.9732 -0.0039  0.2914
14237TIP3   OH264125   4.175   3.336   5.575  0.3570 -0.2775  0.5899
14237TIP3    H164126   4.087   3.335   5.537 -0.6910  0.9611  2.7934
14237TIP3    H264127   4.179   3.257   5.629  0.6908 -0.4342  0.3422
14238TIP3   OH264128   2.771   0.218  16.836  0.7232 -0.0716 -0.4124
14238TIP3    H164129   2.702   0.227  16.900  0.5404  0.7405 -0.7105
14238TIP3    H264130   2.849   0.253  16.879  0.9652 -1.0481 -0.0509
14239TIP3   OH264131   6.089   4.881  14.025  0.3596 -0.3551  0.0389
14239TIP3    H164132   6.024   4.811  14.017  0.4604 -0.2527 -2.1605
14239TIP3    H264133   6.173   4.836  14.015  0.5215 -0.1563  0.4820
14240TIP3   OH264134   3.030   0.831  10.534 -0.1660 -0.0588  0.5084
14240TIP3    H164135   3.031   0.898  10.466 -1.2710 -1.5149 -1.0312
14240TIP3    H264136   3.012   0.880  10.615 -1.1623  1.4939 -0.5812
14241TIP3   OH264137   2.637   1.203  15.769 -0.1474  0.3113  0.3311
14241TIP3    H164138   2.671   1.199  15.859  0.2406  1.9018  0.2948
14241TIP3    H264139   2.689   1.272  15.728  0.4472 -1.1363 -1.4721
14242TIP3   OH264140   4.838   1.292  16.483 -0.0510 -0.1780 -0.2573
14242TIP3    H164141   4.788   1.361  16.527 -2.0990 -1.6708 -0.0856
14242TIP3    H264142   4.812   1.299  16.391 -0.3101 -0.7220 -0.2304
14243TIP3   OH264143   0.975   3.407   4.789 -0.2122  0.4542 -0.3630
14243TIP3    H164144   0.880   3.416   4.781 -0.0157  1.5137 -2.4022
14243TIP3    H264145   0.992   3.406   4.883 -2.3517 -1.4785  0.0787
14244TIP3   OH264146   1.672   5.984  12.785 -0.0531  0.2131 -0.3253
14244TIP3    H164147   1.654   5.978  12.691 -0.6562  0.5589 -0.2398
14244TIP3    H264148   1.712   5.901  12.808  0.3349  0.2279 -0.9424
14245TIP3   OH264149   1.556   1.874  12.141 -0.4799  0.5127 -0.2120
14245TIP3    H164150   1.605   1.897  12.062  2.2493  2.0548  1.7539
14245TIP3    H264151   1.559   1.778  12.143 -1.1596  0.3845 -2.2167
14246TIP3   OH264152   0.173   0.626   4.795  0.0509  0.0424 -0.6512
14246TIP3    H164153   0.104   0.630   4.862  1.0895  0.7710  0.4086
14246TIP3    H264154   0.225   0.549   4.820  0.9587  0.8300 -0.0819
14247TIP3   OH264155   3.697   5.394  11.148 -0.0094  0.0733 -0.2014
14247TIP3    H164156   3.705   5.394  11.053 -1.4997  2.3071 -0.4043
14247TIP3    H264157   3.617   5.344  11.165  0.5634 -0.8082 -0.0662
14248TIP3   OH264158   1.201   2.610   6.361 -0.4497  0.2740  0.4324
14248TIP3    H164159   1.204   2.699   6.325  0.3960 -0.0378 -0.3247
14248TIP3    H264160   1.113   2.578   6.339 -1.3172  1.4436  2.0664
14249TIP3   OH264161   3.586   5.185   4.853  0.5596 -0.1280  0.0783
14249TIP3    H164162   3.545   5.176   4.940  1.9457  0.6549  0.8350
14249TIP3    H264163   3.573   5.277   4.830  1.6891  0.0801  0.2350
14250TIP3   OH264164   3.331   3.678  12.270 -0.7490 -0.6552  0.5658
14250TIP3    H164165   3.362   3.699  12.358 -2.5687  0.6248  0.9797
14250TIP3    H264166   3.314   3.584  12.272 -1.8021 -0.4658  1.9685
14251TIP3   OH264167   5.880   2.962  13.599  0.2784 -0.4420  0.0815
14251TIP3    H164168   5.844   2.980  13.686  0.1018 -1.3536  0.2049
14251TIP3    H264169   5.934   3.038  13.580  1.4661 -0.8540  1.6047
14252TIP3   OH264170   6.577   4.252   2.677  0.0022  0.2980 -0.4811
14252TIP3    H164171   6.549   4.317   2.742  0.0250 -0.5391  0.3925
14252TIP3    H264172   6.673   4.257   2.678 -0.0054  0.4843 -0.6600
14253TIP3   OH264173   5.465   5.376  15.544 -0.0161  0.1880  0.6302
14253TIP3    H164174   5.451   5.450  15.486 -0.3805  1.8749  2.7482
14253TIP3    H264175   5.545   5.398  15.593  1.2025 -1.9216 -0.2474
14254TIP3   OH264176   3.284   2.068   2.687  0.5087 -0.4369 -0.0443
14254TIP3    H164177   3.367   2.026   2.666 -0.4538 -1.7759 -1.3749
14254TIP3    H264178   3.295   2.159   2.659  1.7667 -0.3888  0.5324
14255TIP3   OH264179   1.009   3.448   3.281 -0.2050 -0.0285  0.2306
14255TIP3    H164180   0.937   3.493   3.237 -1.6947 -0.7522  1.8171
14255TIP3    H264181   1.046   3.513   3.341  0.6073  0.3893 -0.6927
14256TIP3   OH264182   3.765   6.645  11.965 -0.6481  0.3049 -0.4764
14256TIP3    H164183   3.695   6.678  12.021 -0.3794 -0.4337  0.3142
14256TIP3    H264184   3.791   6.563  12.005 -0.4788 -0.2713 -1.7272
14257TIP3   OH264185   0.010   6.708  16.017 -0.3127  0.1146 -0.3546
14257TIP3    H164186   0.030   6.722  16.110 -1.2947 -0.0440 -0.1120
14257TIP3    H264187   0.091   6.731  15.972 -0.0268  0.8236  0.4911
14258TIP3   OH264188   3.034   3.588  12.240 -0.6652 -0.3117 -0.0430
14258TIP3    H164189   3.066   3.630  12.160  0.5224  1.0325  1.0710
14258TIP3    H264190   3.103   3.525  12.263 -0.4474  0.1236  0.5170
14259TIP3   OH264191   6.803   4.599   1.198  0.2278 -0.2106 -0.3314
14259TIP3    H164192   6.768   4.602   1.287 -0.9079  1.4065 -0.7822
14259TIP3    H264193   6.863   4.525   1.198 -0.6708 -0.9984  1.4368
14260TIP3   OH264194   0.035   0.352  12.633 -0.5185 -0.1269 -0.5699
14260TIP3    H164195   0.045   0.307  12.717 -0.2350  0.9609  0.0038
14260TIP3    H264196  -0.025   0.424  12.651  0.0182  0.4819 -1.1545
14261TIP3   OH264197   2.070   2.972  12.962  0.0390 -0.4944 -0.2498
14261TIP3    H164198   2.158   3.006  12.977  0.5966 -1.2355 -1.6249
14261TIP3    H264199   2.054   2.987  12.869 -1.5007  0.0685  0.0755
14262TIP3   OH264200   6.571   4.030   3.477 -0.8284  0.3107  0.0558
14262TIP3    H164201   6.503   3.973   3.441 -1.8451  0.4291  1.6536
14262TIP3    H264202   6.558   4.025   3.572  1.7580 -0.0498  0.4529
14263TIP3   OH264203   2.833   2.461   1.247 -0.0893 -0.2702 -0.1883
14263TIP3    H164204   2.862   2.549   1.272  2.1109 -1.0704  0.3271
14263TIP3    H264205   2.794   2.472   1.161  0.6473  1.1279 -0.3735
14264TIP3   OH264206   0.542   2.209  14.916  0.0152 -0.4102  0.6617
14264TIP3    H164207   0.451   2.188  14.898  0.0893  0.0221 -0.2754
14264TIP3    H264208   0.539   2.294  14.961 -0.0200 -0.0719  0.0362
14265TIP3   OH264209   0.593   2.778   1.149  0.1827 -0.1032  0.0386
14265TIP3    H164210   0.644   2.739   1.078  0.8080  1.3853 -0.3619
14265TIP3    H264211   0.644   2.760   1.228 -0.1911 -1.1929  0.0565
14266TIP3   OH264212   5.267   0.998   4.321 -0.0632  0.6018  0.8980
14266TIP3    H164213   5.339   1.041   4.276 -0.0316 -1.3920 -1.1207
14266TIP3    H264214   5.240   0.927   4.262 -1.9998 -0.3135  2.7347
14267TIP3   OH264215   5.452   2.136  12.186  0.0762 -0.1974  0.4691
14267TIP3    H164216   5.540   2.140  12.147  0.6360 -1.9691  1.4504
14267TIP3    H264217   5.393   2.139  12.111  1.1021 -2.6231 -0.5552
14268TIP3   OH264218   1.338   1.915   1.520 -0.3383  0.0194 -0.0937
14268TIP3    H164219   1.303   1.832   1.553 -0.8875  0.3450  0.1697
14268TIP3    H264220   1.302   1.922   1.431 -0.7189  0.2177  0.0729
14269TIP3   OH264221   6.642   4.599   2.118 -0.8800 -0.0061 -0.3124
14269TIP3    H164222   6.715   4.659   2.134 -1.3824  0.2407  1.2380
14269TIP3    H264223   6.614   4.572   2.206 -2.8505  0.1548 -0.8521
14270TIP3   OH264224   6.471   6.057   1.799 -0.1567  0.7681  0.0013
14270TIP3    H164225   6.473   6.071   1.704 -1.0639  0.1837 -0.1189
14270TIP3    H264226   6.548   6.003   1.817 -1.0989 -0.8939 -0.7331
14271TIP3   OH264227   0.820   2.787   4.757  0.0267  0.2065 -0.3368
14271TIP3    H164228   0.855   2.707   4.718 -0.1851  0.3990 -0.9394
14271TIP3    H264229   0.838   2.855   4.692 -1.6237  0.2718 -0.7730
14272TIP3   OH264230   4.194   6.393  14.226 -0.3795 -0.0561  0.3389
14272TIP3    H164231   4.175   6.486  14.213  0.2532 -0.1168 -1.2078
14272TIP3    H264232   4.144   6.348  14.158  0.4402 -0.7138  0.1470
14273TIP3   OH264233   1.477   6.215  13.836 -0.0148 -0.1556  0.0477
14273TIP3    H164234   1.392   6.248  13.865 -0.3485  0.8075 -1.8657
14273TIP3    H264235   1.535   6.291  13.839  0.7143 -0.7203  0.9712
14274TIP3   OH264236   5.634   5.303  12.471 -0.2788  0.2429 -0.1540
14274TIP3    H164237   5.698   5.253  12.522 -0.8408 -1.1139 -0.7187
14274TIP3    H264238   5.567   5.328  12.535 -0.0595  0.1372  0.1186
14275TIP3   OH264239   0.072   1.645  12.487 -0.8040  0.0844  0.4617
14275TIP3    H164240   0.060   1.715  12.551 -1.0601  0.0303  0.4727
14275TIP3    H264241   0.165   1.624  12.492 -0.6379  0.7127  0.1590
14276TIP3   OH264242   1.391   6.782   3.254 -0.4177  0.1967 -0.0629
14276TIP3    H164243   1.394   6.843   3.180  0.0285 -0.4175 -0.5622
14276TIP3    H264244   1.372   6.697   3.213  0.9149 -0.3430  0.4074
14277TIP3   OH264245   4.623   2.762  12.068  0.0733 -0.2100  0.0277
14277TIP3    H164246   4.630   2.667  12.062  3.1563 -0.1530  1.2847
14277TIP3    H264247   4.532   2.777  12.092  0.2844 -3.1276  3.5711
14278TIP3   OH264248   3.829   6.130  15.200  0.6782 -0.0025 -0.7318
14278TIP3    H164249   3.862   6.162  15.116  0.8531  1.8301 -0.0083
14278TIP3    H264250   3.882   6.176  15.265  1.5681 -2.4896  0.4287
14279TIP3   OH264251   2.978   4.549  16.119  0.0400  0.7243  0.2071
14279TIP3    H164252   3.001   4.517  16.032 -0.1646  0.1185  0.3696
14279TIP3    H264253   2.885   4.573  16.112 -0.4160 -0.7862  0.6530
14280TIP3   OH264254   3.975   5.791  12.961 -0.3554 -0.5505  0.2925
14280TIP3    H164255   4.060   5.768  12.924 -1.3423 -1.2283 -1.6741
14280TIP3    H264256   3.992   5.803  13.054  2.3959  1.9306 -0.3924
14281TIP3   OH264257   2.852   2.239  12.273  0.1563 -0.3819  0.5118
14281TIP3    H164258   2.849   2.196  12.187  2.6825  0.6272 -0.1657
14281TIP3    H264259   2.942   2.228  12.302 -0.4810 -0.0901  2.7619
14282TIP3   OH264260   1.188   0.236  11.299  0.3049 -0.3683  0.0040
14282TIP3    H164261   1.156   0.163  11.245  1.8296 -0.7546 -0.4337
14282TIP3    H264262   1.157   0.217  11.387 -1.4562 -0.2050 -0.5492
14283TIP3   OH264263   1.428   6.381  13.530  0.1968  0.0588 -0.4089
14283TIP3    H164264   1.377   6.355  13.606  3.6777  1.2900  2.6620
14283TIP3    H264265   1.394   6.467  13.506 -1.6528 -0.8030 -1.0715
14284TIP3   OH264266   4.717   3.432   1.115  0.5135  0.1521 -0.2535
14284TIP3    H164267   4.744   3.388   1.196 -0.7988  0.6947  0.5021
14284TIP3    H264268   4.741   3.523   1.129  1.7201 -0.0040 -1.1483
14285TIP3   OH264269   4.990   1.773   0.995  0.1121 -0.3919  0.0376
14285TIP3    H164270   5.015   1.865   0.980 -0.3890 -0.2111  0.3081
14285TIP3    H264271   5.074   1.727   1.005  0.3484  0.2972  1.4695
14286TIP3   OH264272   1.856   6.296   1.073  0.3564 -0.1295 -0.1906
14286TIP3    H164273   1.850   6.290   0.978  1.6265  0.2751 -0.3182
14286TIP3    H264274   1.799   6.227   1.106  0.2367 -0.5503 -1.2565
14287TIP3   OH264275   2.170   3.736   1.655 -0.1066 -0.0506 -0.4504
14287TIP3    H164276   2.164   3.796   1.730 -1.2546  1.0242 -1.3746
14287TIP3    H264277   2.104   3.767   1.594  1.6052 -0.1421 -2.4571
14288TIP3   OH264278   0.981   0.974   1.002 -0.2550 -0.0055  0.2648
14288TIP3    H164279   0.947   0.898   0.954 -1.2573  1.0363 -0.7175
14288TIP3    H264280   0.962   1.049   0.945  0.3109  1.0461  1.4221
14289TIP3   OH264281   2.104   0.737   2.481 -0.4602 -0.1026  0.0560
14289TIP3    H164282   2.130   0.786   2.403  0.2411 -1.0557 -0.3204
14289TIP3    H264283   2.015   0.707   2.462 -0.9615  1.1259  0.3547
14290TIP3   OH264284   0.944   1.033  15.086 -0.2795 -0.2346  1.0651
14290TIP3    H164285   0.877   1.100  15.070 -0.8567 -1.2436 -1.1294
14290TIP3    H264286   0.910   0.954  15.044  2.2216 -0.8123 -0.1307
14291TIP3   OH264287   6.641   2.294   5.379  0.4890  0.0465 -0.0532
14291TIP3    H164288   6.716   2.255   5.424  0.6555 -0.1496 -0.4959
14291TIP3    H264289   6.567   2.277   5.437  0.8012  0.3089  0.4232
14292TIP3   OH264290   1.240   6.239  15.620  0.5254 -0.1970 -0.0916
14292TIP3    H164291   1.314   6.242  15.680 -0.4512  1.2667  1.1328
14292TIP3    H264292   1.167   6.206  15.674  0.2799 -1.7059 -1.2857
14293TIP3   OH264293   0.946   0.402  15.906 -0.8131  0.2173  0.4144
14293TIP3    H164294   0.872   0.415  15.847 -0.4017 -0.3538 -0.2430
14293TIP3    H264295   0.998   0.333  15.864  0.0818  0.6041  0.8662
14294TIP3   OH264296   0.222   0.250   0.272 -0.1352  0.7015  0.0166
14294TIP3    H164297   0.273   0.283   0.346 -1.2880  1.7971  0.3522
14294TIP3    H264298   0.248   0.158   0.264  2.6072  1.4305 -0.4586
14295TIP3   OH264299   1.893   4.848  11.583 -0.7536 -0.1466 -0.4452
14295TIP3    H164300   1.815   4.889  11.619 -0.8584 -0.1246 -0.6962
14295TIP3    H264301   1.964   4.874  11.642 -1.1855 -1.4704  0.7087
14296TIP3   OH264302   1.804   1.846   0.939  0.1462 -0.7083  0.1397
14296TIP3    H164303   1.866   1.898   0.990 -0.9575  0.4788  0.3172
14296TIP3    H264304   1.819   1.756   0.969 -0.8713 -0.0124  3.1126
14297TIP3   OH264305   0.111   1.222   0.543 -0.4184 -0.4168  0.0558
14297TIP3    H164306   0.134   1.301   0.592 -0.6557 -0.3971  0.1419
14297TIP3    H264307   0.186   1.164   0.554 -1.0582 -0.9984  1.7030
14298TIP3   OH264308   5.968   3.989   2.412  0.1280 -0.5948  0.8661
14298TIP3    H164309   5.975   4.078   2.377  0.5065 -0.5027  1.1813
14298TIP3    H264310   6.058   3.964   2.433  0.0891 -1.2629  0.2535
14299TIP3   OH264311   6.055   6.189   5.671 -0.1643 -0.1600 -0.2170
14299TIP3    H164312   6.076   6.162   5.582  3.6955  2.4214 -0.3545
14299TIP3    H264313   6.018   6.277   5.660  2.3472  1.1139  0.6161
14300TIP3   OH264314   6.402   3.849  13.962  0.8510 -0.3049 -0.0145
14300TIP3    H164315   6.462   3.868  13.891  1.1381  2.1525  0.7983
14300TIP3    H264316   6.329   3.803  13.920  2.5146 -1.9586 -1.2667
14301TIP3   OH264317   0.458   4.806  11.353  0.1757  0.1671  0.5583
14301TIP3    H164318   0.491   4.821  11.265 -0.2076 -4.6051 -0.6979
14301TIP3    H264319   0.365   4.829  11.348  0.7365  2.7201  0.7133
14302TIP3   OH264320   6.156   4.251   4.029  0.2242 -0.4366 -0.0870
14302TIP3    H164321   6.091   4.221   3.966  2.3313 -1.7710 -1.7449
14302TIP3    H264322   6.207   4.317   3.982  0.7459 -0.1744  0.8217
14303TIP3   OH264323   0.589   1.994   1.414  0.3575  0.7904  0.2055
14303TIP3    H164324   0.529   2.053   1.459  1.7596  1.9180  0.6813
14303TIP3    H264325   0.592   1.915   1.468 -0.8926  0.5939  0.0089
14304TIP3   OH264326   6.276   1.215  13.964 -0.3422  0.2078 -0.4573
14304TIP3    H164327   6.349   1.264  14.003 -1.1707  0.0220  1.4126
14304TIP3    H264328   6.218   1.283  13.929 -0.2963  0.4489 -0.0660
14305TIP3   OH264329   5.035   0.761   1.778 -0.1435 -0.1254  0.7335
14305TIP3    H164330   4.994   0.700   1.839 -1.3687  0.5998  0.6710
14305TIP3    H264331   5.105   0.803   1.829  0.1671 -0.9755  1.0191
14306TIP3   OH264332   3.724   1.215   4.718 -0.2925  0.3982 -0.6178
14306TIP3    H164333   3.740   1.277   4.647  2.0569 -0.5090 -0.9693
14306TIP3    H264334   3.778   1.247   4.790  0.0881 -0.5933 -0.4450
14307TIP3   OH264335   3.297   4.757   3.955 -0.7014  0.3398  0.4529
14307TIP3    H164336   3.345   4.701   4.015 -0.6850 -0.5833 -0.3837
14307TIP3    H264337   3.206   4.754   3.986 -0.7370 -0.3299  0.2928
14308TIP3   OH264338   6.497   3.298   4.702 -0.4199  0.1424 -0.2582
14308TIP3    H164339   6.450   3.306   4.784 -0.6947 -0.2348 -0.3779
14308TIP3    H264340   6.488   3.384   4.661  0.8391  0.7679  0.6872
14309TIP3   OH264341   5.579   3.499  14.407 -0.3951  0.2843 -0.0813
14309TIP3    H164342   5.663   3.500  14.452 -0.2761 -1.2679 -0.2271
14309TIP3    H264343   5.601   3.494  14.315 -0.6144 -1.6668 -0.0588
14310TIP3   OH264344   3.990   3.047  15.819 -0.3556  0.1454  0.0380
14310TIP3    H164345   3.948   3.096  15.748 -0.4836 -0.5930 -0.4047
14310TIP3    H264346   3.961   2.956  15.806 -0.1081 -0.0540  0.8350
14311TIP3   OH264347   5.528   5.039   1.571  0.0348  0.1638 -0.5981
14311TIP3    H164348   5.622   5.029   1.585  0.0941  0.6354 -0.6528
14311TIP3    H264349   5.521   5.084   1.487 -0.2544 -0.3709 -0.8619
14312TIP3   OH264350   0.162   0.232   5.178  0.0145  0.0375 -0.2213
14312TIP3    H164351   0.124   0.270   5.098  0.1742  1.1716  0.2243
14312TIP3    H264352   0.196   0.307   5.226  0.0552 -0.6480  0.8525
14313TIP3   OH264353   4.844   1.045  14.260 -0.3305  0.4412 -0.2915
14313TIP3    H164354   4.806   0.959  14.282 -0.5848  0.5821 -0.1769
14313TIP3    H264355   4.780   1.108  14.292 -0.0000  0.6830 -0.0978
14314TIP3   OH264356   3.711   5.407   0.270 -0.0540  0.3785  0.0711
14314TIP3    H164357   3.760   5.445   0.343 -0.1464  0.4322  0.1047
14314TIP3    H264358   3.762   5.329   0.246 -0.3389  0.0286  0.5745
14315TIP3   OH264359   1.458   3.248  13.162  0.2128 -0.4924 -0.1577
14315TIP3    H164360   1.496   3.328  13.198 -1.3521  0.4252 -0.4640
14315TIP3    H264361   1.461   3.186  13.235  3.9346 -1.1456 -0.6590
14316TIP3   OH264362   4.924   6.279   2.534 -0.2781 -0.5554  1.2808
14316TIP3    H164363   4.984   6.350   2.554 -0.3101 -0.2939  0.4863
14316TIP3    H264364   4.896   6.296   2.444 -0.8038 -1.2005  1.3146
14317TIP3   OH264365   3.777   4.762  11.192  0.1303 -0.5097  0.2467
14317TIP3    H164366   3.745   4.686  11.144 -0.7743 -0.5597  0.9086
14317TIP3    H264367   3.728   4.836  11.156  0.1750 -0.4062  0.3943
14318TIP3   OH264368   6.022   5.505   1.510 -0.5953 -0.0592  0.4205
14318TIP3    H164369   6.070   5.496   1.427  1.7289 -0.5912  1.7350
14318TIP3    H264370   6.024   5.599   1.528 -0.4055 -0.0314  0.2650
14319TIP3   OH264371   6.018   0.939  13.878 -0.4538  0.5816 -0.0872
14319TIP3    H164372   5.933   0.897  13.866  0.0247 -0.1634 -0.9593
14319TIP3    H264373   6.015   0.974  13.967 -2.2542  1.9313 -0.6342
14320TIP3   OH264374   5.034   6.781   4.981 -0.3382 -0.0504  0.4246
14320TIP3    H164375   5.027   6.847   5.049  1.0959  0.3455  0.2154
14320TIP3    H264376   5.128   6.766   4.971 -0.5318 -0.4137 -1.1526
14321TIP3   OH264377   0.946   4.560  12.328  0.6020  0.3162  0.4007
14321TIP3    H164378   1.029   4.591  12.365 -0.9418  1.4893  3.1546
14321TIP3    H264379   0.919   4.628  12.267  0.6643  0.9559  1.0825
14322TIP3   OH264380   1.383   5.629   2.598 -0.0147  0.4291  0.7188
14322TIP3    H164381   1.377   5.536   2.623  0.9803 -0.0308 -0.6731
14322TIP3    H264382   1.292   5.658   2.591 -0.3771  0.2024  3.3128
14323TIP3   OH264383   5.686   6.288  11.340  0.4764 -0.3332 -0.0971
14323TIP3    H164384   5.615   6.342  11.305 -0.8228 -1.3706  0.8597
14323TIP3    H264385   5.687   6.210  11.283  1.4728  0.0594 -0.6566
14324TIP3   OH264386   4.153   3.822   1.194 -0.3702 -0.2307 -0.2142
14324TIP3    H164387   4.190   3.753   1.250 -1.9156 -2.3599 -1.6598
14324TIP3    H264388   4.058   3.814   1.205 -0.7451 -0.6647 -2.9506
14325TIP3   OH264389   1.839   5.390   0.511 -0.3531  0.3861 -0.3055
14325TIP3    H164390   1.748   5.396   0.480 -0.1333  1.1078 -0.8477
14325TIP3    H264391   1.891   5.421   0.437  0.3010  0.5787  0.2308
14326TIP3   OH264392   2.390   6.128  13.969 -0.1177  0.1737  0.3459
14326TIP3    H164393   2.364   6.111  13.878  0.2206  0.6642  0.1493
14326TIP3    H264394   2.485   6.122  13.968 -0.1889 -1.6630  1.0716
14327TIP3   OH264395   5.089   0.021  12.021 -0.4900 -0.3934  0.0371
14327TIP3    H164396   5.039   0.096  11.991  0.1452  0.2051  0.4587
14327TIP3    H264397   5.130  -0.014  11.941 -1.4174 -0.7877 -0.2806
14328TIP3   OH264398   6.511   3.256   0.909 -0.3511 -0.7787  0.5684
14328TIP3    H164399   6.433   3.260   0.853 -0.2285  0.6907  0.4826
14328TIP3    H264400   6.554   3.175   0.883 -1.8141 -1.6012  0.5704
14329TIP3   OH264401   4.777   2.809  13.388 -0.0438  0.1520  0.1105
14329TIP3    H164402   4.870   2.829  13.387 -0.3801  1.8600 -0.8114
14329TIP3    H264403   4.762   2.761  13.306 -0.2294  1.3685 -0.6004
14330TIP3   OH264404   4.884   1.786  14.763 -0.3254 -0.3117 -0.5781
14330TIP3    H164405   4.879   1.710  14.705  0.9193 -0.2651 -0.7808
14330TIP3    H264406   4.968   1.827  14.742 -0.1715  0.1164  0.7433
14331TIP3   OH264407   6.444   4.283  12.121  0.4872 -0.2483 -0.0138
14331TIP3    H164408   6.513   4.339  12.156 -0.0958  0.0439  0.7061
14331TIP3    H264409   6.371   4.343  12.104  0.3993 -0.5562 -0.7316
14332TIP3   OH264410   6.591   6.757   1.321  0.0703 -0.4667 -0.8723
14332TIP3    H164411   6.569   6.820   1.390 -1.5564  0.1907 -1.9347
14332TIP3    H264412   6.627   6.682   1.369 -0.9166  0.0028  0.7103
14333TIP3   OH264413   2.543   3.458   5.485 -0.0755 -0.3837 -0.0838
14333TIP3    H164414   2.635   3.469   5.511 -0.4088  0.4989  0.8037
14333TIP3    H264415   2.525   3.366   5.500  0.3167 -0.3068  0.9482
14334TIP3   OH264416   2.639   5.962  16.059  0.5014 -0.3416  0.2628
14334TIP3    H164417   2.651   6.057  16.061  0.0186 -0.2861  0.6726
14334TIP3    H264418   2.584   5.943  16.135  1.2428 -1.0512  0.6289
14335TIP3   OH264419   6.217   3.828   2.979 -0.0334 -0.9161 -0.1607
14335TIP3    H164420   6.165   3.810   3.058 -2.4393 -0.8441 -1.6224
14335TIP3    H264421   6.268   3.748   2.966  1.6722 -0.3454  2.2803
14336TIP3   OH264422   6.257   3.499  11.137 -0.2616  0.1102  0.0555
14336TIP3    H164423   6.307   3.441  11.079 -0.7562 -0.3533  0.0752
14336TIP3    H264424   6.310   3.577  11.146  0.6804 -0.5572  0.4561
14337TIP3   OH264425   4.877   5.171  15.803  0.0263  0.4244 -0.3222
14337TIP3    H164426   4.809   5.227  15.839  0.6380  0.7320  0.3709
14337TIP3    H264427   4.936   5.231  15.757  0.2272  0.2522 -0.2915
14338TIP3   OH264428   2.129   1.672  14.471  0.5389  0.3157  0.6420
14338TIP3    H164429   2.199   1.629  14.421 -1.1099 -0.7078 -0.9237
14338TIP3    H264430   2.054   1.614  14.462  0.0209  0.1821  4.2161
14339TIP3   OH264431   2.832   2.666  12.092  0.3794 -0.4887 -0.1512
14339TIP3    H164432   2.891   2.624  12.030  1.5869  1.1737 -0.1972
14339TIP3    H264433   2.794   2.739  12.044 -1.9977 -1.6636 -0.2008
14340TIP3   OH264434   2.119   4.594   3.376 -0.0971 -0.1986 -0.1176
14340TIP3    H164435   2.035   4.579   3.333  0.3145 -0.3325 -0.8815
14340TIP3    H264436   2.127   4.689   3.383 -0.2615 -0.1838 -0.1371
14341TIP3   OH264437   3.516   5.230   0.589 -0.1549  0.4457  0.2356
14341TIP3    H164438   3.540   5.323   0.585  1.1269  0.1142 -0.3466
14341TIP3    H264439   3.507   5.212   0.683  0.5381  0.9428  0.4086
14342TIP3   OH264440   5.764   3.395   5.692  0.5811  0.6897  0.2137
14342TIP3    H164441   5.740   3.471   5.744 -1.5374  0.4517 -0.3119
14342TIP3    H264442   5.778   3.430   5.604 -0.2743  0.5208 -0.0013
14343TIP3   OH264443   0.608   2.724   4.973  0.0307 -0.4010 -0.1521
14343TIP3    H164444   0.646   2.771   4.899 -1.6039  0.8963 -0.2227
14343TIP3    H264445   0.554   2.789   5.018  0.2979 -1.3786  1.6990
14344TIP3   OH264446   0.752   2.993  11.487 -1.2522  0.1669 -0.5986
14344TIP3    H164447   0.703   2.993  11.568 -0.5900  0.3696 -0.1886
14344TIP3    H264448   0.842   3.016  11.513 -0.0958 -3.4704 -0.8070
14345TIP3   OH264449   0.535   4.045   0.330 -0.7038 -0.2375  0.0387
14345TIP3    H164450   0.596   4.106   0.370 -1.0472  0.1484 -0.0206
14345TIP3    H264451   0.449   4.075   0.359 -0.9288 -0.1941 -0.6629
14346TIP3   OH264452   0.976   2.097  12.221 -0.9304  0.0425 -0.7573
14346TIP3    H164453   1.040   2.167  12.226 -1.2665  0.2793  0.9014
14346TIP3    H264454   0.922   2.108  12.300 -1.0521 -2.0052 -0.5002
14347TIP3   OH264455   4.759   5.457   0.258  0.4796  0.7114 -0.2911
14347TIP3    H164456   4.802   5.538   0.284 -0.0370  0.7874  0.3431
14347TIP3    H264457   4.733   5.473   0.167 -1.0335  1.9025  0.2849
14348TIP3   OH264458   2.835   3.769   2.775  0.4345 -0.6711  0.1645
14348TIP3    H164459   2.859   3.838   2.836  0.0306 -1.5296  1.3541
14348TIP3    H264460   2.746   3.792   2.746  1.3097  0.7204 -1.6102
14349TIP3   OH264461   2.040   4.126   1.567 -0.3405  0.6836  0.2440
14349TIP3    H164462   2.021   4.038   1.534 -0.6612  1.0932 -0.7148
14349TIP3    H264463   2.135   4.128   1.574 -0.3331  0.2416  0.3216
14350TIP3   OH264464   0.441   2.811   5.431  0.1356 -0.2729  0.4783
14350TIP3    H164465   0.523   2.812   5.382  1.0479  2.0746  1.8671
14350TIP3    H264466   0.400   2.727   5.409  0.9573  0.1789 -3.3690
14351TIP3   OH264467   1.008   1.532   1.424  0.7237  0.1140  0.1951
14351TIP3    H164468   0.992   1.623   1.402 -1.2537 -0.2872 -0.2758
14351TIP3    H264469   1.035   1.533   1.516 -1.1966  1.0557  0.7906
14352TIP3   OH264470   0.114   5.088   1.127 -0.1203  0.3602  0.2482
14352TIP3    H164471   0.139   5.132   1.209 -0.7902  0.5178  0.3704
14352TIP3    H264472   0.059   5.015   1.155  0.3709 -0.1212 -0.0094
14353TIP3   OH264473   0.021   2.459  10.990  0.6834  0.2902 -0.0448
14353TIP3    H164474   0.017   2.552  11.011  0.0411  0.7122 -1.8855
14353TIP3    H264475  -0.035   2.449  10.913  1.8138 -1.3586 -0.7161
14354TIP3   OH264476   6.514   5.092  13.681 -0.0300 -0.0574  0.1890
14354TIP3    H164477   6.545   5.050  13.601 -1.5615  0.0958 -0.5252
14354TIP3    H264478   6.590   5.142  13.713  0.5260  0.1169 -1.3258
14355TIP3   OH264479   5.983   0.919  12.015  0.1129 -0.0434 -0.3751
14355TIP3    H164480   5.943   1.002  12.042  0.3547  0.3944 -1.3187
14355TIP3    H264481   6.019   0.937  11.928 -0.3043 -1.3025 -0.8302
14356TIP3   OH264482   0.936   1.780  12.141  0.0319  0.7947 -0.3108
14356TIP3    H164483   0.928   1.875  12.153 -0.9406  0.6651  0.2234
14356TIP3    H264484   0.992   1.770  12.064  1.9439  1.7645  0.8704
14357TIP3   OH264485   3.442   3.829   2.629  0.2785 -0.7769  0.1957
14357TIP3    H164486   3.518   3.829   2.572  0.2661 -2.9581  0.1003
14357TIP3    H264487   3.388   3.757   2.597 -1.0070 -0.3631  1.3296
14358TIP3   OH264488   1.906   3.920  13.602  0.0633  0.0918  0.6710
14358TIP3    H164489   1.968   3.885  13.666  0.8658 -0.9591 -0.6595
14358TIP3    H264490   1.954   3.991  13.559 -0.4413  0.7276  1.1324
14359TIP3   OH264491   4.734   1.867  11.785 -0.5501  0.1097 -0.0866
14359TIP3    H164492   4.697   1.804  11.846  0.1201  0.6002  0.8447
14359TIP3    H264493   4.687   1.948  11.802 -0.4083  0.2311 -0.2671
14360TIP3   OH264494   2.685   4.508   3.349  0.3148 -0.0503  0.0727
14360TIP3    H164495   2.620   4.579   3.349  1.8836  1.4690  0.9263
14360TIP3    H264496   2.692   4.482   3.441  1.1162  0.0244  0.0428
14361TIP3   OH264497   6.549   5.579   4.667 -0.2807 -0.1992  0.0908
14361TIP3    H164498   6.488   5.582   4.741  0.1362 -0.3608  0.4529
14361TIP3    H264499   6.627   5.626   4.699 -0.6390  1.0378 -0.7766
14362TIP3   OH264500   0.718   5.352   0.366  0.3619 -0.2222 -0.3037
14362TIP3    H164501   0.655   5.325   0.432 -0.2935  1.3300 -0.2749
14362TIP3    H264502   0.666   5.366   0.287  0.5141  1.8707 -0.0663
14363TIP3   OH264503   4.122   1.936  10.634 -0.1850 -0.2822 -0.2000
14363TIP3    H164504   4.142   1.870  10.701 -0.4197 -0.7538 -0.5817
14363TIP3    H264505   4.196   1.932  10.574 -0.8251 -1.1812 -0.9628
14364TIP3   OH264506   1.006   0.356   2.302  0.2653  0.2912  0.0429
14364TIP3    H164507   0.970   0.294   2.238 -0.6730 -0.3157  1.1208
14364TIP3    H264508   1.100   0.360   2.281  0.0324 -0.1026 -1.1814
14365TIP3   OH264509   0.919   1.975   1.049  0.3423 -0.0346  0.3021
14365TIP3    H164510   0.878   2.050   1.008  0.3410  0.4882  1.2250
14365TIP3    H264511   1.007   2.005   1.072  0.4401 -0.4013  0.4158
14366TIP3   OH264512   3.616   4.854  13.004  0.2627 -0.2965 -0.3477
14366TIP3    H164513   3.536   4.826  12.960 -0.5026  3.0973 -1.3832
14366TIP3    H264514   3.682   4.789  12.978 -2.2283 -3.8785  1.4682
14367TIP3   OH264515   0.656   1.241   5.753  0.2365  0.4993 -0.6951
14367TIP3    H164516   0.681   1.314   5.809 -1.2971  0.2535  0.3549
14367TIP3    H264517   0.595   1.190   5.805  0.4744 -0.9779 -1.7932
14368TIP3   OH264518   6.254   0.626   2.872  0.5281  0.0541 -0.0353
14368TIP3    H164519   6.273   0.543   2.829  0.9937 -0.6110  1.3913
14368TIP3    H264520   6.234   0.602   2.963 -1.3741  1.3056 -0.0583
14369TIP3   OH264521   0.877   3.803   0.796 -0.1441  0.3327 -0.2856
14369TIP3    H164522   0.933   3.867   0.841 -1.9240  0.0364  2.6227
14369TIP3    H264523   0.864   3.840   0.709  0.1485  3.1728  0.7746
14370TIP3   OH264524   0.253   0.853   4.670  0.2008 -0.9687 -0.2895
14370TIP3    H164525   0.187   0.916   4.641 -0.0156 -0.5802  0.9502
14370TIP3    H264526   0.205   0.793   4.728  0.8578 -0.8548  0.3932
14371TIP3   OH264527   2.295   2.423   1.903 -0.5887 -0.8874  0.0276
14371TIP3    H164528   2.368   2.424   1.841 -0.9167  1.1725 -0.4021
14371TIP3    H264529   2.217   2.407   1.850 -0.7440 -0.3111  0.0798
14372TIP3   OH264530   5.194   0.935   1.904 -0.6863  1.0313  0.4584
14372TIP3    H164531   5.211   0.974   1.818 -2.1457  0.1947 -0.2542
14372TIP3    H264532   5.280   0.907   1.935 -0.1836  0.9683 -0.9159
14373TIP3   OH264533   3.773   2.062   2.548  0.1395 -0.0449  0.1543
14373TIP3    H164534   3.733   2.029   2.468 -2.8641  1.3105  0.9430
14373TIP3    H264535   3.744   2.000   2.616 -0.5884  0.8930  0.7262
14374TIP3   OH264536   2.960   0.496  14.651  0.5640  0.0673 -0.1435
14374TIP3    H164537   2.890   0.560  14.643 -0.2336 -0.8657 -0.8248
14374TIP3    H264538   2.949   0.458  14.739  1.5321  1.3862  0.5875
14375TIP3   OH264539   0.747   1.634   4.090 -0.2438 -0.4803  0.6302
14375TIP3    H164540   0.760   1.652   4.183 -0.3043 -0.2387  0.5937
14375TIP3    H264541   0.654   1.652   4.075 -0.1379 -0.0816  0.4284
14376TIP3   OH264542   0.027   0.015  14.096 -0.4154  0.0376  0.7123
14376TIP3    H164543  -0.052  -0.001  14.149  0.4756 -0.8933  1.8000
14376TIP3    H264544   0.024   0.109  14.078 -2.2646 -0.1230 -0.1067
14377TIP3   OH264545   6.085   0.647  12.460 -0.0441 -0.2413  0.2897
14377TIP3    H164546   6.063   0.716  12.523 -3.2736  0.9419 -1.8662
14377TIP3    H264547   6.113   0.694  12.382  2.6862 -1.6403  0.3186
14378TIP3   OH264548   1.813   0.547   3.663 -0.3225 -0.2722  0.1183
14378TIP3    H164549   1.791   0.511   3.577 -0.4693 -2.1152  0.8932
14378TIP3    H264550   1.785   0.639   3.658 -4.0211 -1.2671 -0.4950
14379TIP3   OH264551   6.701   1.043  15.502  0.1994 -0.4846  0.1451
14379TIP3    H164552   6.733   0.983  15.434  2.6804  1.3871 -0.4913
14379TIP3    H264553   6.749   1.017  15.581  3.9830  2.4599 -0.8570
14380TIP3   OH264554   6.776   4.540   2.388 -0.4154  0.7483  0.1029
14380TIP3    H164555   6.836   4.610   2.412  2.8351 -1.0394 -1.9630
14380TIP3    H264556   6.759   4.494   2.470  3.1179 -0.0248  0.5733
14381TIP3   OH264557   1.382   3.878   2.238  0.3205  0.6350  0.0355
14381TIP3    H164558   1.370   3.802   2.181 -0.7957  0.3665  0.5931
14381TIP3    H264559   1.308   3.874   2.299  2.1030  0.2019  2.3249
14382TIP3   OH264560   2.727   6.632  12.725 -0.6701 -0.3098 -0.1279
14382TIP3    H164561   2.635   6.649  12.706 -0.3510  0.8636 -0.7161
14382TIP3    H264562   2.743   6.544  12.691 -0.8969  0.5264 -2.6077
14383TIP3   OH264563   1.121   2.410   0.014 -0.1429  0.5187  0.1794
14383TIP3    H164564   1.213   2.384   0.022  0.1124  1.6648  1.2076
14383TIP3    H264565   1.122   2.505   0.022 -1.4094  0.5493  0.0904
14384TIP3   OH264566   5.295   1.015   3.447 -0.3599 -0.7058 -0.2381
14384TIP3    H164567   5.356   0.945   3.422 -1.9399 -2.1569 -0.1589
14384TIP3    H264568   5.238   1.025   3.372 -0.2905  0.3876 -0.1629
14385TIP3   OH264569   3.022   0.020  11.243  0.1100  0.3264 -0.1044
14385TIP3    H164570   3.018   0.026  11.148  0.2202  0.6861 -0.0915
14385TIP3    H264571   3.087   0.086  11.268  0.6187 -0.2611  0.1686
14386TIP3   OH264572   3.381   5.869  10.894  0.4621  0.4507 -0.1142
14386TIP3    H164573   3.393   5.947  10.840 -3.3002  2.5677  1.6325
14386TIP3    H264574   3.411   5.896  10.981 -1.5308  0.3346  0.6677
14387TIP3   OH264575   0.444   4.773   2.388 -0.3852  0.0208 -0.4614
14387TIP3    H164576   0.437   4.803   2.297  1.7080  0.8237 -0.4088
14387TIP3    H264577   0.396   4.838   2.439 -0.4313  0.3010 -0.8582
14388TIP3   OH264578   0.487   3.486  15.005 -0.1548  0.1887  0.3278
14388TIP3    H164579   0.482   3.510  15.097  0.0875 -0.5108  0.5299
14388TIP3    H264580   0.421   3.540  14.962 -1.0471 -0.2777  1.0816
14389TIP3   OH264581   4.916   1.617  12.683  0.6130 -0.6912  0.0776
14389TIP3    H164582   4.826   1.586  12.669  0.2032  0.0919  0.8441
14389TIP3    H264583   4.938   1.665  12.604 -0.8472  1.8111  1.0523
14390TIP3   OH264584   4.714   3.880  12.802 -0.0483  0.0103  0.1271
14390TIP3    H164585   4.725   3.951  12.739 -0.7634  0.9751  1.0499
14390TIP3    H264586   4.802   3.866  12.838  0.1017  0.4110 -0.0792
14391TIP3   OH264587   6.330   3.829  11.314  0.1081 -0.4634 -0.3908
14391TIP3    H164588   6.277   3.837  11.394 -0.6877 -2.5167 -0.6379
14391TIP3    H264589   6.265   3.819  11.244  0.8103 -1.3362 -0.9311
14392TIP3   OH264590   1.166   2.456   0.378  0.1427  0.0562  0.3888
14392TIP3    H164591   1.126   2.498   0.454 -1.0734 -0.2303 -0.0559
14392TIP3    H264592   1.204   2.375   0.412 -1.2289 -0.5416  0.5639
14393TIP3   OH264593   5.494   2.152   3.705 -0.0941 -0.2484 -0.0249
14393TIP3    H164594   5.527   2.177   3.791  0.3300 -0.5405 -0.0999
14393TIP3    H264595   5.468   2.060   3.715 -0.8552 -0.0346  0.0217
14394TIP3   OH264596   2.344   2.285   1.521 -0.0303 -0.1121  0.6060
14394TIP3    H164597   2.355   2.309   1.429 -0.5845 -0.0510  0.5552
14394TIP3    H264598   2.408   2.340   1.567  0.3886 -0.2851  0.2427
14395TIP3   OH264599   6.776   0.712  13.693 -0.0774 -0.3456  0.3831
14395TIP3    H164600   6.822   0.785  13.735  0.6116 -0.8936  0.6130
14395TIP3    H264601   6.684   0.738  13.693 -0.3934 -0.9959  3.8196
14396TIP3   OH264602   1.955   6.108   2.447  0.1783 -0.6028 -0.3706
14396TIP3    H164603   1.999   6.033   2.407  1.7992  0.1527 -0.0591
14396TIP3    H264604   2.024   6.173   2.459 -1.3350  1.3240 -1.5123
14397TIP3   OH264605   0.644   1.054   1.477  0.4118 -0.5065  0.0522
14397TIP3    H164606   0.622   1.147   1.473 -0.0609 -0.5337  1.4476
14397TIP3    H264607   0.734   1.052   1.511  0.3691 -0.5640  0.1620
14398TIP3   OH264608   6.472   2.882  16.673  0.4590  0.2458 -0.7134
14398TIP3    H164609   6.499   2.803  16.626  0.4966 -0.5670  0.6282
14398TIP3    H264610   6.539   2.947  16.651  1.5449 -0.6892 -0.2841
14399TIP3   OH264611   2.188   5.478  11.160 -0.4069  0.0902  0.0369
14399TIP3    H164612   2.244   5.536  11.108  0.5244  0.0677  0.9928
14399TIP3    H264613   2.242   5.400  11.175 -1.4862 -0.8668 -0.8682
14400TIP3   OH264614   3.058   1.733   4.560  0.2693 -0.1657  0.0405
14400TIP3    H164615   3.071   1.638   4.566  3.6760  0.1791 -0.2092
14400TIP3    H264616   3.026   1.747   4.471 -2.7011 -1.1574  0.8068
14401TIP3   OH264617   5.303   4.023   4.310  0.8009 -0.7010  0.6211
14401TIP3    H164618   5.260   3.944   4.343 -1.3222 -0.4987 -1.3518
14401TIP3    H264619   5.279   4.092   4.373 -0.9236 -0.8381  0.1743
14402TIP3   OH264620   5.476   0.655  15.286 -0.5136  0.3529 -0.3110
14402TIP3    H164621   5.542   0.720  15.309 -0.1934 -0.6803  1.8742
14402TIP3    H264622   5.503   0.623  15.200 -0.9240  3.3426 -1.6815
14403TIP3   OH264623   0.977   3.364  10.976 -0.9765 -0.1264  0.1041
14403TIP3    H164624   1.021   3.436  11.022  0.0687 -0.5674 -0.1710
14403TIP3    H264625   0.913   3.408  10.920 -0.2997  0.6138 -0.1182
14404TIP3   OH264626   5.184   3.661   5.717  0.0627 -0.5816  0.0273
14404TIP3    H164627   5.115   3.655   5.783 -0.7477  0.1488 -0.7328
14404TIP3    H264628   5.226   3.745   5.733  1.0227 -1.1726  0.7038
14405TIP3   OH264629   6.444   2.103   5.534 -0.3415  0.1262  0.5477
14405TIP3    H164630   6.393   2.051   5.596 -1.1988  0.0323 -0.2295
14405TIP3    H264631   6.411   2.079   5.448 -1.0356  2.2214  0.1576
14406TIP3   OH264632   3.383   5.828  14.053 -0.1082  0.2530 -0.1190
14406TIP3    H164633   3.459   5.842  13.997 -0.8227 -0.3243 -1.2901
14406TIP3    H264634   3.316   5.794  13.994 -1.2920  0.7774  0.8717
14407TIP3   OH264635   4.282   5.140   4.180  0.1775  0.1544  0.0010
14407TIP3    H164636   4.275   5.044   4.185  0.0853  0.1713  0.2449
14407TIP3    H264637   4.193   5.171   4.198  0.5639  0.3379  1.7873
14408TIP3   OH264638   1.866   1.242  16.821 -0.4869 -0.6106  0.0106
14408TIP3    H164639   1.868   1.317  16.762 -2.9064 -1.2622 -1.0150
14408TIP3    H264640   1.841   1.280  16.906  0.8945  0.0390  0.1621
14409TIP3   OH264641   1.408   5.553   1.658 -0.2482  0.5985 -0.1707
14409TIP3    H164642   1.406   5.520   1.748  0.4184 -0.4409 -0.5118
14409TIP3    H264643   1.464   5.491   1.611 -0.9365  0.8718 -1.4062
14410TIP3   OH264644   0.659   2.231   0.208 -0.4164  0.1570 -0.2850
14410TIP3    H164645   0.733   2.283   0.240 -0.3557  0.1019 -0.3364
14410TIP3    H264646   0.631   2.181   0.285  0.8613 -1.3269 -0.7459
14411TIP3   OH264647   0.932   3.873  14.315 -0.3115 -0.0425  0.4109
14411TIP3    H164648   0.970   3.802  14.262 -0.5413  0.2994 -0.2250
14411TIP3    H264649   0.987   3.876  14.394  1.1423  0.5680 -0.5694
14412TIP3   OH264650   3.514   0.258  10.883 -0.0238  0.0332  0.6152
14412TIP3    H164651   3.535   0.352  10.892 -0.1417  0.0545  0.6699
14412TIP3    H264652   3.489   0.231  10.972 -2.4828  0.5469  0.1558
14413TIP3   OH264653   1.307   6.582  15.134 -0.0345 -0.2027 -0.4575
14413TIP3    H164654   1.301   6.651  15.068  1.5044 -1.3418 -1.8610
14413TIP3    H264655   1.274   6.504  15.090 -0.7574 -0.6188  0.7660
14414TIP3   OH264656   6.358   4.384   2.909 -0.1084 -0.2806 -0.1419
14414TIP3    H164657   6.349   4.291   2.929 -0.6237  0.0362  1.2337
14414TIP3    H264658   6.387   4.424   2.991  1.3519  0.6180 -1.0458
14415TIP3   OH264659   5.530   4.073  13.107  0.1385  0.2061  0.3397
14415TIP3    H164660   5.568   4.001  13.056  1.8210  2.2874 -1.5142
14415TIP3    H264661   5.537   4.043  13.198  0.3775 -2.1222 -0.3664
14416TIP3   OH264662   5.667   2.285  15.000 -0.5246 -0.1703 -0.0013
14416TIP3    H164663   5.572   2.277  15.006 -0.3835 -2.0879  0.5102
14416TIP3    H264664   5.685   2.289  14.906 -1.1360  1.1553 -0.0811
14417TIP3   OH264665   0.009   5.262  11.633 -0.4243 -0.5160  0.1035
14417TIP3    H164666  -0.061   5.277  11.569  0.0360  1.5468  0.0305
14417TIP3    H264667  -0.036   5.255  11.717 -0.8939 -1.6604 -0.2192
14418TIP3   OH264668   2.440   4.345  11.564 -0.0471 -1.0266  0.5897
14418TIP3    H164669   2.452   4.283  11.636  2.2770 -1.8251 -0.4035
14418TIP3    H264670   2.527   4.380  11.548 -0.5983 -0.4657 -1.4922
14419TIP3   OH264671   6.307   5.441  16.716 -0.4702  0.1957 -0.3383
14419TIP3    H164672   6.226   5.450  16.765 -1.9407 -0.4619 -2.4976
14419TIP3    H264673   6.284   5.465  16.626  0.9236 -2.7790 -1.6473
14420TIP3   OH264674   1.367   2.016  12.292  0.4000  0.4123  0.0757
14420TIP3    H164675   1.429   2.083  12.320 -0.4270  1.7067 -1.0652
14420TIP3    H264676   1.419   1.955  12.239  0.7151  1.5421 -0.9650
14421TIP3   OH264677   0.348   1.159   5.439 -0.5738  0.5380  0.2960
14421TIP3    H164678   0.298   1.149   5.357 -2.7077  1.8331  1.3520
14421TIP3    H264679   0.434   1.122   5.419 -0.7392  1.5438 -2.7963
14422TIP3   OH264680   1.870   6.267   0.810  0.0464  0.7374 -0.5869
14422TIP3    H164681   1.800   6.292   0.750  0.1475  1.3917 -0.4359
14422TIP3    H264682   1.925   6.208   0.758 -0.1301  0.9197 -0.9888
14423TIP3   OH264683   5.154   1.576  13.223  0.1046  0.2925  0.0049
14423TIP3    H164684   5.241   1.563  13.185 -0.8024 -0.4631 -1.9049
14423TIP3    H264685   5.093   1.556  13.152 -1.6543  0.4219  1.4104
14424TIP3   OH264686   5.404   4.028  11.115 -0.2215 -0.8853 -0.2316
14424TIP3    H164687   5.326   4.082  11.127  0.2709 -0.2818  0.3288
14424TIP3    H264688   5.458   4.076  11.053  0.9541  0.1262  1.4913
14425TIP3   OH264689   2.369   4.604   3.661 -0.1295 -0.3095  0.0822
14425TIP3    H164690   2.290   4.554   3.643 -1.2109  1.1161  0.7048
14425TIP3    H264691   2.344   4.667   3.728  1.9926 -0.9281  1.5681
14426TIP3   OH264692   2.647   5.533  13.658  0.2535  0.5888 -0.4001
14426TIP3    H164693   2.573   5.552  13.715 -1.0848 -2.4708 -0.9589
14426TIP3    H264694   2.670   5.618  13.620 -3.0436  1.6492 -0.3113
14427TIP3   OH264695   5.969   1.458  12.214 -0.0531  0.2609 -0.0928
14427TIP3    H164696   5.911   1.388  12.246 -0.2893  0.5652  0.1471
14427TIP3    H264697   5.921   1.539  12.233 -0.7980  0.4278 -2.3647
14428TIP3   OH264698   5.314   4.708   6.606  0.0189 -0.5686 -0.7562
14428TIP3    H164699   5.270   4.650   6.544 -0.1723  0.1069 -1.2656
14428TIP3    H264700   5.393   4.660   6.631  0.6175 -0.4403 -2.3081
14429TIP3   OH264701   4.515   3.676  12.833  0.0310 -0.1218  0.5148
14429TIP3    H164702   4.553   3.600  12.789 -0.9080  1.1870 -2.8545
14429TIP3    H264703   4.576   3.747  12.815 -2.4732  1.4515 -2.8255
14430TIP3   OH264704   3.931   0.753   1.934  0.1074  0.4666 -0.9443
14430TIP3    H164705   3.970   0.756   1.847  0.5401  0.2678 -0.7632
14430TIP3    H264706   3.837   0.766   1.920  0.1226  0.0316 -1.4745
14431TIP3   OH264707   0.567   6.476  12.666 -0.0788  0.5682  0.0621
14431TIP3    H164708   0.550   6.506  12.755  2.7577 -2.5137  1.8759
14431TIP3    H264709   0.486   6.433  12.639 -0.3495 -0.2346  2.0394
14432TIP3   OH264710   2.453   4.610   0.676  0.0957 -0.0605  0.5342
14432TIP3    H164711   2.535   4.581   0.636 -0.3884 -0.3529 -0.2665
14432TIP3    H264712   2.399   4.531   0.681  0.4848 -0.2704  2.7194
14433TIP3   OH264713   0.892   0.444  13.374 -0.0171  0.7712 -0.3656
14433TIP3    H164714   0.900   0.409  13.463  1.0946  1.0661 -0.3382
14433TIP3    H264715   0.849   0.529  13.386 -0.1858  0.6572 -0.1473
14434TIP3   OH264716   6.155   1.613  12.691 -0.2506 -0.1122 -0.0822
14434TIP3    H164717   6.067   1.614  12.653  0.2690  1.1258 -1.3326
14434TIP3    H264718   6.142   1.646  12.780 -1.2069 -1.1382  0.1831
14435TIP3   OH264719   2.674   6.372   4.680  0.6369 -0.2708  0.1351
14435TIP3    H164720   2.631   6.321   4.612 -1.2242  0.0097  1.0115
14435TIP3    H264721   2.736   6.428   4.634 -0.4697 -0.1861 -1.3080
14436TIP3   OH264722   3.993   4.531  15.903  0.2893  0.4290  0.2830
14436TIP3    H164723   3.912   4.484  15.885 -0.0877  1.2078 -0.0971
14436TIP3    H264724   3.971   4.588  15.978  1.2970 -1.3932  2.0606
14437TIP3   OH264725   5.887   3.515   4.058 -0.0598  0.0326  0.6101
14437TIP3    H164726   5.862   3.452   4.125 -1.1609  0.1594  0.3388
14437TIP3    H264727   5.932   3.463   3.992 -1.2593 -0.5425  0.2264
14438TIP3   OH264728   3.876   3.332  12.076 -0.2071 -0.2416  0.0343
14438TIP3    H164729   3.865   3.373  11.990  0.8461 -0.5827 -0.2839
14438TIP3    H264730   3.860   3.239  12.060  0.9764 -0.4497 -0.0178
14439TIP3   OH264731   1.125   2.438  15.051 -0.4638 -0.7885 -0.7865
14439TIP3    H164732   1.205   2.401  15.013  0.3325 -0.2144  0.2347
14439TIP3    H264733   1.080   2.479  14.978  0.7572 -0.1490 -1.2150
14440TIP3   OH264734   2.797   5.168   2.878 -0.1195 -0.4293  0.3657
14440TIP3    H164735   2.780   5.123   2.961 -0.5111  0.5949  0.8537
14440TIP3    H264736   2.883   5.207   2.890 -0.1452 -0.3430  0.2623
14441TIP3   OH264737   1.475   0.883  14.808 -0.0772  0.1629  0.0040
14441TIP3    H164738   1.521   0.934  14.741  1.7001 -0.4050  0.7514
14441TIP3    H264739   1.479   0.793  14.777  0.0995 -0.0052  0.5055
14442TIP3   OH264740   2.597   2.644  11.877 -0.5570 -0.8004 -0.1101
14442TIP3    H164741   2.679   2.622  11.920 -2.1331 -1.4660  2.8293
14442TIP3    H264742   2.553   2.560  11.864 -0.9445 -0.4325 -1.3718
14443TIP3   OH264743   4.879   4.389  16.099 -0.0700 -0.0700 -0.2660
14443TIP3    H164744   4.806   4.415  16.154 -0.7345 -0.1618 -1.0846
14443TIP3    H264745   4.955   4.431  16.138 -0.4239 -0.6059  1.0498
14444TIP3   OH264746   1.212   4.288  13.058 -0.0219  1.0164  0.3196
14444TIP3    H164747   1.201   4.300  12.964 -0.7683  0.8497  0.3768
14444TIP3    H264748   1.304   4.264  13.069  0.0801  1.0822 -0.3584
14445TIP3   OH264749   6.667   1.187   0.496  0.4673 -0.0399 -0.5184
14445TIP3    H164750   6.656   1.167   0.589 -0.0821 -0.8604 -0.7509
14445TIP3    H264751   6.755   1.225   0.490  0.2341  0.6890  0.4351
14446TIP3   OH264752   3.597   6.022   1.388  0.5042 -0.6814  0.2528
14446TIP3    H164753   3.552   5.954   1.438  0.8158 -0.0505  1.4243
14446TIP3    H264754   3.530   6.059   1.331  0.4217 -2.2214 -0.7032
14447TIP3   OH264755   2.364   0.412   5.249 -0.2338  0.0944  0.1199
14447TIP3    H164756   2.367   0.485   5.186 -0.2628 -0.5497 -0.6363
14447TIP3    H264757   2.399   0.450   5.330  0.7331  0.6817 -0.5460
14448TIP3   OH264758   5.901   4.921   0.829  0.8325  0.4884  0.0961
14448TIP3    H164759   5.936   4.895   0.744  0.2441  0.0817 -0.0321
14448TIP3    H264760   5.806   4.908   0.821  0.7492  0.6268  0.7516
14449TIP3   OH264761   4.918   5.532   4.693 -0.4413 -0.9933  0.8123
14449TIP3    H164762   4.981   5.604   4.696 -0.9372 -0.1794 -2.9289
14449TIP3    H264763   4.964   5.461   4.648 -1.5190 -1.1150 -0.1404
14450TIP3   OH264764   5.780   6.144  13.031  0.1699  0.0223  0.2310
14450TIP3    H164765   5.778   6.074  12.964  0.5320 -0.6260  0.8839
14450TIP3    H264766   5.790   6.224  12.980  0.1007 -0.4275 -0.5221
14451TIP3   OH264767   5.394   4.727  12.479  0.4584 -0.0595 -0.7065
14451TIP3    H164768   5.453   4.800  12.496  0.8527 -0.3890 -0.6690
14451TIP3    H264769   5.436   4.677  12.409 -0.4412  0.4705 -1.6707
14452TIP3   OH264770   4.997   0.297   5.455 -0.1623  0.0934 -0.3038
14452TIP3    H164771   5.087   0.286   5.423  0.5417 -1.0869  1.8858
14452TIP3    H264772   4.966   0.208   5.471 -0.1886  0.5350  2.7549
14453TIP3   OH264773   4.805   0.580  13.206 -0.2433 -0.1710  0.4108
14453TIP3    H164774   4.709   0.575  13.199 -0.4347 -1.7594  2.7988
14453TIP3    H264775   4.834   0.490  13.193  0.7586  0.0146  1.2712
14454TIP3   OH264776   6.804   5.716   5.856 -0.6084 -0.0802 -0.2473
14454TIP3    H164777   6.780   5.774   5.928  0.5325 -0.4024  0.4153
14454TIP3    H264778   6.753   5.636   5.871 -2.1103  0.6679 -1.1095
14455TIP3   OH264779   4.792   2.523   4.741 -0.0936  0.3179  0.2028
14455TIP3    H164780   4.738   2.480   4.807 -1.0876  0.7606 -0.3081
14455TIP3    H264781   4.798   2.614   4.771  3.1927 -0.3176  2.0707
14456TIP3   OH264782   2.036   5.101  14.962 -0.0216 -0.3140  0.3913
14456TIP3    H164783   1.970   5.144  15.017  1.4739 -0.4165  2.3525
14456TIP3    H264784   2.094   5.056  15.024  0.9895 -1.5647 -1.3565
14457TIP3   OH264785   2.985   1.962  16.711  0.1978 -0.5990  0.1906
14457TIP3    H164786   3.069   2.007  16.720  0.8458 -1.4681 -1.1721
14457TIP3    H264787   2.981   1.903  16.786 -0.0647  0.7250  1.2721
14458TIP3   OH264788   3.207   0.459   1.194  0.0893 -0.4835  0.1555
14458TIP3    H164789   3.162   0.510   1.262  0.7076  0.3921 -0.0674
14458TIP3    H264790   3.296   0.495   1.194  0.1645 -0.6634 -0.9311
14459TIP3   OH264791   0.791   4.441  14.884 -0.0613 -0.1382  0.2184
14459TIP3    H164792   0.857   4.502  14.851 -0.6955 -0.3542 -1.5661
14459TIP3    H264793   0.727   4.496  14.928 -0.9514  0.6071 -1.9108
14460TIP3   OH264794   4.199   6.702   2.187 -0.0406 -0.1660  0.6599
14460TIP3    H164795   4.209   6.669   2.098 -0.5248  2.0521 -0.3042
14460TIP3    H264796   4.191   6.797   2.176 -2.0383  0.0235  2.9041
14461TIP3   OH264797   6.518   1.656   3.401 -0.3694 -0.2198 -0.1572
14461TIP3    H164798   6.440   1.708   3.420 -0.9639 -0.4400 -1.8645
14461TIP3    H264799   6.485   1.577   3.358  0.8015 -0.0878 -1.3641
14462TIP3   OH264800   3.662   0.744  15.407  0.5656  0.1607  0.3539
14462TIP3    H164801   3.742   0.757  15.356 -0.4455  2.8476 -0.7603
14462TIP3    H264802   3.597   0.719  15.342  0.1560 -0.5292  1.0179
14463TIP3   OH264803   5.850   0.034  11.153 -0.1324 -0.3107 -0.3816
14463TIP3    H164804   5.819   0.032  11.063  1.5077  0.0480 -0.9872
14463TIP3    H264805   5.851   0.127  11.176 -0.5786 -0.4034  0.0332
14464TIP3   OH264806   5.181   3.973  12.218 -0.0678 -0.4420  0.3706
14464TIP3    H164807   5.193   4.057  12.262  0.5709 -0.5968  0.5154
14464TIP3    H264808   5.094   3.943  12.245 -0.6838  0.5868 -0.4109
14465TIP3   OH264809   0.660   4.359  12.290  0.0129 -0.1239  0.1973
14465TIP3    H164810   0.614   4.278  12.314 -1.6262  0.1305 -1.8200
14465TIP3    H264811   0.690   4.345  12.201 -0.5579  1.5701 -0.3000
14466TIP3   OH264812   0.460   6.603  11.104  0.1439 -0.2236 -0.3153
14466TIP3    H164813   0.447   6.510  11.084 -1.4126 -0.3052  0.9279
14466TIP3    H264814   0.556   6.614  11.105  0.3569 -1.8504 -0.3297
14467TIP3   OH264815   0.303   3.780  12.012  0.2294 -0.3295 -0.2130
14467TIP3    H164816   0.342   3.807  11.928  1.4197 -2.4958 -0.4317
14467TIP3    H264817   0.290   3.686  12.003  0.1426 -0.5731  1.9575
14468TIP3   OH264818   3.850   2.081   3.214 -0.3119  0.8245 -0.5865
14468TIP3    H164819   3.812   2.004   3.170 -0.7772  1.4285 -1.2643
14468TIP3    H264820   3.884   2.135   3.142  1.4449  0.5272 -0.0380
14469TIP3   OH264821   2.478   3.441   4.900 -0.9063  0.3831  0.0815
14469TIP3    H164822   2.562   3.402   4.925 -1.5268 -1.0576  0.0181
14469TIP3    H264823   2.484   3.531   4.932 -0.2824 -0.3550  2.2939
14470TIP3   OH264824   2.663   0.721  12.317 -0.2674  0.1771 -0.3659
14470TIP3    H164825   2.745   0.675  12.298 -1.3512 -2.1743  0.3009
14470TIP3    H264826   2.618   0.724  12.232 -0.3263 -0.2889 -0.3535
14471TIP3   OH264827   2.777   4.952   3.619  0.3513 -0.3057  0.2062
14471TIP3    H164828   2.697   4.904   3.641  0.5960 -0.6121  0.4274
14471TIP3    H264829   2.787   5.015   3.690 -0.1029  0.2466 -0.2087
14472TIP3   OH264830   2.413   5.103   0.861 -0.4470  0.0544 -0.1226
14472TIP3    H164831   2.453   5.019   0.839  0.0316  0.3554 -0.4157
14472TIP3    H264832   2.487   5.161   0.880 -0.7550  0.5037 -0.2647
14473TIP3   OH264833   6.145   1.548   5.552 -0.2076 -0.0568  0.0301
14473TIP3    H164834   6.105   1.539   5.638 -0.0159 -1.1613  0.0115
14473TIP3    H264835   6.233   1.514   5.562 -0.3476 -0.6702 -0.7173
14474TIP3   OH264836   0.335   2.338   4.502 -0.1693  0.2313  0.6142
14474TIP3    H164837   0.268   2.301   4.445  0.1424 -0.1198  0.4738
14474TIP3    H264838   0.307   2.313   4.590  0.7289 -1.5265  0.4525
14475TIP3   OH264839   5.776   5.094   1.647 -0.3025 -0.3165 -0.0368
14475TIP3    H164840   5.768   5.154   1.573 -0.1574 -0.2114  0.0305
14475TIP3    H264841   5.861   5.116   1.686 -0.1439 -0.7302 -0.1523
14476TIP3   OH264842   5.307   6.306   4.440  0.4896 -0.4435 -0.0883
14476TIP3    H164843   5.377   6.285   4.378  1.0325  2.5477 -0.6239
14476TIP3    H264844   5.340   6.381   4.489 -1.5346 -0.2514  1.0852
14477TIP3   OH264845   5.912   2.911   0.443 -0.3908 -0.4246  0.3986
14477TIP3    H164846   5.860   2.844   0.398 -0.5778  0.3173 -0.5074
14477TIP3    H264847   5.849   2.981   0.464  0.4250  1.0869 -1.8933
14478TIP3   OH264848   4.974   1.620  11.365  0.1097 -0.0823 -0.0905
14478TIP3    H164849   4.943   1.533  11.342 -0.2778  0.4205 -1.6316
14478TIP3    H264850   5.035   1.606  11.437 -1.1994 -1.4418  0.8263
14479TIP3   OH264851   1.960   4.298  14.303  0.0776 -0.7064  0.5475
14479TIP3    H164852   1.996   4.264  14.384  0.3411 -0.3846  0.5683
14479TIP3    H264853   1.999   4.385  14.294 -0.0497 -0.6887  0.1440
14480TIP3   OH264854   6.718   4.477  15.972 -0.8497 -0.3161 -0.0704
14480TIP3    H164855   6.745   4.568  15.982  0.6213 -0.8752  1.5558
14480TIP3    H264856   6.648   4.480  15.907  1.3727  1.5669 -2.5967
14481TIP3   OH264857   1.576   1.534  12.329  0.0732  0.8164 -0.1555
14481TIP3    H164858   1.618   1.571  12.252  0.7075 -1.4927 -1.0058
14481TIP3    H264859   1.648   1.499  12.382 -0.3935  1.9323  1.2692
14482TIP3   OH264860   5.557   3.515  15.597 -0.2257  0.0364  0.7370
14482TIP3    H164861   5.510   3.450  15.546 -0.2286  1.6417 -1.4460
14482TIP3    H264862   5.495   3.587  15.607 -0.0776 -0.0477  2.7352
14483TIP3   OH264863   6.601   0.275  15.737  0.3579 -0.7242  0.0383
14483TIP3    H164864   6.615   0.216  15.811 -1.3423  0.7302  1.6281
14483TIP3    H264865   6.507   0.270  15.719  0.3477  0.6937 -0.4673
14484TIP3   OH264866   6.340   5.060   3.031  0.0123 -0.7127  0.1552
14484TIP3    H164867   6.346   5.023   3.120 -0.8973  0.5781  0.7818
14484TIP3    H264868   6.293   5.142   3.043 -0.2900 -0.6108 -1.5697
14485TIP3   OH264869   3.511   5.403  11.934  0.5354 -0.2306 -0.0297
14485TIP3    H164870   3.557   5.361  12.006 -3.1862 -1.1221  2.1193
14485TIP3    H264871   3.499   5.494  11.963  1.8696  0.3443 -1.1457
14486TIP3   OH264872   2.825   3.430  12.654 -0.5537 -0.1095 -0.4938
14486TIP3    H164873   2.857   3.503  12.601 -1.1278  0.4857 -0.0420
14486TIP3    H264874   2.730   3.433  12.643 -0.7148  0.2828  0.8888
14487TIP3   OH264875   1.187   1.794  15.949 -0.2626  0.0642 -0.0805
14487TIP3    H164876   1.230   1.773  16.032  0.9445  0.1476 -0.6660
14487TIP3    H264877   1.127   1.721  15.934  2.4026 -2.0517 -1.0918
14488TIP3   OH264878   3.124   1.954  14.329  0.2371  0.4902  0.4375
14488TIP3    H164879   3.194   1.930  14.389 -0.0860 -0.6749  0.3627
14488TIP3    H264880   3.164   1.945  14.242 -0.1022 -0.5085  0.3826
14489TIP3   OH264881   5.265   6.641   3.151  0.2276  0.6568  0.1606
14489TIP3    H164882   5.322   6.637   3.228  2.9902  2.1854 -1.6836
14489TIP3    H264883   5.252   6.549   3.127  1.1674  0.2422  1.1542
14490TIP3   OH264884   1.781   6.575   3.708  0.3919 -0.3273  0.1739
14490TIP3    H164885   1.693   6.548   3.735  0.2279 -0.5443 -0.5660
14490TIP3    H264886   1.823   6.494   3.681  0.4957 -0.0935 -0.3758
14491TIP3   OH264887   3.761   3.815   1.940  0.8497  0.3372  0.7673
14491TIP3    H164888   3.856   3.823   1.931  0.5853  1.5063 -1.8477
14491TIP3    H264889   3.740   3.733   1.895  0.4903  0.9587 -0.2379
14492TIP3   OH264890   6.558   5.025   1.097 -0.1033  0.6094 -0.7841
14492TIP3    H164891   6.511   5.007   1.015  1.2179 -1.7207 -1.1431
14492TIP3    H264892   6.515   4.969   1.162 -0.4764  1.6548 -0.1117
14493TIP3   OH264893   6.778   3.157  15.265  0.3209 -0.2801 -0.3126
14493TIP3    H164894   6.867   3.185  15.245  0.3885  0.1551  0.5381
14493TIP3    H264895   6.766   3.180  15.357 -0.8517  0.1256 -0.5495
14494TIP3   OH264896   5.586   0.809   5.123  0.2837 -0.1497  0.1168
14494TIP3    H164897   5.553   0.774   5.041 -1.1919  0.0449  0.5878
14494TIP3    H264898   5.673   0.842   5.103  0.0983 -0.4637 -1.2631
14495TIP3   OH264899   6.245   4.292  10.154 -0.2416  0.2032  0.1970
14495TIP3    H164900   6.286   4.378  10.164 -0.2176  0.1032  1.0421
14495TIP3    H264901   6.317   4.230  10.169 -0.1773  0.0336 -0.7833
14496TIP3   OH264902   1.302   4.434  11.037 -0.1363  0.2994  0.5563
14496TIP3    H164903   1.207   4.429  11.034 -0.1242  0.2161  0.3262
14496TIP3    H264904   1.322   4.447  11.130 -0.3368 -0.3988  0.7046
14497TIP3   OH264905   1.050   1.851  14.499  0.4132  0.5944 -0.5500
14497TIP3    H164906   1.111   1.800  14.444  0.4572 -1.5060  1.2868
14497TIP3    H264907   0.966   1.840  14.456  0.1280 -2.4623  0.5365
14498TIP3   OH264908   1.339   0.245  16.856  0.2216  0.0750  0.4037
14498TIP3    H164909   1.300   0.214  16.775 -2.5404 -0.6724  1.9095
14498TIP3    H264910   1.433   0.247  16.838  0.2849 -4.7715 -1.3556
14499TIP3   OH264911   1.412   3.357  11.774  0.2140  0.4128 -0.3186
14499TIP3    H164912   1.488   3.350  11.831 -0.8997 -0.3222  1.1514
14499TIP3    H264913   1.337   3.352  11.834 -0.9992  0.5205 -1.7727
14500TIP3   OH264914   4.102   4.938   0.624  0.0176 -0.3760  0.5875
14500TIP3    H164915   4.063   5.017   0.587 -1.0359 -0.9485  0.4404
14500TIP3    H264916   4.028   4.880   0.641  0.7334 -1.1723  1.0938
14501TIP3   OH264917   1.720   5.718  15.191  0.1335  0.8548 -0.3933
14501TIP3    H164918   1.711   5.652  15.122 -1.5525 -0.7515  1.2348
14501TIP3    H264919   1.810   5.708  15.223  1.3515  2.4198 -2.9994
14502TIP3   OH264920   4.020   0.313   3.042 -0.8325  0.0664  0.2244
14502TIP3    H164921   3.970   0.339   2.965  1.0012 -0.7757 -1.3360
14502TIP3    H264922   3.972   0.237   3.076 -0.2688 -1.2165 -1.6910
14503TIP3   OH264923   1.164   4.656  16.658  0.1641  0.1525  0.0952
14503TIP3    H164924   1.206   4.573  16.681 -0.8517  0.3186  2.9066
14503TIP3    H264925   1.077   4.631  16.626 -0.3959  0.1044  1.5784
14504TIP3   OH264926   0.896   5.529  16.791 -0.3567 -0.6175 -0.4471
14504TIP3    H164927   0.892   5.433  16.786 -0.3936 -0.6712  0.4367
14504TIP3    H264928   0.828   5.552  16.855 -0.4151  0.0099 -0.7283
14505TIP3   OH264929   6.176   0.428  12.309  0.1247  0.3018 -0.2154
14505TIP3    H164930   6.112   0.454  12.243 -1.7615 -1.5391  0.7793
14505TIP3    H264931   6.168   0.493  12.379  1.3478  1.6227 -1.2390
14506TIP3   OH264932   4.052   6.359   5.427  0.3181  0.1216  0.1709
14506TIP3    H164933   3.984   6.337   5.490  2.5940 -0.6060  2.5440
14506TIP3    H264934   4.105   6.280   5.420  1.6690  1.0542 -0.6257
14507TIP3   OH264935   5.118   5.934   0.536 -0.0500 -0.0843  0.4406
14507TIP3    H164936   5.195   5.945   0.480  0.8915  0.6005  1.8095
14507TIP3    H264937   5.137   5.987   0.614 -2.5136  1.2701  0.2342
14508TIP3   OH264938   5.223   6.062   5.790  0.0581 -0.4357  0.4916
14508TIP3    H164939   5.292   6.067   5.724  1.6067 -1.2850  1.9814
14508TIP3    H264940   5.250   5.990   5.847 -1.3269  0.1592  1.9553
14509TIP3   OH264941   2.946   3.996   1.520 -0.4310 -0.3050 -0.3574
14509TIP3    H164942   2.870   4.043   1.553  0.3679 -0.7181  2.2604
14509TIP3    H264943   3.017   4.060   1.520 -0.4570 -0.2474 -1.5997
14510TIP3   OH264944   5.208   0.578   2.163  0.1449  0.5908  0.1482
14510TIP3    H164945   5.133   0.638   2.158  0.2104  0.6967  0.4679
14510TIP3    H264946   5.169   0.492   2.179 -0.1097  0.1898 -2.1912
14511TIP3   OH264947   6.230   5.278  12.061 -0.1636  0.0342 -0.1994
14511TIP3    H164948   6.224   5.373  12.064 -2.0628  0.0179 -1.7735
14511TIP3    H264949   6.143   5.247  12.089  0.6302 -1.2919  0.9872
14512TIP3   OH264950   4.409   4.611   3.639  1.2066  0.0556  0.0907
14512TIP3    H164951   4.474   4.615   3.709  0.6313  1.0127  0.6021
14512TIP3    H264952   4.325   4.604   3.684  0.9023 -0.4658 -0.5406
14513TIP3   OH264953   6.752   5.811   1.545  0.5578  0.1463 -0.2211
14513TIP3    H164954   6.659   5.800   1.563  0.5496  0.2992 -0.1735
14513TIP3    H264955   6.773   5.898   1.577  0.7730  0.0172 -0.0064
14514TIP3   OH264956   4.362   0.217  16.755  0.3443 -0.3941 -0.2770
14514TIP3    H164957   4.332   0.171  16.676  0.7774  0.6217 -1.0571
14514TIP3    H264958   4.281   0.250  16.795  0.1068 -1.0598 -0.2003
14515TIP3   OH264959   1.981   4.230   6.526 -0.0547  0.7204 -0.5639
14515TIP3    H164960   2.000   4.237   6.433  0.2853  1.5425 -0.4462
14515TIP3    H264961   2.027   4.305   6.565  2.7441 -1.4670  0.7271
14516TIP3   OH264962   0.233   6.008   3.437 -0.2395 -0.1521  0.6804
14516TIP3    H164963   0.231   5.958   3.355 -0.3325  0.4612  0.3046
14516TIP3    H264964   0.317   6.053   3.435  0.2923 -1.0742  1.4991
14517TIP3   OH264965   4.862   2.591  14.248 -0.0083  0.4719 -0.3754
14517TIP3    H164966   4.889   2.534  14.320 -0.2361  1.5586  0.5993
14517TIP3    H264967   4.779   2.554  14.219  0.6520 -0.6604 -0.8778
14518TIP3   OH264968   1.389   1.436  13.457 -0.0117 -0.1299  0.1087
14518TIP3    H164969   1.463   1.489  13.486 -0.4832 -0.1241  1.3650
14518TIP3    H264970   1.392   1.359  13.514 -0.8913 -0.1870  0.0843
14519TIP3   OH264971   1.684   6.448   2.954 -0.6027  0.5189  0.4079
14519TIP3    H164972   1.677   6.359   2.922 -1.2554 -0.0099  1.9278
14519TIP3    H264973   1.729   6.496   2.885 -2.7162 -0.3244 -1.6929
14520TIP3   OH264974   4.883   5.174   1.007 -0.2497  0.6725  0.7510
14520TIP3    H164975   4.850   5.204   0.922 -0.7571  0.3950  0.8488
14520TIP3    H264976   4.846   5.087   1.018  1.3539 -0.1015  0.3949
14521TIP3   OH264977   3.338   2.028   5.499  0.2523 -0.2070 -0.1095
14521TIP3    H164978   3.296   2.048   5.583  1.0833 -1.4420  0.6358
14521TIP3    H264979   3.365   2.113   5.464 -2.4090  0.6076 -0.4152
14522TIP3   OH264980   4.639   5.362  16.169 -0.2118 -0.2767  0.1302
14522TIP3    H164981   4.564   5.420  16.156  0.7620  1.0129  0.0144
14522TIP3    H264982   4.603   5.274  16.166 -1.3550  0.1852 -2.5445
14523TIP3   OH264983   3.280   1.570   0.809 -0.2417 -0.2543  0.2319
14523TIP3    H164984   3.349   1.568   0.743 -0.2958  0.1075  0.1659
14523TIP3    H264985   3.291   1.653   0.854 -1.9636  0.8351 -1.2155
14524TIP3   OH264986   3.007   5.902  11.391  0.1469 -0.2139 -0.0863
14524TIP3    H164987   2.930   5.947  11.357  0.2560  0.9053  1.0421
14524TIP3    H264988   3.060   5.882  11.314 -0.3548  0.7873 -0.7077
14525TIP3   OH264989   0.367   1.910   1.785  0.2568 -0.8177 -0.5192
14525TIP3    H164990   0.462   1.913   1.779  0.2280 -1.2345 -1.4045
14525TIP3    H264991   0.346   1.817   1.790 -0.0910 -0.7150  0.0406
14526TIP3   OH264992   2.071   1.182  13.014 -0.5741 -0.0756  0.8467
14526TIP3    H164993   2.058   1.149  12.925 -0.7360  0.0886  0.8108
14526TIP3    H264994   2.164   1.168  13.031 -0.4732  0.1963  0.5283
14527TIP3   OH264995   6.543   4.758   0.786 -0.3689 -0.0019  0.0268
14527TIP3    H164996   6.496   4.723   0.862 -0.3789  0.5821  0.3020
14527TIP3    H264997   6.630   4.779   0.820 -0.3525  0.1993 -0.1402
14528TIP3   OH264998   4.176   4.746   3.329 -0.1048 -0.0219 -0.3695
14528TIP3    H164999   4.112   4.813   3.355 -1.8268 -1.2305 -1.2965
14528TIP3    H265000   4.246   4.796   3.288 -2.1243  1.2137 -2.6206
14529TIP3   OH265001   1.197   1.486  15.427  0.1969 -0.6776 -0.6747
14529TIP3    H165002   1.291   1.470  15.423  0.8875  1.9517  1.7889
14529TIP3    H265003   1.159   1.400  15.446  2.3714 -1.4357  0.6446
14530TIP3   OH265004   1.190   1.194   1.578 -0.4849 -0.1633  0.6588
14530TIP3    H165005   1.187   1.167   1.486  0.8907  1.6361  0.0069
14530TIP3    H265006   1.222   1.117   1.625  0.0471 -0.7288 -0.5853
14531TIP3   OH265007   5.318   3.228  11.519 -0.0972 -0.0828 -0.1904
14531TIP3    H165008   5.281   3.157  11.468  0.4551  0.2984 -1.1502
14531TIP3    H265009   5.318   3.196  11.609  1.6659 -1.9621 -0.7838
14532TIP3   OH265010   0.224   4.742  15.470  0.6621  0.0086 -0.1304
14532TIP3    H165011   0.282   4.748  15.546  0.9523  1.3110 -0.4354
14532TIP3    H265012   0.278   4.771  15.396 -0.5352  1.9625 -0.3204
14533TIP3   OH265013   4.582   3.892   0.342 -0.6443  0.4647  0.2488
14533TIP3    H165014   4.581   3.983   0.372 -0.3347 -0.3488  2.9664
14533TIP3    H265015   4.671   3.862   0.361 -0.9169 -0.5738 -0.0660
14534TIP3   OH265016   0.101   6.697  13.564 -0.4290  0.0257  0.6559
14534TIP3    H165017   0.016   6.679  13.605 -0.7115  0.3389  0.2212
14534TIP3    H265018   0.157   6.625  13.592 -1.3237 -1.1389 -0.4693
14535TIP3   OH265019   2.105   5.824   5.728  0.2373  0.0141 -0.5255
14535TIP3    H165020   2.124   5.881   5.653  2.1387 -0.9997 -0.8595
14535TIP3    H265021   2.055   5.751   5.691  0.5771 -0.1375 -0.6903
14536TIP3   OH265022   1.154   2.698   0.041  0.0248 -0.0999  0.4221
14536TIP3    H165023   1.114   2.751   0.111  0.0614 -0.1596  0.4875
14536TIP3    H265024   1.159   2.758  -0.034 -0.6670 -0.2383  0.2568
14537TIP3   OH265025   2.680   5.299  15.913  0.2528 -0.5998 -0.3757
14537TIP3    H165026   2.683   5.207  15.888 -0.0125 -0.6973 -0.0610
14537TIP3    H265027   2.771   5.330  15.905  0.0978 -0.4801 -1.9508
14538TIP3   OH265028   0.650   4.728   1.003  0.0410  0.2299 -0.1384
14538TIP3    H165029   0.668   4.775   0.922  0.5173  1.0913  0.4474
14538TIP3    H265030   0.663   4.636   0.982  3.3189  0.6062 -0.2756
14539TIP3   OH265031   3.456   1.028   0.563 -0.1166 -0.1915 -0.0268
14539TIP3    H165032   3.482   1.038   0.471  0.0081  0.4662  0.0715
14539TIP3    H265033   3.489   0.942   0.589  1.2271  0.2753 -0.1447
14540TIP3   OH265034   6.262   0.233   3.756 -0.1124 -0.1650  0.6608
14540TIP3    H165035   6.263   0.325   3.784 -0.2521  0.4365 -1.1402
14540TIP3    H265036   6.206   0.233   3.678  0.8271 -1.5583 -0.0516
14541TIP3   OH265037   0.488   1.081   0.884 -0.2801 -0.7015  0.0480
14541TIP3    H165038   0.563   1.120   0.930 -0.2843 -0.9105  0.2343
14541TIP3    H265039   0.413   1.131   0.915 -0.3054 -0.9524  0.4078
14542TIP3   OH265040   2.313   1.944   3.119  0.1755  0.5328 -0.1617
14542TIP3    H165041   2.400   1.925   3.083  0.3894  0.5126  0.3510
14542TIP3    H265042   2.278   1.859   3.144 -1.1008  0.1952 -2.7418
14543TIP3   OH265043   1.463   4.066  13.924  0.4873 -0.5257 -0.1190
14543TIP3    H165044   1.544   4.048  13.972 -0.3508  0.3457  1.6975
14543TIP3    H265045   1.417   4.130  13.978 -1.4974 -1.1281 -1.0245
14544TIP3   OH265046   6.380   1.768  11.616 -0.4659  0.0691 -0.3594
14544TIP3    H165047   6.393   1.862  11.630 -2.8258  0.2093  1.7945
14544TIP3    H265048   6.438   1.746  11.543  0.3455  3.1326 -0.7975
14545TIP3   OH265049   4.838   6.182   0.715  0.0969 -0.3010  0.5355
14545TIP3    H165050   4.839   6.250   0.648  1.8150 -0.9147 -0.1105
14545TIP3    H265051   4.794   6.223   0.790  2.4061  2.1361  0.7360
14546TIP3   OH265052   2.794   4.016  16.790  0.2656 -0.5931  0.0520
14546TIP3    H165053   2.710   4.060  16.773  0.8808  1.3613  1.6585
14546TIP3    H265054   2.846   4.032  16.712 -0.7500 -1.6193 -0.8615
14547TIP3   OH265055   2.419   5.068  10.594 -0.4527 -0.0321 -0.0495
14547TIP3    H165056   2.491   5.102  10.541  0.4084 -0.5062  0.7805
14547TIP3    H265057   2.412   4.976  10.568  1.3427 -0.8543  2.0034
14548TIP3   OH265058   4.067   3.175   1.361 -0.6068 -0.2627  0.5646
14548TIP3    H165059   4.026   3.100   1.403 -0.3705 -0.8211 -0.1837
14548TIP3    H265060   4.087   3.145   1.272 -0.1394  0.5507  0.3852
14549TIP3   OH265061   5.619   2.612  12.859  0.1928 -0.3755  0.5645
14549TIP3    H165062   5.709   2.643  12.858 -0.0038  0.2607 -1.1892
14549TIP3    H265063   5.626   2.517  12.860  0.8939 -0.3315  0.3411
14550TIP3   OH265064   6.249   6.543  12.482  0.1980  0.2148 -0.3853
14550TIP3    H165065   6.210   6.478  12.539  1.3659 -1.8917 -1.8567
14550TIP3    H265066   6.175   6.580  12.433 -0.5621  0.6087  1.0264
14551TIP3   OH265067   0.460   6.265   3.567 -0.5220  0.1219  0.1377
14551TIP3    H165068   0.437   6.318   3.491  0.0467 -1.3466 -1.1242
14551TIP3    H265069   0.410   6.302   3.639  0.2568  2.6762 -0.5383
14552TIP3   OH265070   3.429   2.069   4.985  0.1543 -0.0768 -0.7674
14552TIP3    H165071   3.372   2.123   4.931  0.5526  0.1877 -0.9231
14552TIP3    H265072   3.509   2.057   4.933 -0.2464 -1.5249 -1.0993
14553TIP3   OH265073   1.465   3.029  16.790 -0.3823 -0.1146 -0.3884
14553TIP3    H165074   1.441   2.976  16.714  0.0575 -1.7847  0.5878
14553TIP3    H265075   1.457   2.970  16.864  2.1836  0.5242  0.5175
14554TIP3   OH265076   1.866   3.949   5.490 -0.1470 -0.2716 -0.3809
14554TIP3    H165077   1.942   3.970   5.435  0.3305  0.0505  0.3923
14554TIP3    H265078   1.849   3.856   5.472  1.4484 -0.8047  0.6320
14555TIP3   OH265079   3.150   0.196  11.746  0.1246  0.2095 -0.9604
14555TIP3    H165080   3.233   0.148  11.736  0.6385  0.8689 -0.0687
14555TIP3    H265081   3.155   0.267  11.683 -0.3726 -0.5412 -1.8629
14556TIP3   OH265082   3.477   4.687   2.741 -0.0865  0.4460 -0.0265
14556TIP3    H165083   3.494   4.594   2.754 -1.5331  0.1663  0.0240
14556TIP3    H265084   3.423   4.713   2.817 -0.0359  1.2268 -0.2448
14557TIP3   OH265085   4.250   6.220   0.457  0.1601  0.5243  0.3041
14557TIP3    H165086   4.166   6.234   0.500 -0.8548 -0.7444 -1.1748
14557TIP3    H265087   4.299   6.163   0.517  0.6111  2.4468  1.8631
14558TIP3   OH265088   5.567   0.708   1.192  0.1832 -0.1177 -0.7100
14558TIP3    H165089   5.595   0.630   1.240 -0.1237  0.6162  0.7047
14558TIP3    H265090   5.609   0.700   1.107  1.9643 -0.7211  0.1797
14559TIP3   OH265091   3.786   5.099  16.288 -0.2063 -0.4645  0.5264
14559TIP3    H165092   3.695   5.105  16.317 -0.3844  1.4828 -0.2517
14559TIP3    H265093   3.837   5.129  16.364 -0.4434  1.1957  0.0816
14560TIP3   OH265094   1.194   4.115   3.978 -0.5487  0.3197  0.0769
14560TIP3    H165095   1.253   4.052   4.018 -0.3691  1.4548  1.7176
14560TIP3    H265096   1.250   4.189   3.953 -0.3898 -0.8830 -3.8003
14561TIP3   OH265097   4.794   1.066   5.667  0.5644 -0.6183 -0.1517
14561TIP3    H165098   4.805   0.978   5.632  0.0879 -0.9366  0.5008
14561TIP3    H265099   4.848   1.067   5.747 -0.4413 -0.7303  0.5423
14562TIP3   OH265100   4.290   5.081   1.952  0.1699 -0.6728  0.2137
14562TIP3    H165101   4.260   5.074   2.043  1.1469  1.3464  0.7588
14562TIP3    H265102   4.222   5.134   1.909  1.7314  2.1198  0.9333
14563TIP3   OH265103   5.647   1.066   4.657 -0.3824  0.5701 -0.1618
14563TIP3    H165104   5.626   1.133   4.721  1.2451  0.3041  0.6892
14563TIP3    H265105   5.562   1.043   4.619 -1.1547  2.0167  0.5890
14564TIP3   OH265106   5.190   3.171  16.151  0.2613 -0.5709 -0.0724
14564TIP3    H165107   5.149   3.255  16.170  0.5790 -0.6120  0.8372
14564TIP3    H265108   5.284   3.190  16.151  0.3013 -0.4053 -2.4599
14565TIP3   OH265109   6.087   2.676   5.039 -0.3597 -0.5441 -0.2232
14565TIP3    H165110   6.104   2.752   5.094  0.5477 -1.8961  1.5030
14565TIP3    H265111   6.073   2.711   4.951 -0.3816  1.6071  0.5957
14566TIP3   OH265112   3.114   2.443   1.210 -0.5231 -0.3554 -0.0481
14566TIP3    H165113   3.122   2.417   1.118 -0.2083 -0.6744  0.0685
14566TIP3    H265114   3.021   2.435   1.229 -0.4486 -1.3306 -0.0377
14567TIP3   OH265115   0.474   5.645   2.558  0.5902  0.4345  0.1568
14567TIP3    H165116   0.451   5.737   2.542 -1.2619 -0.1915 -1.1449
14567TIP3    H265117   0.543   5.626   2.495  0.5590  0.7638  0.0225
14568TIP3   OH265118   0.414   3.955   0.808 -0.5642  0.4813 -0.0404
14568TIP3    H165119   0.347   4.010   0.767 -1.2575 -0.5352 -0.3001
14568TIP3    H265120   0.456   4.012   0.873  0.4473  2.1089 -1.9956
14569TIP3   OH265121   1.665   6.472  16.309  0.2981 -0.2144  0.4161
14569TIP3    H165122   1.677   6.477  16.214  0.5084 -2.1529  0.3160
14569TIP3    H265123   1.715   6.546  16.343  0.9560 -0.0083 -0.9216
14570TIP3   OH265124   5.652   4.021  15.054 -1.0110  0.0444 -0.2545
14570TIP3    H165125   5.687   4.074  15.126 -1.1357  0.0869 -0.2240
14570TIP3    H265126   5.615   4.085  14.994  1.3477  0.2275 -1.6309
14571TIP3   OH265127   1.675   4.985  14.555  0.3197 -0.3200 -0.2769
14571TIP3    H165128   1.736   4.987  14.481  0.1983 -2.0552 -0.4727
14571TIP3    H265129   1.717   5.037  14.623  1.2147 -0.0753 -1.0030
14572TIP3   OH265130   0.662   2.327  16.668  1.2720  0.1960  0.4015
14572TIP3    H165131   0.619   2.390  16.726  1.1452 -1.5533  2.3557
14572TIP3    H265132   0.753   2.325  16.698  1.2648 -0.5532  0.3958
14573TIP3   OH265133   5.670   5.162   1.040  0.1206  0.1472 -0.0195
14573TIP3    H165134   5.604   5.205   0.985  0.1522 -1.3881 -1.3319
14573TIP3    H265135   5.743   5.223   1.042 -0.8803  1.3718  0.5106
14574TIP3   OH265136   1.816   6.417   6.070 -0.2398 -0.0668 -0.3942
14574TIP3    H165137   1.793   6.429   6.162  1.3021 -0.5016  0.0823
14574TIP3    H265138   1.908   6.442   6.065 -0.7654  1.7176 -2.2111
14575TIP3   OH265139   6.418   3.769  14.231  0.3140 -0.3980 -0.0345
14575TIP3    H165140   6.440   3.798  14.142 -1.9758  1.4334 -0.0895
14575TIP3    H265141   6.330   3.732  14.224  0.3686 -0.8582  1.3464
14576TIP3   OH265142   5.982   0.383  13.899  0.3280  0.3547  0.1785
14576TIP3    H165143   5.989   0.308  13.957  0.4463  1.1111  1.1579
14576TIP3    H265144   5.895   0.375  13.860  0.3154 -0.2437  0.3191
14577TIP3   OH265145   3.639   6.459  11.736 -0.0700  0.1205 -0.2273
14577TIP3    H165146   3.714   6.482  11.792  0.5093  0.6679 -1.1913
14577TIP3    H265147   3.678   6.410  11.664 -0.8276 -0.6933 -0.0965
14578TIP3   OH265148   1.181   5.877   0.667 -0.0909 -0.0693  0.6711
14578TIP3    H165149   1.264   5.883   0.714  0.5169 -0.7656 -0.3065
14578TIP3    H265150   1.189   5.939   0.595 -0.1694 -0.6137  0.1915
14579TIP3   OH265151   4.955   1.384   0.229  0.3655  0.4615  0.1100
14579TIP3    H165152   4.996   1.436   0.298  1.7419 -1.3067  0.6806
14579TIP3    H265153   5.015   1.393   0.154  0.0811  0.5076 -0.1136
14580TIP3   OH265154   2.667   1.768   2.975  0.3956 -0.4273  0.2609
14580TIP3    H165155   2.758   1.796   2.981  1.3532 -3.1462 -0.0739
14580TIP3    H265156   2.625   1.833   2.919  2.3048  0.5045 -0.1699
14581TIP3   OH265157   1.527   2.860   2.466 -0.6083 -0.2213 -0.0180
14581TIP3    H165158   1.469   2.806   2.411 -1.4878  0.6766  0.0104
14581TIP3    H265159   1.481   2.943   2.475  1.1533  0.9010 -0.8641
14582TIP3   OH265160   1.100   6.391  13.391 -0.4207 -0.0983  0.3172
14582TIP3    H165161   1.114   6.400  13.297  0.5509 -2.8900  0.1030
14582TIP3    H265162   1.005   6.381  13.401 -0.6583  1.4141 -0.1866
14583TIP3   OH265163   0.602   5.106  12.624  0.2083 -0.2317 -1.1868
14583TIP3    H165164   0.647   5.024  12.644  0.2123 -0.0289 -0.3452
14583TIP3    H265165   0.646   5.140  12.546  1.9870  0.3083  0.0056
14584TIP3   OH265166   1.977   4.180   2.071  0.0734  0.1501  0.4374
14584TIP3    H165167   2.011   4.227   2.148 -0.6518 -0.6710  1.2829
14584TIP3    H265168   2.020   4.221   1.997  1.0082  0.7798  1.3081
14585TIP3   OH265169   4.519   1.813  12.877  0.5697  0.2386  0.3666
14585TIP3    H165170   4.438   1.856  12.852  1.2826  1.6735  0.4507
14585TIP3    H265171   4.517   1.729  12.831 -0.9229  0.2726  0.3353
14586TIP3   OH265172   5.670   5.394   4.899  0.0562 -0.3032 -0.7386
14586TIP3    H165173   5.621   5.372   4.819 -1.3770 -0.1827  0.0599
14586TIP3    H265174   5.722   5.470   4.875 -0.0353 -0.5217 -1.6733
14587TIP3   OH265175   4.712   4.996  11.414  0.0773  0.1690  0.0605
14587TIP3    H165176   4.705   5.087  11.443  1.4962  0.5021 -0.5352
14587TIP3    H265177   4.706   5.001  11.318  1.0846 -0.2275 -0.0402
14588TIP3   OH265178   1.522   6.296  16.519  0.2663  0.5560  0.3103
14588TIP3    H165179   1.612   6.328  16.528  0.4479  0.2569 -0.3570
14588TIP3    H265180   1.529   6.201  16.527 -0.0826  0.5747  0.8928
14589TIP3   OH265181   5.595   2.729  15.270 -0.3895 -0.0207 -0.1512
14589TIP3    H165182   5.647   2.649  15.257  0.0942  0.4923 -1.6118
14589TIP3    H265183   5.558   2.747  15.183  1.1185  2.4300 -0.3649
14590TIP3   OH265184   4.018   2.993   1.123 -0.5534 -0.2029  0.1743
14590TIP3    H165185   3.978   3.013   1.038 -1.2311 -0.9716  0.2937
14590TIP3    H265186   4.014   2.898   1.130 -0.9242 -0.1323  1.2555
14591TIP3   OH265187   5.179   2.853   4.257 -0.4178  0.0827  0.3506
14591TIP3    H165188   5.139   2.780   4.304 -0.0824 -1.1314 -1.1968
14591TIP3    H265189   5.264   2.865   4.299 -0.9145  0.3397  1.3207
14592TIP3   OH265190   0.694   2.802   5.292 -0.4880 -0.2218  0.0564
14592TIP3    H165191   0.789   2.809   5.287 -0.4317 -1.6904 -1.3331
14592TIP3    H265192   0.664   2.796   5.202 -2.0003  1.0418  0.4206
14593TIP3   OH265193   6.097   1.160   4.280  0.2378  0.1548  0.1360
14593TIP3    H165194   6.100   1.178   4.374  0.1830 -0.9274  0.3592
14593TIP3    H265195   6.124   1.242   4.238  0.7359  0.4968  1.1088
14594TIP3   OH265196   2.472   6.693  11.267  0.3544  0.1746  0.1816
14594TIP3    H165197   2.534   6.740  11.323  0.7293  0.7550 -0.7116
14594TIP3    H265198   2.526   6.657  11.197 -0.2349  0.1600 -0.2670
14595TIP3   OH265199   0.998   6.224  11.165 -0.0643 -0.5554  0.3679
14595TIP3    H165200   1.023   6.194  11.077  3.0151 -0.6660  1.1633
14595TIP3    H265201   1.018   6.317  11.165 -1.6124 -0.1931  0.5097
14596TIP3   OH265202   4.815   4.189  11.720  0.0216  0.2007  0.0521
14596TIP3    H165203   4.754   4.176  11.648  2.8527 -0.4794 -2.4707
14596TIP3    H265204   4.867   4.108  11.721  2.3280  1.6043  0.4695
14597TIP3   OH265205   2.505   2.110  16.548 -0.9039 -0.0480  0.0699
14597TIP3    H165206   2.559   2.052  16.600  0.4337  2.5509  1.7942
14597TIP3    H265207   2.457   2.052  16.489  1.3460 -2.7263  0.6788
14598TIP3   OH265208   6.114   0.815  16.688 -0.1662  0.2498  0.6642
14598TIP3    H165209   6.128   0.721  16.694  1.6283  0.3210 -1.1531
14598TIP3    H265210   6.192   0.854  16.728  0.0742  0.8888 -0.3720
14599TIP3   OH265211   6.168   4.972  13.113 -0.6033  0.3597  0.5230
14599TIP3    H165212   6.116   4.913  13.059  0.1249 -0.1486  0.3717
14599TIP3    H265213   6.147   5.059  13.080 -3.7696  0.4859  2.4752
14600TIP3   OH265214   1.433   5.778  12.264 -0.2368  0.3528 -0.5221
14600TIP3    H165215   1.512   5.746  12.308  0.4222  1.4119 -0.9011
14600TIP3    H265216   1.399   5.702  12.217  0.5826 -0.1107 -0.3877
14601TIP3   OH265217   5.448   1.178  15.500 -0.4860  0.0939 -0.1824
14601TIP3    H165218   5.488   1.175  15.587 -1.8481 -0.4127  0.4583
14601TIP3    H265219   5.400   1.095  15.493  0.1534 -0.1829 -1.7088
14602TIP3   OH265220   5.743   4.681  12.499 -0.4575  0.2900 -0.3639
14602TIP3    H165221   5.752   4.650  12.409 -0.4645  0.2635 -0.3557
14602TIP3    H265222   5.828   4.661  12.539 -0.8001 -0.6755 -0.0738
14603TIP3   OH265223   0.814   4.797  10.961 -0.4362 -0.0737  0.0695
14603TIP3    H165224   0.799   4.730  10.895 -0.7347  0.6995 -0.6702
14603TIP3    H265225   0.813   4.879  10.912 -2.7801  0.7226  1.2842
14604TIP3   OH265226   6.181   5.231  11.154  0.0272 -0.2443 -0.2325
14604TIP3    H165227   6.129   5.151  11.150 -0.8193  0.2418  0.6189
14604TIP3    H265228   6.133   5.293  11.098  1.4527 -0.7148 -2.0905
14605TIP3   OH265229   1.977   3.099  16.466  0.0925 -0.1736 -0.1037
14605TIP3    H165230   2.017   3.018  16.498 -0.4465 -0.8294 -1.0147
14605TIP3    H265231   2.040   3.134  16.403 -0.0520 -0.3492 -0.3474
14606TIP3   OH265232   0.611   0.520   5.251 -0.4706  0.5123  0.1009
14606TIP3    H165233   0.568   0.598   5.284 -1.6885 -0.1267  0.0896
14606TIP3    H265234   0.590   0.518   5.158  0.6199  0.8246 -0.1722
14607TIP3   OH265235   5.202   2.698   1.633 -0.2273  0.0169  0.9026
14607TIP3    H165236   5.216   2.767   1.569  0.2713 -0.8021  0.0981
14607TIP3    H265237   5.192   2.744   1.717 -0.8829  1.1008  0.2496
14608TIP3   OH265238   1.137   4.141  14.409  0.1149 -0.1495  0.2953
14608TIP3    H165239   1.111   4.228  14.440 -0.7894  0.4083 -1.8527
14608TIP3    H265240   1.231   4.148  14.394 -0.3618  1.6272 -2.9419
14609TIP3   OH265241   3.286   5.323  15.977  0.6824  0.1088  0.2333
14609TIP3    H165242   3.235   5.338  16.057  0.9112 -0.6644  0.5301
14609TIP3    H265243   3.374   5.303  16.008  0.5262 -1.2626 -0.1491
14610TIP3   OH265244   0.831   1.593  12.858 -0.3751 -0.4171  0.4200
14610TIP3    H165245   0.790   1.611  12.773 -0.4215 -0.3787  0.4506
14610TIP3    H265246   0.762   1.610  12.922  0.3629  2.1396  0.6490
14611TIP3   OH265247   2.629   3.213   0.991 -0.3615 -0.2944  0.1297
14611TIP3    H165248   2.692   3.152   0.953 -1.2613 -1.8976  1.0893
14611TIP3    H265249   2.680   3.267   1.051  0.4132 -0.3091 -0.5108
14612TIP3   OH265250   3.567   2.129   5.666  0.1533 -0.2954  0.4307
14612TIP3    H165251   3.566   2.184   5.587  0.9470 -1.2410 -0.2608
14612TIP3    H265252   3.477   2.097   5.675 -0.0778  0.2938  0.2572
14613TIP3   OH265253   5.682   6.652  13.081  0.4597 -0.1130 -0.1936
14613TIP3    H165254   5.774   6.642  13.106  0.0653  0.7056  1.7583
14613TIP3    H265255   5.635   6.596  13.142 -0.3961  0.0527 -0.6980
14614TIP3   OH265256   6.168   4.685   3.238  0.0109 -0.3160 -0.0689
14614TIP3    H165257   6.189   4.723   3.323  0.8876 -0.9351  0.0043
14614TIP3    H265258   6.078   4.712   3.221 -0.3163 -0.5288  1.2452
14615TIP3   OH265259   2.002   2.835  15.465  0.5136 -0.5469  0.3756
14615TIP3    H165260   2.035   2.773  15.401 -0.8055  0.2560 -1.1591
14615TIP3    H265261   2.021   2.921  15.427 -4.9085  0.1037 -1.7984
14616TIP3   OH265262   5.547   4.067  12.705  0.0986  0.0370  0.1344
14616TIP3    H165263   5.575   4.008  12.775 -0.4537 -0.3427  0.0391
14616TIP3    H265264   5.510   4.143  12.750 -1.6873 -0.8756  0.2827
14617TIP3   OH265265   5.037   3.988   5.030  0.0934  0.4925  0.0211
14617TIP3    H165266   4.988   4.069   5.042  0.1579  0.9197 -2.1805
14617TIP3    H265267   5.120   4.015   4.990  1.1710 -0.4568  1.4910
14618TIP3   OH265268   5.404   1.507   3.380  0.1692 -0.4634 -0.1837
14618TIP3    H165269   5.312   1.484   3.363 -0.2468  1.1818 -0.3560
14618TIP3    H265270   5.411   1.507   3.475 -0.0300 -0.5747 -0.1687
14619TIP3   OH265271   2.117   1.874   3.426 -0.4743  0.0993 -0.4749
14619TIP3    H165272   2.073   1.854   3.509  0.9517 -0.0235  0.2803
14619TIP3    H265273   2.087   1.805   3.366 -0.1224 -0.9163  0.4704
14620TIP3   OH265274   0.257   0.236  14.194 -0.1299  0.4181 -0.0678
14620TIP3    H165275   0.319   0.166  14.174  0.4199  0.2260  2.0191
14620TIP3    H265276   0.233   0.272  14.109  0.3440 -1.6347 -1.1380
14621TIP3   OH265277   5.118   3.101  15.903 -0.5007  0.1492 -0.2466
14621TIP3    H165278   5.207   3.069  15.914 -0.5696 -0.0245 -0.1939
14621TIP3    H265279   5.099   3.148  15.984  0.3879  2.2333 -1.1859
14622TIP3   OH265280   0.398   4.196  13.200 -0.0337  0.5442 -0.4969
14622TIP3    H165281   0.452   4.135  13.149 -0.1769 -0.8274  0.9160
14622TIP3    H265282   0.312   4.154  13.202 -0.2166  0.9495  0.2431
14623TIP3   OH265283   1.958   0.422  11.885  0.0988  0.2079  0.8709
14623TIP3    H165284   2.010   0.391  11.810  1.9844  1.6351  1.4995
14623TIP3    H265285   1.924   0.342  11.925 -3.0897 -0.5997 -2.7788
14624TIP3   OH265286   2.369   4.475   3.418 -0.4156 -0.0050 -0.3657
14624TIP3    H165287   2.382   4.530   3.496  0.9842  1.1154 -1.3419
14624TIP3    H265288   2.279   4.493   3.391 -1.2295 -1.0843  1.4581
14625TIP3   OH265289   3.136   1.419   4.424  0.2386  0.4247 -0.5022
14625TIP3    H165290   3.110   1.423   4.516  2.7322 -0.1791  0.3234
14625TIP3    H265291   3.111   1.332   4.396  0.7229  0.0884  0.0681
14626TIP3   OH265292   4.686   5.029   5.564  0.0733  0.4934  0.0683
14626TIP3    H165293   4.676   4.935   5.547  0.9674  0.6516 -1.4493
14626TIP3    H265294   4.632   5.044   5.642 -0.5539 -1.1618  0.0076
14627TIP3   OH265295   5.147   3.755  11.221 -0.1315 -0.0482 -0.6161
14627TIP3    H165296   5.070   3.716  11.263 -0.2141 -0.6999 -1.3649
14627TIP3    H265297   5.219   3.696  11.243 -0.3245 -0.8639 -2.0595
14628TIP3   OH265298   2.907   2.951   4.877  0.0834 -0.0095 -0.1695
14628TIP3    H165299   2.919   2.984   4.788 -0.7921 -0.0409 -0.3084
14628TIP3    H265300   2.918   2.856   4.869 -3.7918 -0.5724 -1.0473
14629TIP3   OH265301   4.112   0.440   5.634  0.3264 -0.1039  0.1501
14629TIP3    H165302   4.105   0.426   5.729 -0.3832  1.4191  0.3609
14629TIP3    H265303   4.088   0.356   5.595 -1.1192 -0.2838  1.3075
14630TIP3   OH265304   6.487   4.720   1.917  0.2054 -0.1926 -0.2066
14630TIP3    H165305   6.531   4.644   1.957  1.7066 -0.4709 -2.1966
14630TIP3    H265306   6.398   4.690   1.900  1.3381 -2.5444 -3.1159
14631TIP3   OH265307   5.591   5.707  11.548  0.1165 -0.1630 -0.0507
14631TIP3    H165308   5.518   5.664  11.504  1.2495  1.8652 -4.5246
14631TIP3    H265309   5.667   5.652  11.528  0.6256  0.6687 -0.4666
14632TIP3   OH265310   3.662   6.033  13.073  0.2354  0.1601 -0.0147
14632TIP3    H165311   3.725   6.051  13.142 -0.4902  0.6174  0.5455
14632TIP3    H265312   3.706   5.969  13.017  0.4518 -1.0527  1.4585
14633TIP3   OH265313   5.310   3.702   1.098  0.5096  0.1044  0.0739
14633TIP3    H165314   5.375   3.672   1.161  1.1993  0.2538 -0.5458
14633TIP3    H265315   5.353   3.691   1.013 -0.5021 -0.3679 -0.3941
14634TIP3   OH265316   0.775   6.122  13.989 -0.2695  0.6108  0.3081
14634TIP3    H165317   0.836   6.189  13.956 -0.3688  0.5073 -0.1008
14634TIP3    H265318   0.816   6.089  14.069 -1.0966  2.4214  1.5202
14635TIP3   OH265319   4.878   4.539  15.877  0.1315  0.2595 -0.2981
14635TIP3    H165320   4.847   4.620  15.917 -0.8982 -0.2916  0.0608
14635TIP3    H265321   4.885   4.477  15.950  0.2849 -0.1625 -0.6640
14636TIP3   OH265322   0.682   4.411  13.996  0.0604 -0.0505  0.8544
14636TIP3    H165323   0.599   4.376  14.029  1.2395 -2.0383  1.9411
14636TIP3    H265324   0.714   4.467  14.067  0.2918 -0.3889  1.0171
14637TIP3   OH265325   1.162   3.075  14.395 -0.4814  0.3254 -0.1391
14637TIP3    H165326   1.118   3.019  14.458  0.1666  0.9165  0.8605
14637TIP3    H265327   1.247   3.093  14.433  0.5190 -0.4920 -1.8685
14638TIP3   OH265328   5.001   2.069   0.470  0.6513 -0.0345 -0.4803
14638TIP3    H165329   4.971   1.980   0.451  1.1855 -0.5319  0.8824
14638TIP3    H265330   5.072   2.084   0.408 -0.0649 -0.1776 -1.3601
14639TIP3   OH265331   4.479   5.809   1.977 -0.6707 -0.4667 -0.1463
14639TIP3    H165332   4.522   5.890   1.950  0.9906 -0.8503  1.1865
14639TIP3    H265333   4.551   5.747   1.990 -1.7501 -1.5752  0.7378
14640TIP3   OH265334   2.754   0.881   1.144  0.7489  0.4559 -0.4370
14640TIP3    H165335   2.763   0.802   1.090 -0.3321  0.4860 -0.6824
14640TIP3    H265336   2.790   0.855   1.229  1.0895 -0.0617 -0.7301
14641TIP3   OH265337   1.099   1.182   0.218  0.0615 -0.7488 -0.6486
14641TIP3    H165338   1.082   1.205   0.309 -1.5735  2.7173 -1.6381
14641TIP3    H265339   1.050   1.101   0.204  0.2665 -1.2865  1.4853
14642TIP3   OH265340   3.783   6.055   5.255 -0.1726 -0.4790  0.4178
14642TIP3    H165341   3.834   6.099   5.188 -0.8188 -0.3776 -0.0218
14642TIP3    H265342   3.692   6.077   5.235 -0.3179  0.7438  2.1659
14643TIP3   OH265343   5.696   0.393   0.137 -0.4878 -0.0139  0.7958
14643TIP3    H165344   5.654   0.388   0.051  1.2229 -0.8194 -0.0507
14643TIP3    H265345   5.647   0.331   0.191 -0.9730 -0.2208  0.1351
14644TIP3   OH265346   3.014   1.876   5.712 -0.2658  0.4705  0.1479
14644TIP3    H165347   3.045   1.878   5.803 -2.4013 -0.8214  0.9981
14644TIP3    H265348   2.989   1.966   5.693 -1.9367  0.3954  1.7075
14645TIP3   OH265349   3.571   1.372   0.057 -0.2414  0.1603 -0.4130
14645TIP3    H165350   3.665   1.366   0.075 -0.3473 -1.3150 -0.2767
14645TIP3    H265351   3.547   1.460   0.087  1.0616  0.5217 -0.3473
14646TIP3   OH265352   5.464   1.501   3.011 -0.0151  0.5338 -0.2297
14646TIP3    H165353   5.390   1.439   3.013  0.4019  0.0240  1.9875
14646TIP3    H265354   5.516   1.478   3.088  0.6282  3.1057  0.1808
14647TIP3   OH265355   6.368   5.703   1.177  0.6196  0.9402  0.2060
14647TIP3    H165356   6.433   5.649   1.132  0.6382  0.0338  1.3018
14647TIP3    H265357   6.374   5.788   1.133  0.9718  0.2309 -1.1838
14648TIP3   OH265358   2.982   0.276  14.485  0.0724 -0.1032 -0.0114
14648TIP3    H165359   2.996   0.355  14.537  0.0011  0.2322 -0.4936
14648TIP3    H265360   3.043   0.212  14.522  1.2705  0.6528 -0.6060
14649TIP3   OH265361   0.593   1.650  12.007 -0.3675 -0.0347 -0.5684
14649TIP3    H165362   0.562   1.562  12.026 -1.1237  0.0090 -1.5647
14649TIP3    H265363   0.632   1.679  12.090 -0.4282 -1.1592 -0.1245
14650TIP3   OH265364   6.280   5.602   1.977 -0.4007 -0.5385 -0.1649
14650TIP3    H165365   6.313   5.656   1.906 -1.1595  0.6205  0.3331
14650TIP3    H265366   6.309   5.513   1.955 -0.4374 -0.1802 -1.7989
14651TIP3   OH265367   5.306   6.648   2.752 -0.6274  0.1195  0.4046
14651TIP3    H165368   5.326   6.694   2.670 -0.4478  0.4002  0.6026
14651TIP3    H265369   5.298   6.718   2.817 -2.8763  0.0809  0.2408
14652TIP3   OH265370   0.597   0.013   2.542 -0.2457 -0.4342 -0.1957
14652TIP3    H165371   0.609   0.054   2.628  0.0179 -0.1146 -0.3844
14652TIP3    H265372   0.678   0.032   2.495 -0.4318 -0.5252 -0.5513
14653TIP3   OH265373   5.739   2.160  12.103  0.0930 -0.2530 -0.1128
14653TIP3    H165374   5.729   2.251  12.132  1.2597 -0.2723  0.3931
14653TIP3    H265375   5.785   2.166  12.019 -0.3891 -0.3596 -0.3930
14654TIP3   OH265376   6.670   5.966  16.247 -0.0141  0.1607  0.5109
14654TIP3    H165377   6.651   6.059  16.232 -0.8857  0.4995  3.1063
14654TIP3    H265378   6.600   5.919  16.202  1.0655  0.6376 -1.7946
14655TIP3   OH265379   6.651   3.506  13.787 -0.4635  0.0312 -0.2086
14655TIP3    H165380   6.697   3.570  13.843 -1.1150 -0.2320  0.6513
14655TIP3    H265381   6.620   3.558  13.713  0.0380  0.4817 -0.1117
14656TIP3   OH265382   1.247   6.028  16.651  0.0657 -0.3733 -0.1718
14656TIP3    H165383   1.219   6.030  16.559 -2.4333  0.5079  0.5183
14656TIP3    H265384   1.335   6.066  16.650  0.2591 -0.7882 -2.2497
14657TIP3   OH265385   4.597   3.045   3.797 -0.5176  0.0432  0.8935
14657TIP3    H165386   4.669   3.097   3.834 -0.6052  0.6986  0.1785
14657TIP3    H265387   4.547   3.017   3.873  0.5489 -0.5210  1.4158
14658TIP3   OH265388   2.274   4.066   4.206 -0.2687 -0.6496  0.1323
14658TIP3    H165389   2.263   4.039   4.115  0.6792 -0.2881 -0.1011
14658TIP3    H265390   2.192   4.111   4.228  0.2371  1.0305 -1.1984
14659TIP3   OH265391   6.520   2.792  15.667 -0.0264  0.1295 -0.2208
14659TIP3    H165392   6.530   2.860  15.601  2.6547 -1.3547 -1.5612
14659TIP3    H265393   6.499   2.713  15.617  0.7942 -0.7837  0.8162
14660TIP3   OH265394   5.567   3.665  14.014 -0.0348  0.2827  0.3693
14660TIP3    H165395   5.493   3.658  14.074 -0.4121  0.4977 -0.0615
14660TIP3    H265396   5.528   3.692  13.931  0.2657 -1.4489 -0.3887
14661TIP3   OH265397   5.909   2.153  14.580 -0.0290 -0.5599  0.4908
14661TIP3    H165398   5.835   2.134  14.522  0.1283 -2.4002  0.8466
14661TIP3    H265399   5.869   2.196  14.656 -0.7807 -1.6409  0.7331
14662TIP3   OH265400   0.227   3.585  16.926 -0.1204  0.1437 -0.1828
14662TIP3    H165401   0.185   3.670  16.942 -2.6608 -0.3835 -3.0672
14662TIP3    H265402   0.195   3.529  16.996 -3.1640  0.2265 -1.3385
14663TIP3   OH265403   6.579   6.174  15.977  0.2339 -0.2524  0.8096
14663TIP3    H165404   6.655   6.213  16.018 -0.2155  0.0040  1.4083
14663TIP3    H265405   6.609   6.088  15.947  1.5497  0.9050 -1.5022
14664TIP3   OH265406   5.303   4.077  14.425 -0.0290  0.1589 -0.1268
14664TIP3    H165407   5.217   4.103  14.461 -0.6395 -0.7477 -0.8975
14664TIP3    H265408   5.352   4.159  14.420 -1.5226  1.0180 -1.4598
14665TIP3   OH265409   0.391   1.077   2.936  0.1727 -0.0234  0.2220
14665TIP3    H165410   0.299   1.063   2.913 -0.0638  1.9087 -0.1764
14665TIP3    H265411   0.388   1.143   3.006  1.2703  0.3661 -0.0798
14666TIP3   OH265412   3.169   5.770   3.168  0.5004 -0.2251 -0.0859
14666TIP3    H165413   3.143   5.859   3.144  0.7075 -0.0100  0.4643
14666TIP3    H265414   3.178   5.773   3.263 -1.6003 -1.3945  0.2139
14667TIP3   OH265415   3.874   4.309   2.193  0.3872  0.0672  0.2042
14667TIP3    H165416   3.909   4.275   2.111  0.3748  0.3046  0.0983
14667TIP3    H265417   3.781   4.323   2.176  0.1007 -1.1624  0.6845
14668TIP3   OH265418   2.043   6.283  14.873 -0.2166  0.0398 -0.4349
14668TIP3    H165419   2.124   6.314  14.914  1.5676 -3.1195 -1.2488
14668TIP3    H265420   1.997   6.235  14.942 -1.2828  1.4816 -0.0870
14669TIP3   OH265421   1.135   3.744   1.995 -0.0021 -0.3162 -0.2101
14669TIP3    H165422   1.150   3.818   1.935 -1.2624 -0.6255 -0.9501
14669TIP3    H265423   1.222   3.712   2.015  0.4713 -0.4195 -2.1836
14670TIP3   OH265424   3.650   4.486  10.778  0.2770  0.2725 -0.1329
14670TIP3    H165425   3.711   4.413  10.784 -1.5801 -1.2609  1.7773
14670TIP3    H265426   3.576   4.452  10.728 -0.0842  1.2566 -0.3015
14671TIP3   OH265427   1.461   2.851   0.004 -0.2135  0.2414  0.3621
14671TIP3    H165428   1.547   2.862   0.043 -0.7834 -0.1828  1.7985
14671TIP3    H265429   1.451   2.756  -0.004 -0.9067  0.2413  1.0895
14672TIP3   OH265430   1.897   0.700  11.346 -0.2146 -0.5413 -0.3662
14672TIP3    H165431   1.987   0.703  11.315 -0.6163 -0.5985 -1.5612
14672TIP3    H265432   1.846   0.746  11.280 -0.8042  1.4751  1.3574
14673TIP3   OH265433   4.295   5.418  12.544 -0.0053 -0.6204  0.1878
14673TIP3    H165434   4.301   5.322  12.537 -1.2129 -0.7066  0.1488
14673TIP3    H265435   4.339   5.451  12.465  1.3966 -1.0926  0.7355
14674TIP3   OH265436   3.931   5.927   1.686  0.3611 -0.2118  0.1615
14674TIP3    H165437   3.855   5.962   1.640  0.7442 -1.1624 -1.2712
14674TIP3    H265438   3.903   5.841   1.716  0.3426  0.1254  1.1763
14675TIP3   OH265439   2.472   4.037  10.436  0.2694  0.4000 -0.4269
14675TIP3    H165440   2.538   4.099  10.467  1.6247 -0.7907 -0.8879
14675TIP3    H265441   2.404   4.093  10.397  2.4835  1.5742 -2.8817
14676TIP3   OH265442   2.945   2.526  10.792 -0.2799 -0.3258  0.1379
14676TIP3    H165443   2.857   2.492  10.808 -0.9965  1.2123 -0.3387
14676TIP3    H265444   2.998   2.448  10.775 -1.5199 -1.2898  0.5501
14677TIP3   OH265445   5.813   3.321   2.317 -0.2726 -0.4666 -0.2557
14677TIP3    H165446   5.851   3.261   2.254 -0.2969 -0.7903  0.0353
14677TIP3    H265447   5.888   3.367   2.355 -0.0676 -1.7554  0.9830
14678TIP3   OH265448   2.020   2.061   0.669 -0.2542 -0.2860 -0.2173
14678TIP3    H165449   2.016   2.002   0.594 -1.8259 -0.7306  0.1655
14678TIP3    H265450   1.933   2.054   0.710  0.4057  0.2808  1.3809
14679TIP3   OH265451   2.770   0.654  14.530 -0.5264 -0.1628  0.2688
14679TIP3    H165452   2.702   0.661  14.463 -0.7467  2.7124  0.6574
14679TIP3    H265453   2.750   0.726  14.591  0.5370 -1.7444  2.6166
14680TIP3   OH265454   4.536   4.528  10.946  0.0996 -0.8548 -0.2904
14680TIP3    H165455   4.473   4.600  10.946  1.5735  0.5628 -2.1198
14680TIP3    H265456   4.503   4.466  11.010 -1.2046  1.5066  1.4640
14681TIP3   OH265457   1.473   1.715   0.644  0.1474 -0.0187 -0.4239
14681TIP3    H165458   1.467   1.811   0.640  0.4705  0.0058 -0.3306
14681TIP3    H265459   1.452   1.694   0.735 -0.8044 -0.1058 -0.6493
14682TIP3   OH265460   6.078   4.128  11.064 -0.1482  0.0451  0.8331
14682TIP3    H165461   6.127   4.207  11.088 -0.4374  0.3684  0.3736
14682TIP3    H265462   6.013   4.159  11.001  0.4769 -0.7625 -0.2314
14683TIP3   OH265463   4.634   5.784  12.291 -0.1887  0.5469  0.3412
14683TIP3    H165464   4.551   5.819  12.259 -0.0697 -0.2887 -0.9323
14683TIP3    H265465   4.648   5.704  12.240  0.8199  0.0387  1.3693
14684TIP3   OH265466   5.311   0.249  14.882 -0.5580  0.4406  0.0564
14684TIP3    H165467   5.256   0.276  14.809 -0.3722  0.6893  0.0111
14684TIP3    H265468   5.270   0.289  14.959  0.1023  1.4218 -0.0877
14685TIP3   OH265469   5.205   5.723  11.102 -0.0636  1.1974  0.2947
14685TIP3    H165470   5.204   5.737  11.007  0.2444 -0.6514 -0.0214
14685TIP3    H265471   5.113   5.716  11.126 -0.1240  1.0573  0.0270
14686TIP3   OH265472   4.350   4.984   2.900  0.1024 -0.1905  0.0551
14686TIP3    H165473   4.385   4.967   2.812  2.1879  1.5272  0.4793
14686TIP3    H265474   4.338   4.897   2.937  2.0831 -0.9409 -0.8879
14687TIP3   OH265475   1.439   6.015   6.401 -0.4676 -0.1792 -0.3345
14687TIP3    H165476   1.358   6.057   6.372 -1.0611 -0.4292  0.9055
14687TIP3    H265477   1.414   5.924   6.416  0.5737 -0.8068 -2.0492
14688TIP3   OH265478   3.468   4.674  12.145  0.1105 -0.0961  0.1488
14688TIP3    H165479   3.556   4.641  12.126 -0.3598 -0.4924 -1.5070
14688TIP3    H265480   3.467   4.763  12.111 -0.0229  0.0321  0.4848
14689TIP3   OH265481   0.779   6.470   0.034 -0.3447  0.0453  0.4574
14689TIP3    H165482   0.804   6.546   0.087 -0.5422  0.2529  0.2565
14689TIP3    H265483   0.758   6.507  -0.051  0.9698 -0.4056 -0.0866
14690TIP3   OH265484   5.445   3.539   4.389 -0.6590  0.1072  0.0467
14690TIP3    H165485   5.479   3.621   4.426  0.0892  0.7039 -1.8022
14690TIP3    H265486   5.381   3.568   4.324 -2.9374 -0.9455  1.7116
14691TIP3   OH265487   2.789   6.640  15.892  0.3817  0.0093  0.9792
14691TIP3    H165488   2.815   6.569  15.833 -0.5032  0.6319 -0.1924
14691TIP3    H265489   2.869   6.661  15.940  1.1751 -0.4082 -0.1054
14692TIP3   OH265490   2.341   2.976  15.354 -0.1020  0.1206  0.4191
14692TIP3    H165491   2.415   2.977  15.416 -0.9918 -1.7577  1.6356
14692TIP3    H265492   2.283   3.044  15.386  0.1974  0.2639  0.6739
14693TIP3   OH265493   2.163   5.425  16.855 -0.1735  0.4612  0.3422
14693TIP3    H165494   2.109   5.409  16.778 -0.1203 -1.5656  0.6669
14693TIP3    H265495   2.102   5.427  16.929  0.0406 -0.5280  0.5603
14694TIP3   OH265496   2.434   3.298   0.655 -0.0407 -0.1022 -0.5268
14694TIP3    H165497   2.344   3.305   0.622 -0.3780 -0.4468  0.2750
14694TIP3    H265498   2.423   3.301   0.751  0.7280 -1.0456 -0.4043
14695TIP3   OH265499   0.594   6.608   5.880  0.0029  0.1170  0.1712
14695TIP3    H165500   0.595   6.565   5.794  0.3439  1.9490 -0.7963
14695TIP3    H265501   0.676   6.656   5.883 -0.1864  0.3767  1.3863
14696TIP3   OH265502   2.216   1.937  14.330 -0.4694 -0.2095  0.3878
14696TIP3    H165503   2.159   1.880  14.381 -2.2780  2.0765  1.0928
14696TIP3    H265504   2.249   2.000  14.394  2.3461 -0.9861 -0.1569
14697TIP3   OH265505   0.953   5.285  14.651 -0.5605  0.0695 -0.5129
14697TIP3    H165506   0.902   5.240  14.584 -0.1196  0.2191 -0.9523
14697TIP3    H265507   1.037   5.305  14.609  0.9732 -2.5830  0.9746
14698TIP3   OH265508   6.249   4.052   1.315 -0.4169  0.8079 -0.3793
14698TIP3    H165509   6.230   4.079   1.405 -0.8917 -0.3314 -0.1170
14698TIP3    H265510   6.181   4.092   1.262 -0.8188  0.5506 -0.0656
14699TIP3   OH265511   1.529   1.888  16.260 -0.3647  0.1547  0.4163
14699TIP3    H165512   1.493   1.930  16.339 -0.2421 -1.4073  1.3325
14699TIP3    H265513   1.606   1.941  16.239 -0.3301  0.5324  1.4138
14700TIP3   OH265514   0.181   3.816  10.426 -0.1339  0.2903  0.1161
14700TIP3    H165515   0.086   3.819  10.418 -0.0809  1.1879 -0.2788
14700TIP3    H265516   0.205   3.902  10.460  0.6494  0.6103 -1.1651
14701TIP3   OH265517   2.376   6.483  11.013  0.2068  0.0038 -0.6179
14701TIP3    H165518   2.303   6.498  11.074  0.2643 -0.3304 -0.4666
14701TIP3    H265519   2.334   6.482  10.927  0.2027  1.0543 -0.6430
14702TIP3   OH265520   0.729   6.727   5.488  0.1821  0.9655  0.2604
14702TIP3    H165521   0.638   6.755   5.490 -0.2457 -0.2816 -0.4696
14702TIP3    H265522   0.741   6.690   5.401  0.8748 -0.4472  0.9144
14703TIP3   OH265523   4.815   3.194  11.362  0.3507 -0.0781 -0.4061
14703TIP3    H165524   4.738   3.145  11.389  1.1305 -0.9775  0.2542
14703TIP3    H265525   4.880   3.175  11.430  0.5182  2.3371  0.2277
14704TIP3   OH265526   6.405   5.836  11.175  0.0365  0.3174 -0.2607
14704TIP3    H165527   6.362   5.874  11.099  0.3525 -0.7013 -0.9557
14704TIP3    H265528   6.497   5.859  11.165  0.8242 -3.0324 -2.3046
14705TIP3   OH265529   0.018   0.392  11.761 -0.0514 -0.0187  0.3624
14705TIP3    H165530   0.063   0.419  11.680  2.1338  0.7500  1.7509
14705TIP3    H265531  -0.015   0.304  11.742 -1.3279  0.8510 -1.9798
14706TIP3   OH265532   3.024   2.503   6.114  0.3078 -0.2649  0.0135
14706TIP3    H165533   2.998   2.486   6.205 -1.3657  2.5828  0.1792
14706TIP3    H265534   2.984   2.431   6.065 -2.0428  0.1785  1.1432
14707TIP3   OH265535   3.879   5.789   5.643  0.7624  0.4179  0.3126
14707TIP3    H165536   3.828   5.797   5.563 -0.2425  1.1423  0.9981
14707TIP3    H265537   3.841   5.713   5.688  1.3155  0.0195  0.1192
14708TIP3   OH265538   0.381   1.156   1.647  0.2926 -0.2342 -0.5192
14708TIP3    H165539   0.342   1.243   1.646  2.0914  0.6902  1.7072
14708TIP3    H265540   0.415   1.146   1.736  1.2589 -2.7014 -1.0905
14709TIP3   OH265541   6.716   0.108   1.629  0.1257  0.1901 -0.1331
14709TIP3    H165542   6.691   0.037   1.688 -1.5382  0.4634 -0.4799
14709TIP3    H265543   6.789   0.151   1.674 -0.0527 -0.6059  0.9539
14710TIP3   OH265544   3.546   1.105   6.188  0.0866 -0.4731 -0.3509
14710TIP3    H165545   3.543   1.066   6.276 -0.1289  0.7060  0.1929
14710TIP3    H265546   3.639   1.123   6.173  0.0111  0.5527  0.2380
14711TIP3   OH265547   1.758   3.408  17.026 -0.0359  0.3977 -0.2796
14711TIP3    H165548   1.681   3.404  16.968  1.4552 -0.2365 -2.3725
14711TIP3    H265549   1.722   3.424  17.113 -2.5904 -0.5991 -1.0453
14712TIP3   OH265550   3.915   0.864  14.509  1.0701 -0.2282 -0.4040
14712TIP3    H165551   3.957   0.949  14.513  0.6696  0.0378 -1.4311
14712TIP3    H265552   3.835   0.874  14.561  1.1687 -0.0662 -0.2847
14713TIP3   OH265553   3.939   2.910  10.341 -0.3983  0.6071  0.2615
14713TIP3    H165554   3.965   2.982  10.397 -1.3156  3.4024 -2.5821
14713TIP3    H265555   4.018   2.856  10.333  0.7412  2.0040  1.4993
14714TIP3   OH265556   3.399   0.442  10.557 -0.0890 -0.4594 -0.0990
14714TIP3    H165557   3.343   0.439  10.479  1.4593  1.1163 -1.3541
14714TIP3    H265558   3.419   0.351  10.575  1.1882 -0.8588 -2.8952
14715TIP3   OH265559   3.719   3.879  12.256 -0.2675 -0.3581 -0.1953
14715TIP3    H165560   3.769   3.932  12.194  0.1590 -0.5966 -0.0651
14715TIP3    H265561   3.716   3.931  12.336 -2.2131  0.6786 -0.8657
14716TIP3   OH265562   0.341   6.122  15.336 -0.2104  0.4615 -0.1459
14716TIP3    H165563   0.394   6.199  15.354  1.6079 -0.7991  0.2043
14716TIP3    H265564   0.335   6.119  15.240  1.3646  0.0365 -0.2640
14717TIP3   OH265565   5.269   4.431   3.251  0.1311  0.1229 -0.0025
14717TIP3    H165566   5.199   4.481   3.293  1.6559  0.7828  1.9318
14717TIP3    H265567   5.275   4.467   3.163 -0.2587  1.8914  0.6577
14718TIP3   OH265568   6.182   3.656   2.258 -0.1213  0.2887 -0.2435
14718TIP3    H165569   6.127   3.696   2.191  0.0735 -0.8558 -1.0971
14718TIP3    H265570   6.179   3.719   2.331 -1.7860  0.6944 -0.6219
14719TIP3   OH265571   4.835   2.987   4.723  0.3812 -0.0139  0.0444
14719TIP3    H165572   4.751   3.002   4.766  1.3754 -0.3042  2.2279
14719TIP3    H265573   4.812   2.962   4.633 -1.8393 -0.0204  0.5566
14720TIP3   OH265574   4.774   5.889  12.654  0.3263 -0.6962  0.6597
14720TIP3    H165575   4.860   5.876  12.615  0.4037 -0.1762  0.6474
14720TIP3    H265576   4.717   5.910  12.580 -0.2432 -2.9069  0.3949
14721TIP3   OH265577   3.419   4.593  12.847  0.1032  0.3513  0.1338
14721TIP3    H165578   3.493   4.548  12.807 -0.4377 -1.2084  0.8207
14721TIP3    H265579   3.342   4.560  12.800 -0.4394 -0.6617  1.6538
14722TIP3   OH265580   0.707   2.276   0.509  0.1819  0.0725  0.1651
14722TIP3    H165581   0.793   2.282   0.550  1.6652 -4.4864 -1.5671
14722TIP3    H265582   0.694   2.360   0.467  2.8116  1.6466  2.1843
14723TIP3   OH265583   3.970   2.909   2.811 -0.1618 -0.1194  0.3405
14723TIP3    H165584   4.036   2.965   2.770 -1.4785  1.2935  0.0847
14723TIP3    H265585   3.895   2.913   2.752 -1.5610  0.7634  2.0894
14724TIP3   OH265586   6.759   1.682   2.169  0.3790  0.0658  0.3979
14724TIP3    H165587   6.689   1.741   2.197  1.6048  1.0256  1.6224
14724TIP3    H265588   6.806   1.732   2.101  0.9350  0.1852  0.8601
14725TIP3   OH265589   3.245   1.667  14.566  0.1023  0.3069 -0.0015
14725TIP3    H165590   3.238   1.659  14.470 -1.3660  0.2436  0.0952
14725TIP3    H265591   3.339   1.663  14.583  0.3472 -0.5051 -1.3807
14726TIP3   OH265592   4.851   1.750  11.156 -0.1741  0.1984  0.6369
14726TIP3    H165593   4.898   1.717  11.232 -0.9337  0.4451  1.2170
14726TIP3    H265594   4.810   1.672  11.117  0.4678  0.0270  0.2949
14727TIP3   OH265595   1.697   1.931  10.532  0.5100  0.3538  0.4334
14727TIP3    H165596   1.647   1.990  10.475 -1.3314 -1.6552 -0.1691
14727TIP3    H265597   1.782   1.924  10.490  0.4188  1.7298 -0.0581
14728TIP3   OH265598   1.874   3.382  13.917 -0.0418 -0.2223  0.4872
14728TIP3    H165599   1.813   3.405  13.988 -1.2749 -0.8013 -0.3351
14728TIP3    H265600   1.883   3.287  13.925  1.3440 -0.0611  1.0271
14729TIP3   OH265601   5.216   5.436  10.614  0.0060  0.5646  0.2830
14729TIP3    H165602   5.260   5.351  10.613  0.6984  0.8838 -1.7904
14729TIP3    H265603   5.132   5.420  10.571 -0.2259  0.7420  0.6719
14730TIP3   OH265604   1.288   1.325  12.663 -1.2972  0.3521  0.1331
14730TIP3    H165605   1.371   1.280  12.651 -0.0488  1.9110  2.1742
14730TIP3    H265606   1.252   1.335  12.575  0.1656 -1.2380 -0.6947
14731TIP3   OH265607   0.003   6.732   4.486 -0.0567 -0.3120  0.5397
14731TIP3    H165608   0.066   6.760   4.553  0.1747  0.2414  0.1039
14731TIP3    H265609   0.042   6.655   4.446  0.0119 -0.3865  0.7530
14732TIP3   OH265610   3.232   0.685   1.713 -0.0831  0.4553 -0.8324
14732TIP3    H165611   3.229   0.759   1.774  0.7555  1.6748 -2.1994
14732TIP3    H265612   3.142   0.674   1.683 -0.3502  0.3917 -0.0347
14733TIP3   OH265613   3.457   4.652   5.094  0.4200 -0.2091 -0.2872
14733TIP3    H165614   3.415   4.731   5.060 -0.3495 -0.2805  0.4607
14733TIP3    H265615   3.532   4.684   5.144  1.4336 -0.0940 -1.8341
14734TIP3   OH265616   5.777   1.296  14.888 -0.3133  0.4300  0.3141
14734TIP3    H165617   5.696   1.319  14.842 -0.6656  0.0542  0.7415
14734TIP3    H265618   5.810   1.218  14.843  0.0891  0.8818 -0.1864
14735TIP3   OH265619   4.622   1.764  16.499 -0.5614  0.1319  0.0202
14735TIP3    H165620   4.693   1.827  16.483 -0.0263  0.0420  1.7945
14735TIP3    H265621   4.626   1.747  16.594 -0.9668 -2.2477 -0.3292
14736TIP3   OH265622   5.643   6.426  13.204  0.1721 -0.7278 -0.0473
14736TIP3    H165623   5.568   6.367  13.199  0.0282 -0.6044  0.5862
14736TIP3    H265624   5.682   6.409  13.289 -0.9128  1.3303  0.9286
14737TIP3   OH265625   4.158   4.992   0.214  0.0507 -0.2690 -0.1353
14737TIP3    H165626   4.068   5.009   0.187  1.1049 -0.1613 -4.1122
14737TIP3    H265627   4.169   4.898   0.204  0.6115 -0.1747 -0.4394
14738TIP3   OH265628   5.694   6.307   0.407  0.2498 -0.1399 -0.3638
14738TIP3    H165629   5.770   6.297   0.349 -0.4145  0.2885 -1.3352
14738TIP3    H265630   5.619   6.282   0.353 -0.3007 -0.6872  0.6290
14739TIP3   OH265631   4.771   3.947   3.964  0.0892  0.1386  0.1979
14739TIP3    H165632   4.809   3.859   3.967  1.7355  0.8095 -0.0425
14739TIP3    H265633   4.766   3.967   3.870  1.1935  0.8867  0.2823
14740TIP3   OH265634   0.056   2.625   0.595 -0.5146  0.0899  0.2559
14740TIP3    H165635   0.108   2.677   0.656  0.8979 -0.3190 -0.5445
14740TIP3    H265636   0.017   2.556   0.649  1.9637 -1.2102  0.5249
14741TIP3   OH265637   0.260   6.042  13.346 -0.2331  1.0788  0.4075
14741TIP3    H165638   0.199   5.969  13.352  0.3517  0.6751  1.8703
14741TIP3    H265639   0.259   6.081  13.433  2.0814  0.6116  0.7130
14742TIP3   OH265640   2.671   1.175  14.219 -0.0630  0.2272 -0.4407
14742TIP3    H165641   2.606   1.190  14.288 -0.7902  0.5187 -1.1613
14742TIP3    H265642   2.753   1.208  14.255 -0.8253  2.3164 -0.4514
14743TIP3   OH265643   0.020   2.208  10.688 -0.3430  0.0292 -0.1897
14743TIP3    H165644  -0.026   2.164  10.616  0.4170 -3.9167  1.5003
14743TIP3    H265645  -0.046   2.265  10.727 -1.2644  0.9329 -2.8106
14744TIP3   OH265646   6.668   6.353  14.298 -0.7167 -0.1064 -0.9774
14744TIP3    H165647   6.607   6.345  14.371  1.7580  0.4105  1.3509
14744TIP3    H265648   6.654   6.441  14.264 -2.2049 -0.5067 -1.4251
14745TIP3   OH265649   0.398   2.488   3.033 -0.1872  0.2532  0.1135
14745TIP3    H165650   0.409   2.460   3.124  0.0070  0.6514  0.2162
14745TIP3    H265651   0.484   2.522   3.008  0.4658 -2.0217 -0.9939
14746TIP3   OH265652   6.445   1.592  11.179  0.1313 -0.2421  0.1030
14746TIP3    H165653   6.432   1.633  11.093 -1.8234 -1.3084 -0.1687
14746TIP3    H265654   6.469   1.502  11.159 -1.1065 -0.7150  0.6350
14747TIP3   OH265655   1.264   2.223  15.521  0.3773 -0.0590 -0.0129
14747TIP3    H165656   1.247   2.227  15.615 -0.3421 -1.6958 -0.0407
14747TIP3    H265657   1.350   2.263  15.510  1.0475 -1.0071  1.5233
14748TIP3   OH265658   0.393   3.660   5.371  0.1014 -0.0556 -0.1099
14748TIP3    H165659   0.407   3.590   5.307 -2.0789  0.1486 -0.8962
14748TIP3    H265660   0.299   3.656   5.390  0.5982  0.1804  2.7969
14749TIP3   OH265661   4.059   1.312  11.592 -0.4625 -0.4699  0.0762
14749TIP3    H165662   3.990   1.315  11.527  1.4514  1.7672 -2.0682
14749TIP3    H265663   4.123   1.251  11.557 -0.2976 -0.7541  0.8610
14750TIP3   OH265664   3.296   4.364  13.850 -0.3247  0.3099 -0.5474
14750TIP3    H165665   3.353   4.427  13.894  0.6389 -1.9675  1.7738
14750TIP3    H265666   3.226   4.347  13.913 -0.4257 -1.0709 -0.9870
14751TIP3   OH265667   0.304   1.975   0.847  0.4245 -0.5053  0.1088
14751TIP3    H165668   0.361   1.981   0.770  0.5138  1.8678  0.2780
14751TIP3    H265669   0.219   1.947   0.811  0.3779  0.8641 -0.9640
14752TIP3   OH265670   5.854   5.231   2.647  0.1454  0.0804  0.7899
14752TIP3    H165671   5.848   5.288   2.723  1.1269  0.6277  0.4750
14752TIP3    H265672   5.818   5.282   2.575  2.1512  0.8341  0.2516
14753TIP3   OH265673   4.115   0.309   1.931  0.5196 -0.0531 -0.1015
14753TIP3    H165674   4.122   0.346   2.019 -0.7664  0.3745 -0.1510
14753TIP3    H265675   4.052   0.238   1.940  1.0101 -0.5543 -0.5237
14754TIP3   OH265676   2.135   3.580   2.369 -0.1864 -0.0958  0.2818
14754TIP3    H165677   2.135   3.667   2.408  0.3609 -0.9696  2.3382
14754TIP3    H265678   2.198   3.530   2.421 -0.2192 -1.6363 -1.0825
14755TIP3   OH265679   0.518   3.748   4.138 -0.1220  0.0623  0.2345
14755TIP3    H165680   0.568   3.826   4.114  0.1406 -0.3230 -0.5054
14755TIP3    H265681   0.567   3.675   4.099  0.6391 -0.6673  2.4404
14756TIP3   OH265682   1.170   1.626  14.932 -0.3224 -0.3500 -0.2971
14756TIP3    H165683   1.264   1.610  14.924  0.2869  2.4020  0.2072
14756TIP3    H265684   1.153   1.624  15.027 -0.5329  0.2736 -0.3185
14757TIP3   OH265685   4.011   0.168  11.801  0.5806  0.0443 -0.6343
14757TIP3    H165686   4.069   0.169  11.725 -1.0002  2.1123 -1.9270
14757TIP3    H265687   3.947   0.099  11.780  2.9855 -3.1065  1.3334
14758TIP3   OH265688   0.304   0.147  12.449  0.0142 -0.5847 -0.6501
14758TIP3    H165689   0.214   0.143  12.484 -0.4919  0.0484 -1.8422
14758TIP3    H265690   0.349   0.074  12.493 -1.2331 -1.2707 -0.4434
14759TIP3   OH265691   0.923   3.570   0.450  0.7516  0.3997 -0.0109
14759TIP3    H165692   0.944   3.652   0.405 -1.3743 -0.0057 -1.8982
14759TIP3    H265693   0.856   3.529   0.396 -1.3447 -0.5999  3.0522
14760TIP3   OH265694   5.126   3.030   2.273  0.4349  0.1211  0.2110
14760TIP3    H165695   5.204   2.978   2.256  0.6068  0.0614  1.1369
14760TIP3    H265696   5.116   3.086   2.195  0.7199 -0.6984 -0.4229
14761TIP3   OH265697   2.779   4.761  15.206 -0.3610  0.2230  0.1308
14761TIP3    H165698   2.842   4.689  15.207 -2.0852 -1.3804 -0.9139
14761TIP3    H265699   2.747   4.763  15.116 -3.4781 -0.5773  1.1081
14762TIP3   OH265700   6.550   1.912  11.822  0.5451  0.2787  0.2312
14762TIP3    H165701   6.489   1.854  11.869  1.5148 -0.7643  0.2458
14762TIP3    H265702   6.530   1.999  11.856 -1.0545 -0.0021  0.1050
14763TIP3   OH265703   4.800   0.730   5.047 -0.2362 -0.7467  0.1797
14763TIP3    H165704   4.878   0.712   4.994  0.8029  0.7545  1.1476
14763TIP3    H265705   4.767   0.813   5.013 -0.9408 -0.9529  0.3478
14764TIP3   OH265706   4.294   5.810  14.272  0.4870  0.0030  0.3537
14764TIP3    H165707   4.367   5.793  14.330  0.1657  0.2293  0.8349
14764TIP3    H265708   4.250   5.726  14.262 -0.6814  0.3362  2.1489
14765TIP3   OH265709   2.829   2.369  13.179 -0.5794 -0.3547  0.0693
14765TIP3    H165710   2.853   2.305  13.112 -0.1021  0.9268 -1.0221
14765TIP3    H265711   2.776   2.433  13.133 -0.4551  0.4261  0.9808
14766TIP3   OH265712   1.509   0.116  14.920  0.5350  0.8769  0.9424
14766TIP3    H165713   1.541   0.090  15.006  0.0416 -2.0851  0.3327
14766TIP3    H265714   1.436   0.058  14.903  0.9973  0.9604 -1.7356
14767TIP3   OH265715   0.018   1.929  11.958 -0.2056  0.9389  0.2926
14767TIP3    H165716  -0.031   1.992  11.905  0.1566  1.7002  0.8413
14767TIP3    H265717   0.076   1.885  11.895 -0.7687  0.8429 -0.1688
14768TIP3   OH265718   4.652   1.649   3.523  0.0835 -0.0672 -0.4473
14768TIP3    H165719   4.583   1.687   3.468 -0.1706  0.2706  0.0937
14768TIP3    H265720   4.733   1.686   3.487 -0.0542 -0.0835 -0.7823
14769TIP3   OH265721   2.263   3.370  15.246  0.3734 -0.0103 -0.2965
14769TIP3    H165722   2.223   3.454  15.269 -0.6270 -0.6280  0.3024
14769TIP3    H265723   2.351   3.374  15.285  0.0298  0.4173  0.4577
14770TIP3   OH265724   4.488   2.478   4.831  0.0837 -0.1895  0.4383
14770TIP3    H165725   4.545   2.417   4.877  0.0329  0.1189  0.9174
14770TIP3    H265726   4.400   2.456   4.862  0.2193  1.4017  2.1746
14771TIP3   OH265727   5.186   1.219   1.403  0.1876 -0.0312  0.6094
14771TIP3    H165728   5.104   1.264   1.381  0.4715  0.0501 -0.3548
14771TIP3    H265729   5.235   1.281   1.456  0.5171  0.7836 -0.5912
14772TIP3   OH265730   3.265   1.306   3.711 -0.3192 -0.1179 -0.5563
14772TIP3    H165731   3.316   1.241   3.663 -2.1642 -0.7062 -1.8029
14772TIP3    H265732   3.193   1.329   3.652 -0.7314  1.7292  0.5805
14773TIP3   OH265733   6.772   2.724  13.733 -0.1430 -0.4038  0.1703
14773TIP3    H165734   6.830   2.707  13.658  0.3074  0.4107  0.3271
14773TIP3    H265735   6.730   2.807  13.712 -0.8426 -0.7129  0.3236
14774TIP3   OH265736   4.577   0.782  10.847 -0.0557  0.0106  0.2074
14774TIP3    H165737   4.571   0.870  10.809  0.0010  0.2617  0.7671
14774TIP3    H265738   4.488   0.747  10.840 -0.2928  0.4684  0.8090
14775TIP3   OH265739   3.045   0.939   5.895 -0.1845  0.4082  0.2360
14775TIP3    H165740   2.987   0.999   5.848  0.0858  1.3838  1.1196
14775TIP3    H265741   3.044   0.969   5.985 -1.9365 -2.3744  1.2934
14776TIP3   OH265742   2.528   5.430  16.418  0.0469 -0.7705 -0.0344
14776TIP3    H165743   2.622   5.415  16.406 -0.3091 -2.3079 -1.2749
14776TIP3    H265744   2.499   5.464  16.333 -0.2625  1.3103  0.8625
14777TIP3   OH265745   6.245   4.482   5.796 -0.9670 -0.6238  0.2652
14777TIP3    H165746   6.317   4.421   5.811 -0.2033  0.6086  1.9565
14777TIP3    H265747   6.167   4.427   5.791  0.0197 -2.0025 -1.6228
14778TIP3   OH265748   5.808   4.986  16.493  0.0418  0.3880 -1.0254
14778TIP3    H165749   5.780   4.923  16.559  1.9395 -1.2757 -1.7233
14778TIP3    H265750   5.816   5.069  16.541 -2.1508  0.0924 -0.0171
14779TIP3   OH265751   4.562   1.165  12.225 -0.5475 -0.4625  0.5213
14779TIP3    H165752   4.498   1.103  12.189  0.6333 -1.5078  0.1591
14779TIP3    H265753   4.606   1.201  12.148  0.3843 -0.9643  0.7938
14780TIP3   OH265754   2.293   5.373   6.727 -0.4914  0.6315 -0.2362
14780TIP3    H165755   2.323   5.307   6.664  0.4063  0.2189  0.5970
14780TIP3    H265756   2.207   5.341   6.755  0.2045 -0.5676  0.6404
14781TIP3   OH265757   1.646   4.469   3.444  0.0394  0.1863 -0.1150
14781TIP3    H165758   1.625   4.390   3.493 -0.4544  0.9260  0.9025
14781TIP3    H265759   1.568   4.485   3.390  0.8468 -1.0141 -1.7386
14782TIP3   OH265760   1.671   1.498  15.657 -0.0611 -0.5626 -0.2019
14782TIP3    H165761   1.728   1.574  15.669  1.5030 -1.2440 -2.6281
14782TIP3    H265762   1.684   1.446  15.736 -0.8554  1.4318  1.3204
14783TIP3   OH265763   2.437   2.322   5.425 -0.3329  0.0387 -0.1469
14783TIP3    H165764   2.460   2.233   5.450  1.5611  0.3927 -0.4899
14783TIP3    H265765   2.397   2.359   5.504 -1.3776 -1.1750 -0.0872
14784TIP3   OH265766   0.179   3.703   2.311 -0.2964  0.6845  0.0060
14784TIP3    H165767   0.205   3.619   2.274 -1.6381 -1.0864  2.7459
14784TIP3    H265768   0.224   3.707   2.395  0.0885  2.9902 -0.2384
14785TIP3   OH265769   2.866   0.754  16.835 -0.3390  0.0843 -0.3011
14785TIP3    H165770   2.799   0.690  16.811 -0.4649 -0.9455  2.5272
14785TIP3    H265771   2.949   0.705  16.831 -0.5015 -0.5325  2.4934
14786TIP3   OH265772   0.463   4.609   0.562  1.0096  0.5231  0.5365
14786TIP3    H165773   0.463   4.699   0.594 -0.6685 -0.5764  4.1577
14786TIP3    H265774   0.380   4.601   0.515  1.3728  0.9447 -0.1973
14787TIP3   OH265775   3.547   1.646   2.991 -0.3538  0.0796 -0.1757
14787TIP3    H165776   3.554   1.646   2.896  2.3997  0.5855 -0.0587
14787TIP3    H265777   3.606   1.576   3.020  2.6113  2.8593  1.1769
14788TIP3   OH265778   5.858   0.001  13.284  0.2088  0.6007 -0.7491
14788TIP3    H165779   5.915  -0.074  13.265  0.1414  0.1890  0.5111
14788TIP3    H265780   5.843   0.042  13.200  1.2116 -0.1220 -1.3076
14789TIP3   OH265781   0.108   2.428  16.890  0.0933  0.1658  0.1066
14789TIP3    H165782   0.083   2.339  16.863 -0.6951  0.3518  0.1745
14789TIP3    H265783   0.082   2.434  16.982  0.5131  0.3327  0.2137
14790TIP3   OH265784   2.153   5.498  14.579 -0.1187 -0.0015  0.0987
14790TIP3    H165785   2.058   5.502  14.568  0.0983 -0.0368 -2.1625
14790TIP3    H265786   2.187   5.563  14.518  1.3634 -1.1703 -0.3700
14791TIP3   OH265787   1.406   4.619   5.145  0.0241 -0.0728 -0.3613
14791TIP3    H165788   1.407   4.638   5.051 -3.0304 -1.0163 -0.6985
14791TIP3    H265789   1.322   4.576   5.159 -0.0952  1.0132  3.0202
14792TIP3   OH265790   2.412   4.466  15.622 -0.1700 -0.1162  0.5180
14792TIP3    H165791   2.487   4.525  15.634  1.3304 -1.6419 -0.7794
14792TIP3    H265792   2.349   4.517  15.572  1.5291  0.1567 -1.5132
14793TIP3   OH265793   0.670   4.969  16.425  0.0195 -0.0216 -0.1466
14793TIP3    H165794   0.652   4.875  16.432  0.3623 -0.1242 -0.6106
14793TIP3    H265795   0.627   4.996  16.344  0.9933 -0.0455 -0.6849
14794TIP3   OH265796   2.786   0.168  13.759  0.2825 -0.0693  0.1781
14794TIP3    H165797   2.734   0.247  13.751  1.3196  0.7427  1.0561
14794TIP3    H265798   2.829   0.158  13.675 -3.0898 -2.1643 -1.5010
14795TIP3   OH265799   5.294   1.489   5.645  0.5007 -0.4095 -0.5887
14795TIP3    H165800   5.358   1.428   5.681 -1.0634 -2.1366 -0.5905
14795TIP3    H265801   5.318   1.497   5.552 -0.0371 -2.1455 -0.9212
14796TIP3   OH265802   4.080   0.076  11.541 -0.1055 -0.3726  0.0041
14796TIP3    H165803   4.134   0.015  11.591  0.5870 -0.0344 -0.3058
14796TIP3    H265804   3.996   0.032  11.530 -0.6757  0.0038  2.4074
14797TIP3   OH265805   0.509   5.311  11.876  0.1812  0.4893 -0.7194
14797TIP3    H165806   0.535   5.244  11.813 -0.1506 -0.6229  0.2865
14797TIP3    H265807   0.428   5.348  11.840  1.8497  2.4102 -2.7313
14798TIP3   OH265808   6.107   1.944  12.145  0.0782 -0.2791  0.2260
14798TIP3    H165809   6.157   1.991  12.078 -0.1607 -0.9171 -0.4131
14798TIP3    H265810   6.060   2.013  12.192 -0.6618  0.0997 -1.0210
14799TIP3   OH265811   2.876   6.039   0.006 -0.3444  0.3400 -0.2948
14799TIP3    H165812   2.958   6.037   0.055 -0.6563  0.6828  0.2448
14799TIP3    H265813   2.903   6.028  -0.085  0.3157  0.6312 -0.1388
14800TIP3   OH265814   5.527   1.406  13.475  0.1481  0.0627 -0.8245
14800TIP3    H165815   5.444   1.367  13.446 -0.6014  0.6512  0.4626
14800TIP3    H265816   5.532   1.489  13.428 -0.4132  0.4090 -0.2832
14801TIP3   OH265817   3.156   1.470   5.192 -0.1577 -0.1066 -0.7020
14801TIP3    H165818   3.149   1.402   5.125  0.1587  0.1574 -1.0061
14801TIP3    H265819   3.066   1.501   5.204 -0.4850 -1.3292  0.2375
14802TIP3   OH265820   2.579   6.501   1.052  0.1552  0.2609  0.1408
14802TIP3    H165821   2.523   6.426   1.073  1.3835 -1.0020 -0.9808
14802TIP3    H265822   2.525   6.577   1.075 -1.8835 -0.8962 -0.5387
14803TIP3   OH265823   0.223   2.240  15.150 -0.1397 -0.7807  0.2646
14803TIP3    H165824   0.294   2.299  15.125  0.1421 -1.7193 -1.2568
14803TIP3    H265825   0.265   2.156  15.167 -0.9635 -1.7009 -1.9118
14804TIP3   OH265826   5.000   0.860  16.158 -0.0536 -0.4229  0.2081
14804TIP3    H165827   5.060   0.934  16.174 -2.1133  1.8160 -1.7136
14804TIP3    H265828   4.938   0.864  16.230  0.5323 -1.1281  0.7773
14805TIP3   OH265829   5.194   3.815   2.019 -0.2669  0.4319  0.4619
14805TIP3    H165830   5.267   3.876   2.010 -1.8183  2.6480  1.8052
14805TIP3    H265831   5.146   3.823   1.937  1.8191 -2.3992 -1.2031
14806TIP3   OH265832   0.774   5.982   4.362  0.1848 -0.5945  0.4333
14806TIP3    H165833   0.702   5.999   4.423  0.7157  1.7077  0.5087
14806TIP3    H265834   0.731   5.951   4.283 -0.9543  0.7805  0.4630
14807TIP3   OH265835   4.954   4.750   0.499  0.0411 -0.3451  0.6214
14807TIP3    H165836   4.912   4.781   0.579  0.6736  1.9511  0.1264
14807TIP3    H265837   4.892   4.772   0.429  1.4044  1.9619  0.0261
14808TIP3   OH265838   4.797   1.760  10.655  0.2151 -0.7004  0.0758
14808TIP3    H165839   4.834   1.796  10.736  0.0613 -0.9766  0.2743
14808TIP3    H265840   4.814   1.826  10.589 -0.5139 -0.0373  0.5327
14809TIP3   OH265841   3.815   4.929  13.613 -0.0225  0.1622 -0.5589
14809TIP3    H165842   3.839   4.954  13.702 -1.1363  1.0325 -0.4742
14809TIP3    H265843   3.727   4.892  13.621 -0.4909  1.0453 -1.3872
14810TIP3   OH265844   2.080   3.940  11.515 -0.3494 -0.1780 -0.2486
14810TIP3    H165845   2.147   3.955  11.583 -0.0125  0.9761 -0.8126
14810TIP3    H265846   1.999   3.926  11.564  0.3876 -2.3226  0.4811
14811TIP3   OH265847   6.208   1.777   2.591 -0.0827  0.4456  0.3530
14811TIP3    H165848   6.270   1.777   2.518 -1.4123 -0.9715 -0.8441
14811TIP3    H265849   6.145   1.846   2.569 -1.2463 -0.8654 -0.5773
14812TIP3   OH265850   5.203   4.392   3.539  0.4034 -0.1958  0.1055
14812TIP3    H165851   5.158   4.471   3.508  0.0448 -0.2612  0.4527
14812TIP3    H265852   5.280   4.425   3.586 -0.2017 -0.0090  0.9930
14813TIP3   OH265853   4.869   0.696  13.598 -0.2601  0.8512 -1.1316
14813TIP3    H165854   4.963   0.683  13.607 -0.2851  0.6255 -1.1998
14813TIP3    H265855   4.858   0.791  13.598 -0.1522  0.8777  0.1378
14814TIP3   OH265856   2.335   5.837  10.599  0.4130  0.3896 -0.0246
14814TIP3    H165857   2.267   5.856  10.534 -0.1450  1.0495  0.7278
14814TIP3    H265858   2.408   5.803  10.548 -1.1760 -2.3542 -0.6806
14815TIP3   OH265859   0.882   6.582  12.659  0.5644  0.6169 -0.4170
14815TIP3    H165860   0.797   6.539  12.669  0.1297  1.5806  0.2803
14815TIP3    H265861   0.896   6.587  12.565 -0.0267  0.2015 -0.5299
14816TIP3   OH265862   0.622   4.066   2.869  0.6178 -0.4501  1.1283
14816TIP3    H165863   0.586   4.006   2.935  0.5058 -0.6968  0.8454
14816TIP3    H265864   0.664   4.134   2.920 -1.4690  0.6263  1.5370
14817TIP3   OH265865   6.120   2.162   3.690  0.1067 -0.0450  0.1697
14817TIP3    H165866   6.149   2.140   3.602  0.6896 -0.7885  0.5307
14817TIP3    H265867   6.196   2.202   3.732 -0.5021  1.3193 -0.0025
14818TIP3   OH265868   5.575   1.743  13.124 -0.2812 -0.0579  0.0046
14818TIP3    H165869   5.647   1.800  13.149  0.6519 -2.3514  3.2211
14818TIP3    H265870   5.570   1.751  13.028  2.5909  2.0141 -0.0989
14819TIP3   OH265871   6.598   5.525  16.960 -0.5673  0.7345 -0.3343
14819TIP3    H165872   6.591   5.619  16.944  0.3203  0.6638 -1.2204
14819TIP3    H265873   6.570   5.485  16.877  0.3919  0.2516 -0.4350
14820TIP3   OH265874   3.654   2.283  11.138 -0.4335 -0.5114 -0.3221
14820TIP3    H165875   3.726   2.300  11.199  0.4163 -0.4745 -1.3024
14820TIP3    H265876   3.690   2.306  11.052 -1.5340 -0.7615 -0.8633
14821TIP3   OH265877   5.934   3.799  11.749  0.5932 -0.2521 -0.2546
14821TIP3    H165878   5.921   3.859  11.822 -1.1915  0.1185 -0.8275
14821TIP3    H265879   5.873   3.830  11.682  1.0250 -1.5655 -1.2899
14822TIP3   OH265880   4.135   3.635  15.410  0.2995 -0.3871  0.7332
14822TIP3    H165881   4.049   3.671  15.428 -0.3025 -0.6789 -1.2675
14822TIP3    H265882   4.118   3.544  15.383  1.3213 -0.7146  1.1158
14823TIP3   OH265883   6.590   4.395  15.447  0.0472 -0.2829  0.0347
14823TIP3    H165884   6.622   4.443  15.370 -1.8139 -0.8610 -1.1838
14823TIP3    H265885   6.530   4.456  15.490 -2.5893 -1.4563 -1.7072
14824TIP3   OH265886   3.619   6.086  16.204 -0.3543 -0.3252  0.0597
14824TIP3    H165887   3.553   6.131  16.257 -0.2689  1.4314 -1.2534
14824TIP3    H265888   3.683   6.054  16.268 -0.6211  1.0917  1.0789
14825TIP3   OH265889   0.568   2.767  14.648 -0.2430 -0.4015  0.0615
14825TIP3    H165890   0.647   2.729  14.687  0.2926  0.1951 -0.4097
14825TIP3    H265891   0.574   2.861  14.669 -0.7658 -0.3323 -0.0811
14826TIP3   OH265892   2.732   5.871   3.982 -0.3870 -0.7138 -0.0702
14826TIP3    H165893   2.710   5.882   3.889 -0.5775 -1.2281 -0.0858
14826TIP3    H265894   2.692   5.947   4.024  1.4828  0.6871 -0.6684
14827TIP3   OH265895   0.781   2.796   4.395 -0.3402 -0.1031 -0.3023
14827TIP3    H165896   0.840   2.843   4.454 -0.2556  1.7254 -1.7252
14827TIP3    H265897   0.839   2.740   4.343  0.0136  0.7175 -0.8148
14828TIP3   OH265898   5.509   4.360  11.586 -0.3795  0.0873  0.4863
14828TIP3    H165899   5.595   4.354  11.546 -0.2887  1.0519  0.4950
14828TIP3    H265900   5.498   4.278  11.634  0.9236  0.3239  1.2397
14829TIP3   OH265901   1.236   0.099  16.572  0.8667  0.4205 -0.4226
14829TIP3    H165902   1.183   0.022  16.554  0.1208 -0.0357  3.0332
14829TIP3    H265903   1.187   0.172  16.532 -2.4272 -0.0119  2.3746
14830TIP3   OH265904   6.686   0.243   5.257 -0.0788  0.8007 -0.1511
14830TIP3    H165905   6.749   0.177   5.287  1.5616  2.0347 -0.7273
14830TIP3    H265906   6.695   0.315   5.318 -0.4908  1.2515 -0.6097
14831TIP3   OH265907   5.036   1.764   1.806 -0.0766 -0.3931 -0.4016
14831TIP3    H165908   5.085   1.811   1.874 -0.3202  0.1031 -0.5608
14831TIP3    H265909   5.102   1.712   1.761  0.2483 -0.0078 -0.3799
14832TIP3   OH265910   0.406   4.496  15.178 -0.4043 -0.5643  0.5632
14832TIP3    H165911   0.333   4.459  15.129 -0.8815  1.2103 -0.1322
14832TIP3    H265912   0.365   4.537  15.255 -0.0963 -0.0063  0.4343
14833TIP3   OH265913   1.261   5.073   1.735 -0.7188 -0.2559  0.4159
14833TIP3    H165914   1.348   5.037   1.752  0.2580  0.6015 -2.2411
14833TIP3    H265915   1.247   5.135   1.807  1.2836  0.2408  0.4499
14834TIP3   OH265916   4.618   3.143   0.904  0.4692 -0.2291  0.9758
14834TIP3    H165917   4.550   3.078   0.920 -0.0127 -0.2430 -0.8609
14834TIP3    H265918   4.579   3.226   0.931 -0.5219 -0.1679 -0.4970
14835TIP3   OH265919   0.161   2.117  13.908  0.3760 -0.1660  0.7615
14835TIP3    H165920   0.075   2.109  13.949  0.6160 -0.9535  1.1206
14835TIP3    H265921   0.168   2.210  13.886 -0.8379 -0.2060  0.1164
14836TIP3   OH265922   0.288   2.019  10.822  0.3211 -0.2353 -0.1446
14836TIP3    H165923   0.327   2.022  10.909  1.6485  0.5375 -0.7192
14836TIP3    H265924   0.251   2.106  10.808 -1.5285 -0.9063  0.3176
14837TIP3   OH265925   1.267   3.581   0.122 -0.4921 -0.3761 -0.2953
14837TIP3    H165926   1.347   3.633   0.127 -0.7510 -0.0421  0.4567
14837TIP3    H265927   1.207   3.635   0.071 -0.9042  0.2788  0.8409
14838TIP3   OH265928   3.153   2.551   2.354  0.3145  0.4702  0.0881
14838TIP3    H165929   3.102   2.628   2.378 -0.4424 -0.6334  2.3425
14838TIP3    H265930   3.240   2.568   2.390 -0.4251 -0.5491  2.5538
14839TIP3   OH265931   2.219   2.372  16.614 -0.3183 -0.5680 -0.0175
14839TIP3    H165932   2.149   2.366  16.549 -0.0037 -1.2981 -0.3013
14839TIP3    H265933   2.237   2.466  16.622 -0.4033 -0.4672 -0.9428
14840TIP3   OH265934   0.514   5.968   0.824 -0.0916  0.1878 -0.2687
14840TIP3    H165935   0.445   5.919   0.778 -1.0754  0.7661  0.5409
14840TIP3    H265936   0.501   6.058   0.795  0.9193  0.1716 -0.8013
14841TIP3   OH265937   1.482   0.105  12.527  0.2598 -0.1441  0.0819
14841TIP3    H165938   1.480   0.009  12.520  1.3919 -0.1996  0.3594
14841TIP3    H265939   1.391   0.129  12.544  0.4445 -1.5468  4.5146
14842TIP3   OH265940   5.175   0.882  13.369  0.0169 -0.2307 -0.2806
14842TIP3    H165941   5.208   0.949  13.308 -0.6772  0.4526  0.0720
14842TIP3    H265942   5.162   0.804  13.315  0.4497  0.0388 -0.7847
14843TIP3   OH265943   6.102   5.859  12.845 -0.3278  0.1254 -0.4529
14843TIP3    H165944   6.115   5.767  12.821 -1.3283 -0.5643  1.4524
14843TIP3    H265945   6.187   5.888  12.878  0.5046  0.4907 -2.7292
14844TIP3   OH265946   5.224   2.632   4.930  0.3494 -0.1578  0.4070
14844TIP3    H165947   5.269   2.716   4.935  2.5785 -1.3603  2.9730
14844TIP3    H265948   5.143   2.644   4.979 -0.2076  0.9126 -0.7291
14845TIP3   OH265949   6.336   4.894   6.409 -0.1980 -0.3132 -0.3386
14845TIP3    H165950   6.426   4.898   6.441 -0.5129  0.1763  0.5182
14845TIP3    H265951   6.323   4.977   6.363 -0.3560 -0.1800 -0.0557
14846TIP3   OH265952   3.438   3.179  15.752 -0.2595 -0.0582  0.1836
14846TIP3    H165953   3.434   3.229  15.834 -1.2560  2.2531 -1.1509
14846TIP3    H265954   3.417   3.089  15.777  1.4819  0.1324  2.7293
14847TIP3   OH265955   5.223   4.893  12.329 -0.2227  0.6197 -0.0789
14847TIP3    H165956   5.303   4.931  12.293  0.4574 -0.2589  0.4565
14847TIP3    H265957   5.249   4.806  12.359 -1.2951  0.4642  0.4605
14848TIP3   OH265958   6.379   0.075  11.892 -0.1695  0.0723  0.4831
14848TIP3    H165959   6.306   0.134  11.909 -0.6120 -0.4724  0.4957
14848TIP3    H265960   6.356   0.030  11.811  1.1313  1.4022 -0.6826
14849TIP3   OH265961   3.201   3.265  12.576  0.1625  0.2788  0.0978
14849TIP3    H165962   3.207   3.169  12.574  0.3934  0.2952 -0.0776
14849TIP3    H265963   3.111   3.283  12.601  0.1483  0.0143  0.2440
14850TIP3   OH265964   2.579   3.526   0.809  0.4167  0.1309  0.4377
14850TIP3    H165965   2.522   3.514   0.885 -0.1190  1.5143  0.2781
14850TIP3    H265966   2.549   3.461   0.745 -0.8044  0.6670  0.4581
14851TIP3   OH265967   1.854   5.350  13.259  0.4470  0.0721  0.1749
14851TIP3    H165968   1.912   5.414  13.217 -0.2180  0.9973  0.6389
14851TIP3    H265969   1.888   5.341  13.348  0.5936 -0.2976  0.0839
14852TIP3   OH265970   5.698   3.706   0.348  0.1904  0.0624 -0.2637
14852TIP3    H165971   5.612   3.696   0.307 -0.5247 -0.4810  1.3257
14852TIP3    H265972   5.684   3.684   0.440  2.3404 -1.5690 -0.2590
14853TIP3   OH265973   4.561   0.869  11.143  0.3036  0.0506 -0.2552
14853TIP3    H165974   4.499   0.807  11.182 -0.0753  0.3114 -0.4369
14853TIP3    H265975   4.545   0.862  11.049 -1.9131  2.6178 -0.1806
14854TIP3   OH265976   3.538   6.345  14.684 -0.1364 -0.0361  0.0455
14854TIP3    H165977   3.522   6.275  14.621 -0.5946  0.9131 -0.9357
14854TIP3    H265978   3.586   6.412  14.634  0.8296  0.1028  1.1173
14855TIP3   OH265979   3.503   6.359  16.042 -0.0772  0.5660 -0.5117
14855TIP3    H165980   3.569   6.311  15.992 -0.1456  0.3031 -0.3556
14855TIP3    H265981   3.458   6.413  15.977  1.1969  1.8042 -0.4043
14856TIP3   OH265982   3.822   1.303   4.206  0.1477  0.9161 -0.4647
14856TIP3    H165983   3.903   1.285   4.255  0.2898  0.9662 -0.6802
14856TIP3    H265984   3.795   1.217   4.173 -0.8772  0.6026  1.1216
14857TIP3   OH265985   0.932   0.176   1.093  0.0988  0.3521 -0.5638
14857TIP3    H165986   1.009   0.217   1.054 -0.7093  1.3063 -1.2010
14857TIP3    H265987   0.907   0.233   1.166 -0.1841  0.2132 -0.5480
14858TIP3   OH265988   2.847   3.452  16.820  0.6340  0.7095  0.1951
14858TIP3    H165989   2.909   3.505  16.770  1.5951 -0.7019 -0.1685
14858TIP3    H265990   2.881   3.454  16.910 -0.9075  2.9713  0.7981
14859TIP3   OH265991   2.564   2.695  11.359  0.0405 -0.0238  0.0678
14859TIP3    H165992   2.526   2.641  11.289 -1.0219  1.4203 -0.5338
14859TIP3    H265993   2.645   2.729  11.321 -1.2917  2.0299 -1.1763
14860TIP3   OH265994   1.045   4.746  12.739  0.0255 -0.0532  0.2719
14860TIP3    H165995   1.029   4.656  12.710 -0.9868 -0.3129  1.5178
14860TIP3    H265996   1.137   4.746  12.766  0.1369 -0.6200 -0.0805
14861TIP3   OH265997   2.855   4.231  14.132  0.3668 -0.3458  0.2403
14861TIP3    H165998   2.873   4.195  14.219  1.1257  3.1877  1.7514
14861TIP3    H265999   2.760   4.230  14.125  0.2285  0.3104  1.6477
14862TIP3   OH266000   3.678   2.699  14.125 -0.0097  0.1164 -0.4170
14862TIP3    H166001   3.689   2.773  14.065 -2.0140  0.1557 -0.7903
14862TIP3    H266002   3.599   2.654  14.094  0.4052 -1.4088  0.6174
14863TIP3   OH266003   5.296   4.755  15.482  0.2724 -0.2004 -0.6911
14863TIP3    H166004   5.237   4.784  15.413  0.4963 -1.0437 -1.2535
14863TIP3    H266005   5.253   4.781  15.564  0.9700  2.7501 -1.1161
14864TIP3   OH266006   0.315   3.478  12.382 -0.3341 -0.2899 -0.5350
14864TIP3    H166007   0.291   3.521  12.300 -1.6094  0.5928  0.2643
14864TIP3    H266008   0.325   3.385  12.358 -2.3416 -0.3391 -1.3905
14865TIP3   OH266009   1.099   3.254   3.436 -0.1135  0.1129 -0.4498
14865TIP3    H166010   1.091   3.183   3.373 -0.3319  0.6820 -1.0761
14865TIP3    H266011   1.075   3.332   3.387  0.3174  0.6471  0.1728
14866TIP3   OH266012   6.117   6.767  11.447  0.1744  0.1184 -0.2207
14866TIP3    H166013   6.049   6.823  11.483  0.7889 -0.0671  1.3241
14866TIP3    H266014   6.146   6.811  11.368 -1.4946  0.3623 -0.7306
14867TIP3   OH266015   4.929   5.782   5.068  0.3863 -0.3799 -0.1829
14867TIP3    H166016   4.844   5.825   5.073 -0.5426 -2.0155 -0.9785
14867TIP3    H266017   4.913   5.703   5.016  2.5525 -0.3792 -0.9622
14868TIP3   OH266018   0.028   0.940  15.717  0.4365  0.3893 -0.2314
14868TIP3    H166019  -0.019   0.931  15.800  0.0333 -0.0360 -0.5032
14868TIP3    H266020   0.085   1.016  15.731  0.5768  0.1581  0.5290
14869TIP3   OH266021   4.566   1.756  15.764  0.5512 -0.1285 -0.3148
14869TIP3    H166022   4.521   1.803  15.694 -1.1403  0.6256  1.2129
14869TIP3    H266023   4.585   1.670  15.728 -0.8979  0.0176 -1.4730
14870TIP3   OH266024   0.959   5.800   5.645 -0.0870  0.2807 -0.2366
14870TIP3    H166025   0.892   5.833   5.586 -1.3652  0.5923  1.3403
14870TIP3    H266026   1.037   5.792   5.590 -1.3124  0.1738 -2.0459
14871TIP3   OH266027   4.808   4.242  16.516  0.1583 -0.1574  0.2421
14871TIP3    H166028   4.735   4.235  16.454  0.0957 -0.2465  0.3274
14871TIP3    H266029   4.772   4.290  16.590  0.0442 -0.6505  0.5062
14872TIP3   OH266030   4.091   3.384  15.369 -0.3354  0.3283  0.5623
14872TIP3    H166031   4.140   3.309  15.335  1.2348  1.8448 -0.7043
14872TIP3    H266032   4.015   3.390  15.311 -1.0146 -0.8372  1.2911
14873TIP3   OH266033   0.597   4.126  13.906 -0.0463 -0.2006 -0.4149
14873TIP3    H166034   0.660   4.096  13.971  0.2323  1.3200  0.0621
14873TIP3    H266035   0.651   4.163  13.836 -0.3756 -0.4918 -0.8238
14874TIP3   OH266036   6.519   2.145   5.137 -0.1501  0.2835 -0.6213
14874TIP3    H166037   6.449   2.115   5.196 -1.6704  1.7773 -1.5455
14874TIP3    H266038   6.587   2.178   5.196 -1.3088  1.0800  0.3241
14875TIP3   OH266039   5.793   1.689   5.363 -0.2872 -0.1687  0.4722
14875TIP3    H166040   5.795   1.783   5.345 -1.6689 -0.4384 -1.4689
14875TIP3    H266041   5.877   1.657   5.330 -1.2869 -0.0835 -2.4764
14876TIP3   OH266042   4.253   1.282   4.504 -0.4191  0.0921 -0.3677
14876TIP3    H166043   4.178   1.286   4.444 -0.8243  0.2291  0.1427
14876TIP3    H266044   4.311   1.352   4.474 -1.1024  0.8397  0.0407
14877TIP3   OH266045   4.522   1.168  11.081  0.2499 -0.4979  0.1876
14877TIP3    H166046   4.558   1.136  11.163 -3.5442 -0.2991  2.1656
14877TIP3    H266047   4.467   1.096  11.049  1.7745 -0.6503 -2.4156
14878TIP3   OH266048   2.362   5.955   3.200 -0.1810  0.0609 -0.2284
14878TIP3    H166049   2.449   5.958   3.159  1.2492  2.6613  2.6010
14878TIP3    H266050   2.323   6.041   3.180 -2.2979 -1.1457 -1.6447
14879TIP3   OH266051   0.519   4.037   4.014 -0.5159  0.4777  0.6480
14879TIP3    H166052   0.496   3.986   3.936 -0.1697  0.3161  0.6472
14879TIP3    H266053   0.438   4.083   4.038 -0.7713  0.1020  0.5154
14880TIP3   OH266054   3.029   2.928   0.709  0.0236 -0.2350 -0.4832
14880TIP3    H166055   3.065   2.978   0.782 -0.4167  0.5036 -0.7611
14880TIP3    H266056   3.104   2.914   0.650  0.0586  0.4691 -0.6088
14881TIP3   OH266057   3.348   6.808  15.883  0.0256  0.3337 -0.0317
14881TIP3    H166058   3.305   6.892  15.898  2.0775  1.4698 -0.1660
14881TIP3    H266059   3.424   6.809  15.942  0.2612 -1.2993 -0.2553
14882TIP3   OH266060   3.093   1.762  15.806 -0.1026 -0.5964  0.5520
14882TIP3    H166061   3.035   1.837  15.818  0.6882  0.3673 -1.2476
14882TIP3    H266062   3.082   1.710  15.886  0.4351  2.1738  2.5865
14883TIP3   OH266063   0.143   2.377   4.005 -0.7475  0.6792  0.3183
14883TIP3    H166064   0.079   2.423   4.059  0.9031  1.0113  2.0827
14883TIP3    H266065   0.176   2.307   4.060 -0.0996  0.0700 -0.8154
14884TIP3   OH266066   2.696   6.310  17.008 -0.0751 -0.9248  0.6192
14884TIP3    H166067   2.685   6.285  16.916 -1.4575  0.1751  0.4458
14884TIP3    H266068   2.789   6.332  17.016 -0.3199  1.0984 -1.1295
14885TIP3   OH266069   3.638   3.384  14.680  0.6293 -0.7352  0.5424
14885TIP3    H166070   3.707   3.337  14.634 -0.0909 -0.5406 -0.7707
14885TIP3    H266071   3.667   3.384  14.772  1.7310 -1.7690  0.2278
14886TIP3   OH266072   5.682   3.367   2.677  0.3187  0.1385  0.0625
14886TIP3    H166073   5.723   3.437   2.728 -0.8180  0.7357  0.1882
14886TIP3    H266074   5.605   3.407   2.638  0.2615 -0.7557 -0.7887
14887TIP3   OH266075   4.103   1.349   4.746 -0.1271 -0.1828  0.3186
14887TIP3    H166076   4.045   1.276   4.768  0.4927 -0.3337  1.5230
14887TIP3    H266077   4.152   1.319   4.669 -1.4050 -0.1746 -0.5203
14888TIP3   OH266078   3.933   5.720   0.231 -0.0449  0.2699  0.1576
14888TIP3    H166079   3.904   5.653   0.170  0.5450  0.0990  0.0575
14888TIP3    H266080   3.922   5.803   0.185 -1.7897  0.3503  0.6660
14889TIP3   OH266081   1.599   5.449  14.561  0.3406 -0.0564 -0.1557
14889TIP3    H166082   1.532   5.498  14.514 -0.0460 -0.6271 -0.2144
14889TIP3    H266083   1.555   5.367  14.585  0.3875  0.3724  1.5457
14890TIP3   OH266084   5.394   1.888   4.924 -0.4480  0.0423 -0.2810
14890TIP3    H166085   5.405   1.918   5.014 -0.7250 -0.4258 -0.0932
14890TIP3    H266086   5.464   1.933   4.876  0.3689 -0.5203  0.3565
14891TIP3   OH266087   1.223   2.784   2.064  0.4719  0.1338 -0.0479
14891TIP3    H166088   1.233   2.802   1.970  1.1926  1.0588  0.1805
14891TIP3    H266089   1.159   2.849   2.094  0.8991  0.4316  0.2478
14892TIP3   OH266090   3.203   5.725  15.415  0.0071  0.1602  0.6008
14892TIP3    H166091   3.192   5.796  15.352 -1.7401 -0.3446  0.2798
14892TIP3    H266092   3.190   5.766  15.501  0.8685  0.5575  0.5523
14893TIP3   OH266093   3.372   0.080   6.044 -0.6908  0.2720  0.8349
14893TIP3    H166094   3.301   0.135   6.077 -0.0540  1.2026  0.6717
14893TIP3    H266095   3.327   0.005   6.005 -1.5693  0.6352  1.1205
14894TIP3   OH266096   0.816   2.078   4.191 -0.3270 -0.2640 -0.0268
14894TIP3    H166097   0.750   2.108   4.128  0.5777  0.5700 -0.6091
14894TIP3    H266098   0.797   1.985   4.203 -0.0206 -0.6478 -2.1693
14895TIP3   OH266099   2.675   5.286   3.711 -0.3147 -0.7752 -0.1697
14895TIP3    H166100   2.620   5.238   3.772 -0.8815 -0.0716 -0.1210
14895TIP3    H266101   2.648   5.377   3.720  2.3498 -0.0405  1.4958
14896TIP3   OH266102   3.944   0.352   3.344 -0.1712  0.0543  0.1103
14896TIP3    H166103   3.907   0.312   3.265 -0.0023  0.1067  0.0044
14896TIP3    H266104   4.032   0.314   3.351 -0.8476 -1.3876  1.3169
14897TIP3   OH266105   6.792   4.663  13.064 -0.2627 -0.1944  0.0868
14897TIP3    H166106   6.867   4.716  13.037  1.6567 -1.9960  1.4735
14897TIP3    H266107   6.789   4.672  13.159 -1.3006 -0.7843  0.1295
14898TIP3   OH266108   3.427   5.816   1.507 -0.1833 -0.0154  0.1021
14898TIP3    H166109   3.363   5.777   1.446 -1.8668  1.2779  0.9532
14898TIP3    H266110   3.463   5.741   1.554 -0.5142 -0.8430 -0.9039
14899TIP3   OH266111   1.608   4.314  14.956  0.6491  0.0129  0.0135
14899TIP3    H166112   1.622   4.226  14.990  1.0146  0.0928  0.0732
14899TIP3    H266113   1.596   4.368  15.034 -0.2367 -0.0909 -0.0406
14900TIP3   OH266114   6.058   4.982  16.311 -0.2617 -0.4464  0.2859
14900TIP3    H166115   6.044   4.974  16.406 -2.0941  0.3785  0.1227
14900TIP3    H266116   5.971   5.004  16.276  0.8036  1.4100 -1.3405
14901TIP3   OH266117   3.315   3.695   5.583  0.0164 -0.2309 -0.8116
14901TIP3    H166118   3.227   3.729   5.598  0.0809  0.4570 -1.9255
14901TIP3    H266119   3.369   3.773   5.571  1.3342 -0.4924  2.4564
14902TIP3   OH266120   1.044   5.420  12.016  0.7111  0.0496  0.2460
14902TIP3    H166121   1.118   5.363  12.036 -0.6551 -1.8845  0.1165
14902TIP3    H266122   1.013   5.389  11.930  0.0336  1.1269  0.0864
14903TIP3   OH266123   4.398   5.521   5.812  0.1215  0.1435  0.3633
14903TIP3    H166124   4.400   5.582   5.886 -0.5240  1.9499 -1.0299
14903TIP3    H266125   4.312   5.480   5.818  0.1727  0.0840  0.7463
14904TIP3   OH266126   2.310   0.817  11.295 -0.6323  0.0591 -0.1729
14904TIP3    H166127   2.274   0.790  11.211  0.7815  0.8264 -1.0642
14904TIP3    H266128   2.242   0.871  11.335 -1.0042  0.3378 -1.1735
14905TIP3   OH266129   2.529   1.312  13.243 -0.0530 -0.1894  0.2744
14905TIP3    H166130   2.554   1.300  13.335 -1.1775 -0.7159  0.5328
14905TIP3    H266131   2.448   1.363  13.247  0.2116  0.3059 -0.4669
14906TIP3   OH266132   0.144   3.024   4.131 -0.4301 -0.5001 -0.0268
14906TIP3    H166133   0.179   3.074   4.204 -1.6891 -0.3351  0.4988
14906TIP3    H266134   0.177   3.068   4.053 -0.5005  0.3930  0.4398
14907TIP3   OH266135   5.009   3.577  16.704 -0.2856 -0.5545  0.0145
14907TIP3    H166136   4.916   3.561  16.721 -0.4318  0.1190 -0.1194
14907TIP3    H266137   5.049   3.582  16.791 -0.8596  1.8799  0.2028
14908TIP3   OH266138   5.315   5.599   4.831  0.0393 -0.0226 -0.1142
14908TIP3    H166139   5.312   5.694   4.824 -2.0294 -0.0854 -0.7552
14908TIP3    H266140   5.387   5.573   4.772 -0.4535  1.0570 -1.2334
14909TIP3   OH266141   5.915   5.614  10.690 -0.5634 -0.1643 -0.2664
14909TIP3    H166142   5.953   5.701  10.676  0.5954 -0.9802 -2.7855
14909TIP3    H266143   5.826   5.631  10.720 -0.1372  1.8737 -0.0040
14910TIP3   OH266144   1.906   0.597  10.619 -0.2241  0.0628 -0.3102
14910TIP3    H166145   1.919   0.503  10.611  0.1941  0.0847  0.0669
14910TIP3    H266146   1.962   0.635  10.551  2.6400  0.2057  1.9333
14911TIP3   OH266147   0.347   0.615   3.263 -0.2821  0.0228 -1.0204
14911TIP3    H166148   0.321   0.536   3.217 -0.4458 -0.5704  0.0674
14911TIP3    H266149   0.350   0.590   3.356 -1.9658  1.6905 -0.4505
14912TIP3   OH266150   6.468   4.724   3.658 -0.7173  0.1660  0.0376
14912TIP3    H166151   6.375   4.717   3.682 -0.4261  1.3853  1.6577
14912TIP3    H266152   6.481   4.817   3.639  0.2156  0.0370 -0.0057
14913TIP3   OH266153   4.513   5.468  11.485 -0.4494 -0.2221  0.5026
14913TIP3    H166154   4.547   5.555  11.462  0.3226 -0.6912 -0.2005
14913TIP3    H266155   4.419   5.482  11.500 -0.8755  0.3145 -2.1771
14914TIP3   OH266156   0.831   0.601  10.929 -0.1149  0.3144  0.0642
14914TIP3    H166157   0.864   0.633  10.846 -0.9167 -0.0588 -0.4145
14914TIP3    H266158   0.768   0.533  10.905  0.8224 -0.9291  1.0250
14915TIP3   OH266159   5.148   5.707   2.025  0.0950 -0.6093 -0.0102
14915TIP3    H166160   5.220   5.646   2.004  0.7693  0.0956  0.2197
14915TIP3    H266161   5.163   5.730   2.117 -0.1674 -0.1047 -0.0955
14916TIP3   OH266162   6.019   0.742   3.271 -0.2920  0.3913 -1.0510
14916TIP3    H166163   5.992   0.800   3.200  0.8576  1.0793 -0.9527
14916TIP3    H266164   5.984   0.784   3.350  1.9097  1.9041 -0.8001
14917TIP3   OH266165   2.440   2.876   3.568  0.3822 -0.2091  0.1210
14917TIP3    H166166   2.373   2.927   3.523  2.0447 -0.3900 -2.7916
14917TIP3    H266167   2.446   2.795   3.518  2.2332 -0.5128  0.7782
14918TIP3   OH266168   2.959   5.931   1.562 -0.7338 -0.1625 -0.1066
14918TIP3    H166169   2.947   6.023   1.542  0.4231 -0.0125 -0.1958
14918TIP3    H266170   2.942   5.886   1.479 -3.9820 -0.3421  0.5207
14919TIP3   OH266171   0.515   6.512  12.959  0.1651  0.2275  0.0728
14919TIP3    H166172   0.425   6.537  12.982  0.2482  0.2630  0.3564
14919TIP3    H266173   0.570   6.576  13.003  0.3861 -0.5544  0.9579
14920TIP3   OH266174   5.825   5.289   0.197 -0.2266  0.1466  0.4064
14920TIP3    H166175   5.897   5.348   0.218  0.4915  0.1757 -1.8096
14920TIP3    H266176   5.806   5.243   0.279  1.9993  0.4661  1.1758
14921TIP3   OH266177   4.769   3.505   3.494 -0.3364  0.0857 -0.2545
14921TIP3    H166178   4.712   3.428   3.490  0.8463 -0.9219  1.0171
14921TIP3    H266179   4.819   3.493   3.575  0.6584  1.6494 -0.5949
14922TIP3   OH266180   6.563   0.813   1.609  0.5093  0.3226  0.5495
14922TIP3    H166181   6.647   0.788   1.647  0.8284 -2.0921 -1.4287
14922TIP3    H266182   6.579   0.816   1.515 -1.2843  1.3782  0.2223
14923TIP3   OH266183   4.125   4.841  11.688 -0.3777 -0.2593 -0.4641
14923TIP3    H166184   4.040   4.870  11.654 -0.4310 -1.9381 -1.9403
14923TIP3    H266185   4.189   4.900  11.648 -0.8012  0.7934  0.3817
14924TIP3   OH266186   0.484   6.798   4.341 -0.0167 -0.1888  0.2449
14924TIP3    H166187   0.527   6.724   4.296  0.2966  0.0641  0.1246
14924TIP3    H266188   0.409   6.758   4.385 -0.3170 -0.4548 -0.4775
14925TIP3   OH266189   3.375   0.773  16.955 -0.1238  0.6402 -0.7922
14925TIP3    H166190   3.342   0.720  17.028  1.3434  0.4527 -0.2159
14925TIP3    H266191   3.362   0.863  16.982  1.0155  0.5840  0.0508
14926TIP3   OH266192   6.047   6.064   2.652  0.1127 -0.2094 -0.0866
14926TIP3    H166193   6.100   6.036   2.577  0.0683 -0.1970 -0.1233
14926TIP3    H266194   6.087   6.146   2.681  0.1309 -0.2151 -0.0963
14927TIP3   OH266195   2.755   2.565   6.419  0.1861  0.0809  0.1457
14927TIP3    H166196   2.731   2.653   6.448  1.9620  0.0947  1.7502
14927TIP3    H266197   2.684   2.540   6.359 -1.1471  1.9800  0.8176
14928TIP3   OH266198   5.695   2.627   2.749 -0.1247  0.6238 -0.1875
14928TIP3    H166199   5.732   2.710   2.781 -1.6596  0.8389  1.1332
14928TIP3    H266200   5.661   2.584   2.827 -0.6232 -0.5997 -1.0522
14929TIP3   OH266201   5.621   1.665   1.995  0.6738 -0.1721  0.0037
14929TIP3    H166202   5.649   1.638   2.082  1.2043  0.0509 -0.0928
14929TIP3    H266203   5.601   1.583   1.950  0.3435 -0.2843  0.3508
14930TIP3   OH266204   5.361   2.848  16.728  0.0771 -0.0846 -0.2481
14930TIP3    H166205   5.413   2.811  16.657 -0.8137  0.5564 -1.2731
14930TIP3    H266206   5.405   2.931  16.748  0.5127 -0.4171  0.1675
14931TIP3   OH266207   1.604   3.880   4.655 -0.3775 -0.1899  0.4707
14931TIP3    H166208   1.642   3.794   4.672 -0.3816 -1.1925 -3.6428
14931TIP3    H266209   1.509   3.867   4.666 -0.3365 -0.5388  0.4195
14932TIP3   OH266210   4.296   0.917  16.755  0.3194 -0.4063  0.0350
14932TIP3    H166211   4.386   0.885  16.766  0.0314 -1.0734  0.5193
14932TIP3    H266212   4.279   0.910  16.662  0.9032  0.1104 -0.1252
14933TIP3   OH266213   6.165   3.156   3.080 -0.4670  0.1617 -0.1290
14933TIP3    H166214   6.160   3.247   3.110  0.0988  0.2457 -0.2693
14933TIP3    H266215   6.139   3.104   3.157 -0.8235  0.4400 -0.0595
14934TIP3   OH266216   1.035   3.572  12.193 -0.0221  0.1153  0.5373
14934TIP3    H166217   0.980   3.581  12.116 -0.1195 -1.2211  0.4136
14934TIP3    H266218   1.034   3.658  12.235  0.8640  1.1741 -1.4877
14935TIP3   OH266219   2.769   3.770   3.143 -0.3849 -0.3280  0.0852
14935TIP3    H166220   2.718   3.712   3.199 -2.3786 -0.5161 -1.7998
14935TIP3    H266221   2.707   3.800   3.076  1.5446  0.9089 -1.2534
14936TIP3   OH266222   6.685   6.743  10.921 -0.0285 -0.3657 -0.0366
14936TIP3    H166223   6.642   6.763  10.838  0.0049  0.1930  0.0770
14936TIP3    H266224   6.712   6.828  10.955  2.7940 -0.7974 -0.9589
14937TIP3   OH266225   3.569   0.417   3.009  0.0054  0.1634  0.1990
14937TIP3    H166226   3.620   0.448   3.084  0.8986 -0.1320 -0.2729
14937TIP3    H266227   3.532   0.334   3.038  1.1641 -0.4449 -0.0159
14938TIP3   OH266228   2.884   2.236  12.835 -0.1485  0.1267  0.4544
14938TIP3    H166229   2.926   2.312  12.795 -0.1161  0.3201  0.8583
14938TIP3    H266230   2.799   2.269  12.866 -0.2035 -0.0407  0.4817
14939TIP3   OH266231   3.999   4.170  16.325  0.1324 -0.1458 -0.1700
14939TIP3    H166232   4.045   4.204  16.248  0.4654 -0.6874 -0.2207
14939TIP3    H266233   4.009   4.075  16.318 -0.6752 -0.2502  0.0267
14940TIP3   OH266234   0.928   2.734  13.847 -0.3190  0.0762 -1.4221
14940TIP3    H166235   0.902   2.763  13.759 -0.9545 -0.5331 -1.4436
14940TIP3    H266236   0.848   2.738  13.898  0.0736  0.5223 -0.8335
14941TIP3   OH266237   1.179   1.142  14.495 -0.1776  0.0420  0.0295
14941TIP3    H166238   1.208   1.051  14.482  1.2039  0.4007  0.4560
14941TIP3    H266239   1.175   1.153  14.590  1.5889  0.9778  0.0334
14942TIP3   OH266240   4.487   0.949  16.982 -0.8229 -0.0668  0.1992
14942TIP3    H166241   4.526   0.896  16.913 -1.0672 -0.0501  0.0462
14942TIP3    H266242   4.503   1.039  16.955  0.8209 -0.0404  1.1550
14943TIP3   OH266243   1.228   3.068  13.438 -0.0486 -0.4106  0.2204
14943TIP3    H166244   1.215   3.020  13.356  0.4728  0.0603 -0.1488
14943TIP3    H266245   1.162   3.137  13.436 -0.2503 -0.6000  0.3525
14944TIP3   OH266246   1.923   4.807   1.319 -0.7806  0.2332  0.5594
14944TIP3    H166247   2.006   4.785   1.276 -0.3815  0.0355  1.4139
14944TIP3    H266248   1.898   4.727   1.366 -0.9622  0.5966  1.0900
14945TIP3   OH266249   0.130   3.339   3.309 -0.3240  0.5616 -0.1192
14945TIP3    H166250   0.116   3.349   3.215  0.4873 -1.5822 -0.5209
14945TIP3    H266251   0.215   3.379   3.325  0.5977 -1.0479 -0.7662
14946TIP3   OH266252   4.685   0.646   0.516 -0.2551  0.0554 -0.1413
14946TIP3    H166253   4.648   0.584   0.577  0.6656 -0.4712 -0.0916
14946TIP3    H266254   4.613   0.704   0.493 -0.7000  0.0375  1.1523
14947TIP3   OH266255   3.500   0.898   0.988  0.4924  0.3664 -0.5007
14947TIP3    H166256   3.546   0.948   1.055 -0.6167  0.8075 -0.0362
14947TIP3    H266257   3.448   0.835   1.037  0.2715  0.1688 -0.9830
14948TIP3   OH266258   0.151   3.018   3.573  0.3746  0.2168 -0.1008
14948TIP3    H166259   0.128   3.031   3.665  1.6071  0.2053  0.2351
14948TIP3    H266260   0.237   2.976   3.576  0.1216 -0.4099 -1.2588
14949TIP3   OH266261   3.775   5.692  13.434 -0.3510  0.5316 -0.1374
14949TIP3    H166262   3.792   5.600  13.415 -1.1404 -0.4401  3.1921
14949TIP3    H266263   3.783   5.736  13.349 -0.0841 -2.5878 -1.8767
14950TIP3   OH266264   2.439   2.772   4.185  0.4071  0.1043  1.0628
14950TIP3    H166265   2.406   2.714   4.117 -0.2354  1.8143 -0.1569
14950TIP3    H266266   2.486   2.715   4.246  0.6581 -1.5272 -0.6100
14951TIP3   OH266267   6.288   0.133   0.809  0.0564  0.1006  0.0112
14951TIP3    H166268   6.279   0.165   0.719 -1.1975  0.6308  0.3053
14951TIP3    H266269   6.215   0.072   0.820  2.2270 -2.7989 -0.4536
14952TIP3   OH266270   4.623   0.040  11.089  0.3043  0.0431 -0.4805
14952TIP3    H166271   4.703   0.009  11.048  0.0272 -1.0342 -0.2555
14952TIP3    H266272   4.601  -0.028  11.153  0.5745  1.5137  1.2768
14953TIP3   OH266273   0.635   2.435   5.184  0.0128 -0.1003  0.2800
14953TIP3    H166274   0.545   2.459   5.164 -0.2487  0.4750  1.9734
14953TIP3    H266275   0.684   2.458   5.105 -1.3376 -0.6495 -0.7587
14954TIP3   OH266276   1.586   2.877   4.956 -0.3974 -0.0127  0.1084
14954TIP3    H166277   1.593   2.788   4.924 -2.0382 -0.0205 -0.3116
14954TIP3    H266278   1.668   2.892   5.004  1.6497 -0.4035 -2.9707
14955TIP3   OH266279   2.650   4.374  13.827 -0.2676 -0.6300 -0.2534
14955TIP3    H166280   2.724   4.316  13.809 -1.0327 -2.0341  0.8967
14955TIP3    H266281   2.602   4.379  13.745 -0.4361 -2.0158 -0.2573
14956TIP3   OH266282   2.151   2.638   4.096  0.3159  0.6122  0.3081
14956TIP3    H166283   2.098   2.603   4.025  0.9618  0.0144  0.1010
14956TIP3    H266284   2.241   2.635   4.062  0.4971  1.4831  0.6936
14957TIP3   OH266285   4.431   6.087  13.992  0.2026  0.3167  0.0487
14957TIP3    H166286   4.513   6.082  14.041  0.8329  0.6449 -0.9363
14957TIP3    H266287   4.422   5.999  13.954 -0.3314  0.0355  0.8117
14958TIP3   OH266288   2.177   2.467   4.835 -0.1437 -0.0724 -0.8484
14958TIP3    H166289   2.238   2.535   4.808  2.9284 -2.5318 -0.7367
14958TIP3    H266290   2.149   2.426   4.753 -1.4039  0.7438 -0.8673
14959TIP3   OH266291   6.024   4.719  11.225 -0.1545  0.2929  0.2829
14959TIP3    H166292   6.021   4.786  11.155  0.1852  0.8188  0.7617
14959TIP3    H266293   5.933   4.698  11.241 -0.2068 -1.0475 -1.4503
14960TIP3   OH266294   2.637   1.152   0.816 -0.0096 -0.3419  0.0271
14960TIP3    H166295   2.653   1.149   0.910  0.7560  0.3004 -0.0677
14960TIP3    H266296   2.565   1.091   0.801 -0.2103 -0.3587  1.0404
14961TIP3   OH266297   0.391   5.122  16.664  0.1802  0.3211 -0.1083
14961TIP3    H166298   0.336   5.188  16.621 -0.5563 -0.4802 -0.4064
14961TIP3    H266299   0.358   5.038  16.633  1.3452 -0.1980 -0.0135
14962TIP3   OH266300   2.959   5.742   0.459  0.1332 -0.1760  0.5869
14962TIP3    H166301   3.038   5.781   0.420  0.2051 -0.9663 -0.0749
14962TIP3    H266302   2.891   5.754   0.393  0.0087 -0.6347  0.6302
14963TIP3   OH266303   3.868   3.260   5.022 -0.2027 -0.0840  0.8953
14963TIP3    H166304   3.957   3.225   5.031  0.1733  0.2923 -1.0407
14963TIP3    H266305   3.813   3.183   5.006  0.4906 -0.0395 -2.4387
14964TIP3   OH266306   4.172   1.117  11.818  0.1324 -0.6598 -0.4531
14964TIP3    H166307   4.139   1.205  11.839  1.1891 -0.4752  0.5345
14964TIP3    H266308   4.251   1.108  11.871  0.3710 -1.9887 -1.0003
14965TIP3   OH266309   1.930   1.575  13.534 -0.4887  0.4088  0.2364
14965TIP3    H166310   1.992   1.564  13.606  1.9419 -0.6289 -1.8642
14965TIP3    H266311   1.962   1.650  13.485 -0.6919 -0.3301 -1.0748
14966TIP3   OH266312   4.379   0.297   5.355 -1.2345 -0.1418  0.4380
14966TIP3    H166313   4.356   0.248   5.434 -0.1619 -2.0284 -0.3344
14966TIP3    H266314   4.337   0.248   5.284 -2.2749  1.5881 -0.1896
14967TIP3   OH266315   4.516   1.051   5.318  0.3670 -0.2699 -0.3679
14967TIP3    H166316   4.455   1.096   5.259  0.0401  0.5076  0.5418
14967TIP3    H266317   4.462   0.983   5.360  0.3932 -0.2859 -0.3600
14968TIP3   OH266318   4.930   2.083  15.242  0.0545 -0.3624  0.2158
14968TIP3    H166319   4.933   2.108  15.334  2.5123  0.4575 -0.0227
14968TIP3    H266320   4.898   1.993  15.242 -3.2409  0.6500  1.5556
14969TIP3   OH266321   1.615   3.791  15.013 -0.3750  0.0586  0.2519
14969TIP3    H166322   1.699   3.765  14.976 -0.2383 -0.0629  0.6455
14969TIP3    H266323   1.551   3.734  14.969 -0.1718 -0.3473  0.4746
14970TIP3   OH266324   4.424   5.047  10.450  0.1447 -0.1276 -0.2160
14970TIP3    H166325   4.421   5.041  10.546 -1.7959  1.0216 -0.1541
14970TIP3    H266326   4.506   5.094  10.432  0.8393 -0.8739  0.8130
14971TIP3   OH266327   2.030   3.194  11.652  0.0913  0.3097 -0.4244
14971TIP3    H166328   2.020   3.102  11.676 -0.4945  0.4017 -0.2985
14971TIP3    H266329   2.053   3.238  11.733 -1.4401  0.5503 -0.0976
14972TIP3   OH266330   1.247   2.411  15.745 -0.5502 -0.6930 -0.4506
14972TIP3    H166331   1.237   2.461  15.826 -2.5771  1.6799 -2.0345
14972TIP3    H266332   1.303   2.337  15.770  1.2351  1.4207  2.4162
14973TIP3   OH266333   0.426   1.715  14.019  0.3008  0.3124  0.0632
14973TIP3    H166334   0.409   1.807  14.000 -1.6289 -0.1764 -0.8779
14973TIP3    H266335   0.339   1.676  14.028  0.7716 -2.2774 -4.0388
14974TIP3   OH266336   5.049   1.886   2.251 -0.2497 -0.0673  0.0502
14974TIP3    H166337   5.072   1.943   2.178 -1.0733 -0.1501 -0.2838
14974TIP3    H266338   5.077   1.798   2.223 -2.6613 -0.5175 -1.2112
14975TIP3   OH266339   3.504   2.614  13.869  0.2931  0.2515 -0.4604
14975TIP3    H166340   3.476   2.604  13.777 -1.8717 -0.9497  0.2550
14975TIP3    H266341   3.463   2.541  13.914 -0.7374  2.1766  1.9297
14976TIP3   OH266342   3.040   6.564  16.254  0.1120 -0.2221  0.3567
14976TIP3    H166343   3.128   6.591  16.279 -0.1594 -0.6599  1.9161
14976TIP3    H266344   3.049   6.472  16.228  0.2822  0.0419 -0.5498
14977TIP3   OH266345   0.342   1.725   6.556  0.1270  0.1532 -0.3387
14977TIP3    H166346   0.275   1.738   6.489  1.1309 -2.2486 -1.9662
14977TIP3    H266347   0.407   1.792   6.537 -0.4601  0.6553 -0.6071
14978TIP3   OH266348   0.072   2.814   4.585  0.4028  0.0839 -0.0886
14978TIP3    H166349   0.140   2.849   4.526  1.2749 -3.4440 -1.4364
14978TIP3    H266350   0.117   2.746   4.636 -1.4473 -0.2185  1.2468
14979TIP3   OH266351   5.493   2.274   2.817  0.6365  0.1787 -0.1386
14979TIP3    H166352   5.554   2.340   2.851 -0.4493  0.8574  0.5697
14979TIP3    H266353   5.439   2.322   2.753 -0.5388  0.1561  0.8008
14980TIP3   OH266354   6.784   4.379   4.861  0.3804 -0.3817  0.0971
14980TIP3    H166355   6.714   4.441   4.880 -0.0248  0.0408 -2.4711
14980TIP3    H266356   6.864   4.431   4.866  0.0541  0.3968 -1.9047
14981TIP3   OH266357   2.751   3.970   0.838  0.5410  0.0975  0.4755
14981TIP3    H166358   2.742   3.916   0.760 -0.1043  1.3101 -0.3307
14981TIP3    H266359   2.795   3.914   0.902  1.3924 -0.8050 -0.8660
14982TIP3   OH266360   3.640   1.804   2.153  0.1667 -0.2307 -0.3366
14982TIP3    H166361   3.607   1.732   2.208 -1.4453  0.1689 -0.7252
14982TIP3    H266362   3.572   1.870   2.158  0.7484  0.4812 -1.5396
14983TIP3   OH266363   6.548   0.293   6.539 -0.1308  0.1642  0.6334
14983TIP3    H166364   6.601   0.320   6.613  0.5109  0.4306  0.0878
14983TIP3    H266365   6.584   0.208   6.512  0.5878  0.7353 -0.2643
14984TIP3   OH266366   4.613   4.109   1.436 -0.0090  0.5092  0.1599
14984TIP3    H166367   4.550   4.057   1.487  0.0570  0.9952  0.7511
14984TIP3    H266368   4.644   4.176   1.498  0.3124  0.9127 -0.4320
14985TIP3   OH266369   1.481   4.391  15.429  0.3797 -0.5419 -0.0884
14985TIP3    H166370   1.483   4.484  15.404 -0.5270 -0.7227 -0.9327
14985TIP3    H266371   1.573   4.367  15.440  0.6083  0.6160  0.8087
14986TIP3   OH266372   3.956   5.157  11.257 -0.4232 -0.0278 -0.4097
14986TIP3    H166373   3.973   5.070  11.221 -2.6219 -0.8204  0.2623
14986TIP3    H266374   3.945   5.213  11.180  1.5958 -0.1528 -0.8479
14987TIP3   OH266375   4.804   2.676   5.629  0.8043 -0.5684 -0.3409
14987TIP3    H166376   4.768   2.731   5.698  0.1258  2.4854 -2.9245
14987TIP3    H266377   4.817   2.591   5.671 -2.1083  0.3208  2.7868
14988TIP3   OH266378   1.570   3.233  14.399 -0.0471 -0.2147 -0.1734
14988TIP3    H166379   1.521   3.264  14.323 -2.1322  0.4208  1.3265
14988TIP3    H266380   1.578   3.138  14.386  2.3449  0.2059 -2.5807
14989TIP3   OH266381   4.290   1.282   1.956 -0.1973  0.8179  0.2329
14989TIP3    H166382   4.236   1.348   2.000  0.5209  1.3195  0.3691
14989TIP3    H266383   4.237   1.253   1.882 -2.2231 -1.2887  2.3113
14990TIP3   OH266384   3.141   6.147   2.174 -0.3118 -0.1761  0.6251
14990TIP3    H166385   3.147   6.065   2.125  0.2832 -0.7782  1.6675
14990TIP3    H266386   3.230   6.164   2.203 -0.2938  1.2359 -0.1693
14991TIP3   OH266387   5.070   3.254  15.189 -0.6260 -0.4806  0.4503
14991TIP3    H166388   5.104   3.211  15.110 -0.6836 -2.3883  1.3898
14991TIP3    H266389   4.979   3.224  15.195 -1.3136  1.4463  0.0608
14992TIP3   OH266390   6.183   6.019  15.290 -0.3252 -0.2166  0.7601
14992TIP3    H166391   6.191   5.925  15.306  1.4642  0.3683  4.5053
14992TIP3    H266392   6.106   6.046  15.340 -0.8807  0.3492 -0.3518
14993TIP3   OH266393   1.839   0.383  12.624  0.3473 -0.8072 -0.5714
14993TIP3    H166394   1.858   0.335  12.705  1.8616  0.2755 -0.2470
14993TIP3    H266395   1.830   0.474  12.652  2.2127 -0.2184 -1.7480
14994TIP3   OH266396   0.442   3.131  14.909  0.2598  0.1541 -0.2893
14994TIP3    H166397   0.425   3.047  14.867 -1.0613 -0.0642  0.6120
14994TIP3    H266398   0.486   3.183  14.842  0.3402 -0.9773 -1.1357
14995TIP3   OH266399   1.784   2.609   0.678  0.2799  0.1664 -0.0556
14995TIP3    H166400   1.698   2.605   0.637 -0.6880  2.0642  1.6236
14995TIP3    H266401   1.818   2.520   0.669 -1.6934 -0.5610 -1.0642
14996TIP3   OH266402   2.823   1.651   1.018  0.3655  0.9538 -0.7257
14996TIP3    H166403   2.904   1.681   0.976 -0.0979  1.2555 -1.4235
14996TIP3    H266404   2.756   1.661   0.951 -0.1136 -0.0611 -0.4157
14997TIP3   OH266405   2.083   5.545   6.105 -0.8596  0.6641 -0.3833
14997TIP3    H166406   2.138   5.469   6.124  1.1949  2.2639  0.3323
14997TIP3    H266407   2.051   5.574   6.190 -0.5262  1.4049 -0.5080
14998TIP3   OH266408   0.138   4.873  13.452  0.3767 -0.5488 -0.3843
14998TIP3    H166409   0.060   4.923  13.428 -0.1778 -0.5885  1.2416
14998TIP3    H266410   0.211   4.930  13.426 -0.2371  0.9087  0.9352
14999TIP3   OH266411   1.413   1.198   5.726  0.6885  0.2090 -0.1247
14999TIP3    H166412   1.400   1.264   5.658  1.4452  0.4325 -0.0601
14999TIP3    H266413   1.327   1.188   5.767  0.2492  0.1490 -1.0397
15000TIP3   OH266414   1.697   1.312  16.516 -0.2595 -0.0761  0.3477
15000TIP3    H166415   1.716   1.395  16.560  1.1647 -1.0961  1.7629
15000TIP3    H266416   1.717   1.328  16.424  4.4368  0.0315  1.1480
15001TIP3   OH266417   1.148   1.096   5.481 -0.0929 -0.0425 -0.3265
15001TIP3    H166418   1.195   1.027   5.528 -1.8548 -1.8541 -1.0581
15001TIP3    H266419   1.142   1.167   5.545  0.0889 -1.3286  1.2169
15002TIP3   OH266420   3.072   6.756   4.268  0.4365 -0.3747 -0.0276
15002TIP3    H166421   3.039   6.739   4.356  0.7080  1.3466  0.4418
15002TIP3    H266422   3.030   6.689   4.214 -1.5395 -0.0917  1.0380
15003TIP3   OH266423   3.738   3.059  12.250 -0.3219 -0.1353  0.9334
15003TIP3    H166424   3.803   3.129  12.255 -0.0973 -0.3794  1.5359
15003TIP3    H266425   3.789   2.979  12.258 -0.5233 -0.3942 -0.2647
15004TIP3   OH266426   0.620   0.996  17.023 -0.1132 -0.3159  0.9352
15004TIP3    H166427   0.573   0.959  17.097 -0.7556 -1.0255  0.1934
15004TIP3    H266428   0.659   0.920  16.979 -1.1152 -0.0943 -0.3856
15005TIP3   OH266429   0.686   5.022  16.718  0.5778 -0.3751  0.0860
15005TIP3    H166430   0.680   4.991  16.628  0.9010  0.6370 -0.2914
15005TIP3    H266431   0.596   5.020  16.750  0.2690  0.5354 -0.6992
15006TIP3   OH266432   3.845   1.554  11.794 -0.2461  0.3825 -0.1389
15006TIP3    H166433   3.784   1.489  11.830 -1.1477  1.6551  0.7092
15006TIP3    H266434   3.800   1.590  11.718 -0.1263  0.6361 -0.0910
15007TIP3   OH266435   4.255   5.192  16.259 -0.0593  0.0074  0.0760
15007TIP3    H166436   4.178   5.152  16.218  0.5086 -0.6837 -0.3327
15007TIP3    H266437   4.274   5.135  16.334 -0.1892  0.4178  0.4296
15008TIP3   OH266438   5.719   6.029   5.219  0.0265  0.0780 -0.1320
15008TIP3    H166439   5.626   6.024   5.240 -0.2274  2.3870 -0.4140
15008TIP3    H266440   5.763   5.996   5.297 -0.9756 -3.1580 -0.8120
15009TIP3   OH266441   4.079   5.281   0.508  0.3224  0.3588  0.4687
15009TIP3    H166442   4.005   5.336   0.482  0.7218  0.9543  0.5760
15009TIP3    H266443   4.156   5.336   0.494  0.7082 -0.0798  0.8332
15010TIP3   OH266444   3.723   4.722  16.250  0.5774  0.0489  0.6782
15010TIP3    H166445   3.804   4.685  16.213  0.6379 -0.1998  1.0547
15010TIP3    H266446   3.675   4.754  16.174  0.8237 -0.2108  0.4076
15011TIP3   OH266447   6.713   4.213  13.312  0.1754 -0.1630 -0.2671
15011TIP3    H166448   6.747   4.247  13.394  0.8036  1.8107 -1.2848
15011TIP3    H266449   6.773   4.143  13.288  0.3476 -0.3326  0.6186
15012TIP3   OH266450   5.674   4.821  15.820  0.4851  0.1899  0.0508
15012TIP3    H166451   5.581   4.825  15.843  0.3017  1.1361 -0.8054
15012TIP3    H266452   5.685   4.885  15.750  2.1045  1.2335  1.1930
15013TIP3   OH266453   5.178   5.153  16.232  0.3324  0.5144  0.1380
15013TIP3    H166454   5.148   5.232  16.277  0.8994  0.1056  1.2857
15013TIP3    H266455   5.257   5.181  16.185  0.5532  0.6354  0.5689
15014TIP3   OH266456   4.345   4.733  16.304 -0.1772  0.4250  0.7127
15014TIP3    H166457   4.346   4.814  16.355 -1.0093  1.5680 -1.0241
15014TIP3    H266458   4.435   4.722  16.274  0.1484  0.1530  1.7279
15015TIP3   OH266459   1.055   0.173  15.351  0.2955 -0.1978 -0.2483
15015TIP3    H166460   1.139   0.199  15.315  0.7807 -0.7254  0.4752
15015TIP3    H266461   1.039   0.236  15.422  0.6982 -0.8702  0.4481
15016TIP3   OH266462   4.646   6.221  12.910 -0.3865 -0.8615 -0.3009
15016TIP3    H166463   4.663   6.260  12.824 -1.6193 -1.5325 -0.8683
15016TIP3    H266464   4.731   6.186  12.937  0.2066  0.1140 -0.8502
15017TIP3   OH266465   1.361   1.591  10.984 -0.0332 -0.0953 -0.6432
15017TIP3    H166466   1.320   1.587  11.070  0.6498 -0.0784 -0.3139
15017TIP3    H266467   1.396   1.679  10.977  1.5236 -0.6497 -0.1764
15018TIP3   OH266468   5.094   3.469  15.376 -0.2278 -0.7434  0.5577
15018TIP3    H166469   5.044   3.470  15.458 -0.8993 -0.5718  0.1564
15018TIP3    H266470   5.081   3.381  15.342 -1.8049 -0.1733 -0.4508
15019TIP3   OH266471   5.088   5.576   5.685  0.2650  0.0946 -0.5749
15019TIP3    H166472   5.085   5.669   5.707  2.0710  0.3848 -1.3567
15019TIP3    H266473   5.075   5.532   5.769  2.4568  1.1276  0.4042
15020TIP3   OH266474   0.555   3.434  16.494 -0.7298 -0.5411 -0.0646
15020TIP3    H166475   0.480   3.441  16.553 -0.2332 -2.4282  0.8478
15020TIP3    H266476   0.552   3.344  16.462  1.0709 -0.6117 -0.1253
15021TIP3   OH266477   4.666   6.678  11.741 -0.2920  0.1130 -0.1425
15021TIP3    H166478   4.629   6.686  11.654 -3.4392  1.6746  1.2044
15021TIP3    H266479   4.729   6.750  11.748  0.8308 -0.7004 -1.4211
15022TIP3   OH266480   6.523   4.998   3.596 -1.0127 -0.5420  0.1629
15022TIP3    H166481   6.613   5.028   3.581 -1.3563 -0.0515 -1.0522
15022TIP3    H266482   6.502   5.028   3.684 -0.6052  0.9674 -0.2248
15023TIP3   OH266483   5.886   1.355   3.112 -0.1933  0.9198 -0.1012
15023TIP3    H166484   5.845   1.428   3.066  2.4538  2.7119  0.1413
15023TIP3    H266485   5.908   1.390   3.199  2.1283  0.2747 -0.3463
15024TIP3   OH266486   6.175   0.174  14.369  0.4085  0.1743 -0.0586
15024TIP3    H166487   6.198   0.265  14.350  2.3397 -0.5129 -1.3824
15024TIP3    H266488   6.250   0.140  14.418 -0.1225 -0.8006  0.1058
15025TIP3   OH266489   6.543   6.793   6.320 -0.5215 -0.0766 -0.4371
15025TIP3    H166490   6.455   6.755   6.313 -0.8483  0.3687  1.0048
15025TIP3    H266491   6.581   6.781   6.233 -1.7712 -0.8580 -0.8994
15026TIP3   OH266492   1.392   0.401  15.674  0.6686 -0.3281 -0.1194
15026TIP3    H166493   1.446   0.443  15.740  1.0202 -0.5404 -0.2727
15026TIP3    H266494   1.314   0.458  15.667 -0.3015 -1.3358  1.8694
15027TIP3   OH266495   5.712   2.255   1.971  0.3688  1.0590  0.0867
15027TIP3    H166496   5.687   2.292   2.056 -1.1016 -0.0682  0.1756
15027TIP3    H266497   5.669   2.170   1.968  1.5007  0.5044 -1.2400
15028TIP3   OH266498   0.707   3.514   2.010  0.3777 -0.6809  0.1567
15028TIP3    H166499   0.657   3.447   1.963 -2.0635  2.2156 -1.7292
15028TIP3    H266500   0.698   3.491   2.102 -2.3391 -1.7234 -0.2815
15029TIP3   OH266501   5.643   0.439   4.764  0.1528 -0.6751 -0.2867
15029TIP3    H166502   5.567   0.471   4.813  0.4722  0.0606 -0.2639
15029TIP3    H266503   5.708   0.508   4.771  0.8258 -1.2863 -0.3300
15030TIP3   OH266504   3.557   2.775  12.025 -0.1514 -0.4883 -0.7463
15030TIP3    H166505   3.634   2.719  12.038 -0.7038 -1.2521 -0.6761
15030TIP3    H266506   3.503   2.727  11.961  0.0999  0.7250 -1.9174
15031TIP3   OH266507   2.673   6.507  14.459  0.2502 -1.0634  0.7915
15031TIP3    H166508   2.699   6.490  14.368 -0.5174  0.4884  0.2423
15031TIP3    H266509   2.611   6.437  14.479  0.4281 -1.4290  0.1190
15032TIP3   OH266510   3.261   3.430  12.171  0.1231  0.2224 -0.0878
15032TIP3    H166511   3.297   3.477  12.096  1.2106  1.2696  1.0461
15032TIP3    H266512   3.271   3.338  12.149  1.7221  0.5109 -0.6417
15033TIP3   OH266513   5.452   2.781  13.687 -0.3812 -0.4898 -0.1149
15033TIP3    H166514   5.497   2.823  13.761 -1.6495  1.2856 -0.2730
15033TIP3    H266515   5.518   2.725  13.647  1.4428  1.3509  0.1582
15034TIP3   OH266516   2.984   5.411   1.206 -0.0465  0.1342 -0.4015
15034TIP3    H166517   2.922   5.345   1.175  1.6678 -2.1038  0.5943
15034TIP3    H266518   3.017   5.376   1.288  2.5866  1.1471 -0.9230
15035TIP3   OH266519   3.151   5.197   2.212  0.6485 -0.1749  0.0946
15035TIP3    H166520   3.205   5.124   2.183 -2.4622 -2.6210 -0.1268
15035TIP3    H266521   3.166   5.202   2.306  2.4455  0.3603 -0.1886
15036TIP3   OH266522   2.820   4.154  13.811 -0.0445 -0.4695  0.1068
15036TIP3    H166523   2.877   4.114  13.877 -1.7398 -0.4288  1.7074
15036TIP3    H266524   2.773   4.081  13.772 -1.0156 -0.3340  0.9496
15037TIP3   OH266525   1.189   2.015   2.070 -0.0038 -0.6073 -0.5013
15037TIP3    H166526   1.255   2.022   2.001 -0.1557 -0.4035 -0.6274
15037TIP3    H266527   1.162   2.106   2.086  0.8552 -0.5283  0.6304
15038TIP3   OH266528   4.165   4.640  12.497  0.0940 -0.2448  0.0445
15038TIP3    H166529   4.103   4.702  12.461 -0.1861 -1.2523 -1.2666
15038TIP3    H266530   4.136   4.555  12.465  1.7298 -0.8211 -0.0039
15039TIP3   OH266531   5.753   4.763   5.078  0.6857  1.1550  0.3220
15039TIP3    H166532   5.847   4.777   5.085  0.7316  0.3694  1.4131
15039TIP3    H266533   5.718   4.793   5.162  0.1663 -0.1145  0.5785
15040TIP3   OH266534   4.395   2.338  16.067  0.3973 -0.3941 -0.1095
15040TIP3    H166535   4.436   2.327  16.153 -2.3676  0.8762  1.5459
15040TIP3    H266536   4.427   2.422  16.036 -1.3512  0.9785  1.5382
15041TIP3   OH266537   6.638   5.087  12.291 -0.1439  0.5493  0.4846
15041TIP3    H166538   6.595   5.129  12.217  1.5981  1.5441 -0.0094
15041TIP3    H266539   6.729   5.117  12.287  0.0380  0.5612  2.9556
15042TIP3   OH266540   5.381   1.503  13.077 -0.0803  0.1397 -0.9919
15042TIP3    H166541   5.422   1.587  13.095 -0.0630  0.0655 -0.6923
15042TIP3    H266542   5.449   1.438  13.094 -0.5156 -0.0258  0.1505
15043TIP3   OH266543   1.729   1.852  14.905  0.3073 -0.0228 -0.4678
15043TIP3    H166544   1.753   1.921  14.844 -0.9984  1.3920  0.5279
15043TIP3    H266545   1.648   1.815  14.869 -0.0609  0.3111  0.0014
15044TIP3   OH266546   1.807   1.378  10.227 -0.0598  0.0949 -0.0641
15044TIP3    H166547   1.835   1.303  10.280  0.4500  0.9175  0.8661
15044TIP3    H266548   1.715   1.391  10.251  0.3986  0.9982  1.3172
15045TIP3   OH266549   1.076   0.523  13.153  0.2621  0.2021  0.7687
15045TIP3    H166550   1.004   0.495  13.209 -1.9357  1.3489 -1.3407
15045TIP3    H266551   1.040   0.593  13.099  2.5344 -0.1511 -1.4115
15046TIP3   OH266552   6.619   6.322  10.840 -0.9512 -0.4157 -0.2665
15046TIP3    H166553   6.645   6.268  10.915 -0.2564 -1.1187 -0.9945
15046TIP3    H266554   6.633   6.266  10.764 -2.1882  0.0885 -0.8953
15047TIP3   OH266555   0.904   3.563   1.739  0.4046 -0.3972 -0.2193
15047TIP3    H166556   0.940   3.492   1.686 -0.0511  0.4826 -1.7694
15047TIP3    H266557   0.823   3.588   1.694 -1.6286 -1.5483  2.5133
15048TIP3   OH266558   4.135   5.655  11.183  0.1509 -0.0180  0.0658
15048TIP3    H166559   4.220   5.613  11.196  0.1633 -0.0211 -0.0245
15048TIP3    H266560   4.071   5.584  11.195  0.0864  0.2350  1.4022
15049TIP3   OH266561   2.610   2.220  14.002 -0.1460 -0.0697  0.0291
15049TIP3    H166562   2.633   2.307  13.970  0.2503  0.3262  1.3069
15049TIP3    H266563   2.667   2.161  13.955 -0.8847  0.2793 -1.3524
15050TIP3   OH266564   1.576   3.481   5.426 -0.4556  0.3918 -0.9136
15050TIP3    H166565   1.646   3.421   5.404 -0.4374  0.5516 -1.2878
15050TIP3    H266566   1.566   3.537   5.349 -0.9304  0.4280 -0.8291
15051TIP3   OH266567   5.168   5.488   0.392 -0.3302  0.3622 -0.1951
15051TIP3    H166568   5.181   5.401   0.430 -0.3585  0.3481 -0.2183
15051TIP3    H266569   5.107   5.532   0.452  0.8116  0.8823  0.6274
15052TIP3   OH266570   1.499   0.033   5.755  0.6401  0.5188  0.6088
15052TIP3    H166571   1.499   0.020   5.850  0.4408 -2.3010  0.3089
15052TIP3    H266572   1.589   0.014   5.729  0.5817  0.8470  0.1604
15053TIP3   OH266573   1.629   0.972  15.856 -0.2550  0.4427  0.1781
15053TIP3    H166574   1.562   0.946  15.919 -0.2349 -1.0297 -0.3620
15053TIP3    H266575   1.711   0.965  15.904 -0.1317 -1.7044 -0.2255
15054TIP3   OH266576   3.548   2.252  14.845  0.0076 -0.0236 -0.5547
15054TIP3    H166577   3.630   2.245  14.895 -0.9017  0.6649  1.0927
15054TIP3    H266578   3.568   2.210  14.761  1.9652 -0.1048 -0.0963
15055TIP3   OH266579   0.706   1.837   4.308 -0.0223  0.1645 -0.1729
15055TIP3    H166580   0.683   1.829   4.401 -0.5394  0.5909 -0.2611
15055TIP3    H266581   0.632   1.883   4.269  0.1710 -0.0589 -0.8099
15056TIP3   OH266582   2.503   3.162  12.315  0.4560 -0.2964  0.7295
15056TIP3    H166583   2.575   3.220  12.290  1.0406 -0.6411  1.5801
15056TIP3    H266584   2.437   3.220  12.351  1.4222 -0.2178  2.4579
15057TIP3   OH266585   5.319   0.207   1.556  0.3262 -0.1695  0.2135
15057TIP3    H166586   5.238   0.258   1.560  1.5225  1.8280  0.3921
15057TIP3    H266587   5.297   0.133   1.499 -1.2184  1.1241 -1.0107
15058TIP3   OH266588   0.378   3.880  11.034 -0.1568 -0.3111 -0.4071
15058TIP3    H166589   0.339   3.940  10.971  1.5460  1.9911  0.5823
15058TIP3    H266590   0.457   3.848  10.992 -0.7187 -1.4077 -0.6722
15059TIP3   OH266591   0.566   0.069   4.582 -0.1066  0.3162  0.4874
15059TIP3    H166592   0.550   0.043   4.491  2.9494 -0.4280  0.0299
15059TIP3    H266593   0.603   0.157   4.575  0.4476  0.1267  0.9461
15060TIP3   OH266594   6.329   2.889  15.378 -0.2042 -0.0120 -0.2342
15060TIP3    H166595   6.283   2.920  15.457 -1.2492  1.2186 -1.2780
15060TIP3    H266596   6.413   2.933  15.380  0.4729 -1.2771  1.0236
15061TIP3   OH266597   4.042   2.147  15.812  0.4188 -0.0937  0.1697
15061TIP3    H166598   4.118   2.173  15.863  0.0529 -0.6892  1.0497
15061TIP3    H266599   4.065   2.061  15.777  0.9693  0.6271 -1.3408
15062TIP3   OH266600   1.453   4.488   0.741  0.0047  0.3949  0.1707
15062TIP3    H166601   1.388   4.470   0.809  1.0087 -0.4141  0.9489
15062TIP3    H266602   1.535   4.456   0.777  0.6132  0.1612 -1.3379
15063TIP3   OH266603   2.166   2.496  16.972  0.3490 -0.0327 -0.0760
15063TIP3    H166604   2.194   2.409  17.001 -1.4185 -0.6856 -0.2108
15063TIP3    H266605   2.237   2.526  16.915  0.8978 -1.4777 -0.2005
15064TIP3   OH266606   4.046   1.283   1.013 -1.0054  0.1793 -0.0038
15064TIP3    H166607   3.965   1.260   0.969 -1.2375  1.5031 -0.3196
15064TIP3    H266608   4.092   1.340   0.951 -0.9097  1.3077  1.0520
15065TIP3   OH266609   1.751   3.104   3.568  0.7233 -0.5898 -0.1639
15065TIP3    H166610   1.729   3.190   3.532 -0.5550 -0.6621  0.3881
15065TIP3    H266611   1.774   3.121   3.659  0.9484 -0.7817 -0.1831
15066TIP3   OH266612   1.955   6.514  15.369 -0.4727 -0.4175 -0.7583
15066TIP3    H166613   1.948   6.505  15.274  1.4835  1.9622 -1.2285
15066TIP3    H266614   1.900   6.589  15.390  0.1981 -0.0683 -0.2311
15067TIP3   OH266615   0.992   6.649   5.159  0.0675  0.6104  0.6840
15067TIP3    H166616   1.054   6.608   5.219 -1.0164 -0.3227  1.1947
15067TIP3    H266617   0.926   6.582   5.143  0.1493  0.9424 -1.3143
15068TIP3   OH266618   4.989   6.275   4.905 -0.0354  0.3683  0.1473
15068TIP3    H166619   4.976   6.296   4.997  1.4576  0.4321  0.3666
15068TIP3    H266620   4.916   6.217   4.883  0.3947 -0.8576  1.7806
15069TIP3   OH266621   0.651   1.637  10.825 -0.3818 -0.4585 -0.2272
15069TIP3    H166622   0.635   1.599  10.739  2.2700 -1.0312 -0.5515
15069TIP3    H266623   0.734   1.599  10.853  0.3032  1.9585  1.3034
15070TIP3   OH266624   0.876   3.344   3.936  0.1875  0.2725 -0.7495
15070TIP3    H166625   0.884   3.293   4.017 -0.0661 -0.6563 -1.2890
15070TIP3    H266626   0.877   3.278   3.866  0.3787  1.0562 -1.5032
15071TIP3   OH266627   1.126   2.032   5.337 -0.5506 -0.2246  0.0020
15071TIP3    H166628   1.071   1.955   5.341 -1.4572  0.4626  1.3032
15071TIP3    H266629   1.147   2.052   5.428  2.1109 -0.6112 -0.4315
15072TIP3   OH266630   5.110   6.315  15.189  0.1436 -0.0823 -0.3692
15072TIP3    H166631   5.092   6.381  15.256 -0.4963 -0.3212 -0.2968
15072TIP3    H266632   5.130   6.366  15.110  0.1318  0.1990 -0.1905
15073TIP3   OH266633   2.515   4.679   4.903  0.1754 -0.0299  0.1027
15073TIP3    H166634   2.483   4.768   4.891  1.1906  0.4987  1.1723
15073TIP3    H266635   2.459   4.626   4.846  0.4423  1.4419 -1.6082
15074TIP3   OH266636   1.938   6.084  13.733 -0.1095 -0.4425 -0.4532
15074TIP3    H166637   1.843   6.089  13.746 -0.0299 -0.5453  0.1783
15074TIP3    H266638   1.958   5.991  13.746  0.1274 -0.3611 -0.2405
15075TIP3   OH266639   5.175   1.324  15.142 -0.1785  0.0144  0.0945
15075TIP3    H166640   5.091   1.352  15.106 -0.6953 -0.4252  0.9089
15075TIP3    H266641   5.161   1.233  15.168 -0.1318  0.5527  2.1859
15076TIP3   OH266642   0.037   5.148  16.798  0.1857 -0.4403 -0.1883
15076TIP3    H166643  -0.035   5.202  16.830  0.1647 -0.8038  0.3823
15076TIP3    H266644   0.018   5.060  16.829  0.5018 -0.6751 -0.6518
15077TIP3   OH266645   2.578   4.292   1.085  0.3718 -0.5732 -0.2049
15077TIP3    H166646   2.583   4.225   1.153  1.5374  0.5000  0.8170
15077TIP3    H266647   2.668   4.322   1.074 -0.1527  1.0437 -0.3750
15078TIP3   OH266648   3.271   4.021   3.890 -0.0330 -0.0989  0.3453
15078TIP3    H166649   3.291   4.115   3.898 -2.2966  0.2735  3.1240
15078TIP3    H266650   3.204   4.016   3.822  2.1809 -0.2215 -2.0261
15079TIP3   OH266651   0.791   3.253   3.404 -0.4259 -0.7836  0.0666
15079TIP3    H166652   0.795   3.173   3.456 -0.8778 -0.9256 -0.1095
15079TIP3    H266653   0.881   3.286   3.403 -0.4287 -0.7232  1.0108
15080TIP3   OH266654   4.609   0.059  13.900  0.0598  0.2209  0.6292
15080TIP3    H166655   4.571   0.113  13.969 -2.9365 -0.7467 -0.0995
15080TIP3    H266656   4.597  -0.031  13.931 -0.2124 -0.1831 -0.5922
15081TIP3   OH266657   6.179   3.068  12.288 -0.0000  0.5564 -0.3088
15081TIP3    H166658   6.116   3.138  12.304 -0.0647  0.2675  0.7307
15081TIP3    H266659   6.257   3.114  12.256  0.3829  1.2548  1.5180
15082TIP3   OH266660   3.226   2.335   2.568  0.2332 -0.1087 -0.0334
15082TIP3    H166661   3.259   2.355   2.656 -2.3316 -0.1312  1.0199
15082TIP3    H266662   3.213   2.421   2.528 -3.2781  0.2552  1.5515
15083TIP3   OH266663   1.709   1.668  16.545 -0.2858  0.2261 -0.1243
15083TIP3    H166664   1.738   1.639  16.632 -1.0596  2.0544  0.7869
15083TIP3    H266665   1.786   1.711  16.507  0.8501 -2.6969 -1.4587
15084TIP3   OH266666   5.689   3.352  16.369 -0.3366  0.2282 -0.0901
15084TIP3    H166667   5.758   3.407  16.404 -0.4154  0.0438  0.3652
15084TIP3    H266668   5.721   3.323  16.283 -0.0442  0.4969 -0.0699
15085TIP3   OH266669   5.522   1.876  11.398  0.1497 -0.1386 -0.1606
15085TIP3    H166670   5.465   1.902  11.471  0.4497 -0.6348  0.2526
15085TIP3    H266671   5.467   1.888  11.320 -0.3429 -0.1016  0.1875
15086TIP3   OH266672   4.220   4.619  14.051 -0.1277 -0.3851  0.6235
15086TIP3    H166673   4.308   4.621  14.011 -0.2813 -0.5581  0.2697
15086TIP3    H266674   4.161   4.643  13.980 -0.4592 -1.2689  0.5868
15087TIP3   OH266675   1.853   1.290  12.142 -0.2447 -0.3557 -0.7235
15087TIP3    H166676   1.907   1.348  12.087 -1.4411  0.7790 -0.7376
15087TIP3    H266677   1.916   1.250  12.202  0.5770  1.3627 -0.3655
15088TIP3   OH266678   4.012   4.237  16.592 -0.0482  0.2598 -0.5680
15088TIP3    H166679   4.011   4.249  16.497 -0.0708  1.7437 -0.4125
15088TIP3    H266680   3.975   4.318  16.626 -2.2755 -1.1774  0.6676
15089TIP3   OH266681   3.939   3.316   0.611 -0.1636  0.4369  0.0164
15089TIP3    H166682   3.927   3.340   0.703 -0.6228  0.2521  0.0107
15089TIP3    H266683   4.027   3.346   0.590 -0.4216  1.4066  0.2279
15090TIP3   OH266684   6.613   4.405   0.680  0.4497 -0.2136 -0.4662
15090TIP3    H166685   6.671   4.445   0.745 -0.2485 -1.1986  0.8161
15090TIP3    H266686   6.634   4.449   0.598  3.1023 -0.6212 -0.0911
15091TIP3   OH266687   2.076   5.444   2.450  0.3394 -0.7985 -0.0467
15091TIP3    H166688   2.029   5.472   2.372 -0.8415 -0.8562  0.6077
15091TIP3    H266689   2.039   5.497   2.521  3.2151  1.1394  0.1423
15092TIP3   OH266690   5.639   0.926   6.194  0.2549 -0.0144  0.3865
15092TIP3    H166691   5.552   0.948   6.162  1.3463  0.2948 -2.6781
15092TIP3    H266692   5.633   0.833   6.217 -0.6303 -0.3075 -0.9097
15093TIP3   OH266693   2.339   5.491   4.276 -0.5025 -0.0789  0.3947
15093TIP3    H166694   2.309   5.530   4.359  1.4286 -1.6791  1.9607
15093TIP3    H266695   2.401   5.423   4.303 -0.3293 -1.1428 -2.3808
15094TIP3   OH266696   6.541   1.991   0.541 -0.4159  0.3381 -0.0028
15094TIP3    H166697   6.617   1.949   0.581  0.4668  0.6863 -1.2283
15094TIP3    H266698   6.497   2.035   0.613  0.5023  0.0493  0.7556
15095TIP3   OH266699   3.090   1.753   1.504 -0.4467 -0.0364 -0.0347
15095TIP3    H166700   3.092   1.729   1.412 -0.5426 -0.5462  0.0949
15095TIP3    H266701   3.038   1.833   1.507 -0.1481  0.1749 -0.4652
15096TIP3   OH266702   3.555   5.254   3.982  0.0072 -0.5031  0.2952
15096TIP3    H166703   3.482   5.301   4.022 -0.2023 -1.4888  1.1259
15096TIP3    H266704   3.518   5.168   3.960  0.1636 -0.0640 -1.8893
15097TIP3   OH266705   2.555   6.779   5.218  0.5163  0.2377 -0.5640
15097TIP3    H166706   2.610   6.768   5.296 -0.4565 -0.0038  0.1155
15097TIP3    H266707   2.465   6.770   5.251  0.0166  1.5343 -1.4766
15098TIP3   OH266708   5.645   2.877   2.181  0.5570  0.0497 -0.2588
15098TIP3    H166709   5.552   2.887   2.159 -0.0150  2.6462  2.6741
15098TIP3    H266710   5.648   2.801   2.238 -0.1120  0.9034  0.9619
15099TIP3   OH266711   2.260   6.066  16.532 -0.2729 -0.1791 -0.1333
15099TIP3    H166712   2.344   6.109  16.514  0.0118 -0.6185  0.1370
15099TIP3    H266713   2.195   6.136  16.521  0.2213  0.4497  0.7378
15100TIP3   OH266714   6.115   3.965   5.579  0.0836  0.3996  0.7514
15100TIP3    H166715   6.114   3.947   5.673  1.3563 -2.0297  0.3646
15100TIP3    H266716   6.107   3.880   5.537  0.2269  1.3485 -1.3626
15101TIP3   OH266717   0.522   0.711   4.212  1.1221  0.2207 -0.4809
15101TIP3    H166718   0.523   0.719   4.307  1.3657  0.8827 -0.5343
15101TIP3    H266719   0.486   0.624   4.195 -2.0940  1.3021  0.1440
15102TIP3   OH266720   1.666   4.870   0.856  0.3457  0.3064 -0.1349
15102TIP3    H166721   1.624   4.955   0.869 -1.3106 -0.5261  0.1401
15102TIP3    H266722   1.610   4.825   0.793  1.2838 -0.5391 -0.3856
15103TIP3   OH266723   5.035   3.536   3.388  0.1729 -0.0723 -0.3833
15103TIP3    H166724   5.116   3.503   3.426 -0.3456 -0.4761  0.4022
15103TIP3    H266725   4.996   3.588   3.458 -1.2412 -1.5592 -0.0012
15104TIP3   OH266726   1.093   2.995  13.222 -0.0898  0.2836  0.4696
15104TIP3    H166727   1.005   2.984  13.259  0.2643  0.2399  1.3144
15104TIP3    H266728   1.087   3.075  13.171 -1.0590 -0.5671 -0.8274
15105TIP3   OH266729   0.957   4.744   5.131 -0.0736  0.2599 -0.3824
15105TIP3    H166730   1.033   4.791   5.164  0.0255 -1.2921  1.8388
15105TIP3    H266731   0.886   4.809   5.132  0.5722  0.9720  0.3131
15106TIP3   OH266732   0.275   6.711   5.540 -0.4880  0.3390 -0.3718
15106TIP3    H166733   0.181   6.711   5.520 -0.5074 -0.4891 -0.3195
15106TIP3    H266734   0.316   6.667   5.466 -0.0664  1.2481 -0.6861
15107TIP3   OH266735   6.444   0.372   0.256 -0.5679  0.3380  0.8311
15107TIP3    H166736   6.516   0.415   0.209 -2.2572  0.4013 -1.9516
15107TIP3    H266737   6.390   0.443   0.289 -0.4997  0.2989  1.0295
15108TIP3   OH266738   4.049   4.234   3.837  0.0776  0.4815  0.3747
15108TIP3    H166739   4.113   4.270   3.898  0.1701  0.8385  0.0739
15108TIP3    H266740   3.965   4.244   3.881  0.2391 -0.0560  0.8025
15109TIP3   OH266741   2.750   6.469   6.262  0.3775  0.3609 -0.6874
15109TIP3    H166742   2.691   6.459   6.188 -0.8301  1.2802  0.1151
15109TIP3    H266743   2.796   6.552   6.245  1.0950 -0.1123 -1.0742
15110TIP3   OH266744   4.906   0.601   3.039 -0.3937 -0.2144 -0.2124
15110TIP3    H166745   4.939   0.513   3.022  0.0480  0.1202 -1.1486
15110TIP3    H266746   4.832   0.588   3.099 -0.0601 -1.1777 -0.0022
15111TIP3   OH266747   3.751   0.376  15.810 -0.2353  0.5031 -0.1104
15111TIP3    H166748   3.676   0.333  15.769 -1.0114 -1.2527  2.8528
15111TIP3    H266749   3.716   0.413  15.891  1.9622  0.2940  0.9924
15112TIP3   OH266750   2.233   2.837   4.579  0.1045 -0.3164 -0.1212
15112TIP3    H166751   2.296   2.779   4.621 -0.7137 -1.2619 -0.1673
15112TIP3    H266752   2.216   2.906   4.643  1.0803 -0.1217 -0.0660
15113TIP3   OH266753   2.580   2.389  16.938 -0.1142 -0.3631  0.7700
15113TIP3    H166754   2.616   2.311  16.895 -1.8982 -1.9718  2.0709
15113TIP3    H266755   2.567   2.452  16.867  0.3943 -1.6252 -0.4747
15114TIP3   OH266756   3.179   1.340  12.200  0.4601 -0.4533 -0.2940
15114TIP3    H166757   3.246   1.407  12.213 -0.7914  1.1083 -1.4626
15114TIP3    H266758   3.203   1.270  12.260  3.2627 -0.0735 -0.8199
15115TIP3   OH266759   1.809   1.331   1.018 -0.0199 -0.3037 -0.1619
15115TIP3    H166760   1.834   1.418   1.048  1.3606 -0.1715 -1.5637
15115TIP3    H266761   1.833   1.273   1.090  0.3686  0.3147  0.2162
15116TIP3   OH266762   0.202   0.214   6.477 -0.0928  0.2192  0.6055
15116TIP3    H166763   0.292   0.191   6.499 -0.2616 -0.3975  0.6562
15116TIP3    H266764   0.210   0.295   6.427  0.6666 -0.9273 -1.2380
15117TIP3   OH266765   1.159   6.068  14.878  0.1566 -0.1571 -0.0649
15117TIP3    H166766   1.251   6.061  14.902  1.1416  0.9490 -3.0013
15117TIP3    H266767   1.151   6.018  14.796 -1.8711 -0.2494  0.1179
15118TIP3   OH266768   0.179   0.985  14.037  0.5062  0.0708  0.0310
15118TIP3    H166769   0.208   1.073  14.060  0.0496  0.7232 -1.6703
15118TIP3    H266770   0.257   0.943  14.000  0.3649  0.3145 -0.5613
15119TIP3   OH266771   3.016   1.992  11.652  0.8041  0.8682  0.1417
15119TIP3    H166772   3.092   1.949  11.690  0.0422  0.8980  1.7903
15119TIP3    H266773   2.944   1.970  11.711 -0.1722  2.0604 -0.5517
15120TIP3   OH266774   6.423   5.382   1.869  0.3627  0.1843  0.0244
15120TIP3    H166775   6.340   5.377   1.821  0.7417  2.2569 -0.9580
15120TIP3    H266776   6.470   5.302   1.844 -0.7029 -0.2522 -0.6471
15121TIP3   OH266777   5.586   6.407   5.783  0.4771  0.0475 -0.2298
15121TIP3    H166778   5.641   6.434   5.856  3.3463  0.2717 -2.2638
15121TIP3    H266779   5.544   6.488   5.753  2.0599  0.6561 -0.9056
15122TIP3   OH266780   1.441   1.718   0.940 -0.0588 -0.2695 -0.0597
15122TIP3    H166781   1.475   1.629   0.930  0.7648 -0.2519  1.9876
15122TIP3    H266782   1.448   1.735   1.034  0.8049  2.3542 -0.5353
15123TIP3   OH266783   4.914   2.357  11.415  0.1476 -0.1309 -0.8898
15123TIP3    H166784   4.984   2.368  11.350 -0.2996  0.5692 -1.2776
15123TIP3    H266785   4.897   2.446  11.446  0.3417 -0.4587  0.1832
15124TIP3   OH266786   5.077   4.085  13.547  0.2304 -0.1832  0.2875
15124TIP3    H166787   5.057   4.151  13.613 -0.2207 -0.7083  0.6826
15124TIP3    H266788   5.068   4.002  13.593 -0.0957 -0.5583 -0.4366
15125TIP3   OH266789   3.866   5.914   3.083  0.2299  0.3058 -0.3459
15125TIP3    H166790   3.958   5.888   3.091  0.5750  1.7117  0.6333
15125TIP3    H266791   3.865   6.008   3.105 -1.5550  0.1365  0.4931
15126TIP3   OH266792   2.144   6.753   1.908 -0.4759  0.1847  0.3078
15126TIP3    H166793   2.130   6.662   1.933 -0.4955 -0.0907 -0.6443
15126TIP3    H266794   2.080   6.769   1.839 -1.1746  1.2459  1.1627
15127TIP3   OH266795   2.069   1.999   1.314  0.2834 -0.0054  0.2210
15127TIP3    H166796   2.014   2.048   1.376  0.4383  0.2644  0.1434
15127TIP3    H266797   2.062   2.047   1.232  1.7657  0.8473  0.5660
15128TIP3   OH266798   5.660   0.446   0.524  0.4111 -0.7206  0.7588
15128TIP3    H166799   5.592   0.450   0.456 -1.1677 -1.8513  2.1753
15128TIP3    H266800   5.665   0.535   0.557 -0.2069 -0.5654  0.4576
15129TIP3   OH266801   4.456   6.486  10.930  0.3007  0.2002 -0.7133
15129TIP3    H166802   4.484   6.517  10.844  0.9435  1.6855 -0.0037
15129TIP3    H266803   4.530   6.433  10.962  1.1900  1.7715 -0.0379
15130TIP3   OH266804   2.075   2.931  14.146 -0.0383  1.0715  0.0248
15130TIP3    H166805   2.154   2.913  14.094  0.4168  2.0677  0.3496
15130TIP3    H266806   2.003   2.925  14.082 -0.2261 -3.4728  0.3465
15131TIP3   OH266807   4.600   0.688   0.945  0.4420  0.3613 -0.2294
15131TIP3    H166808   4.684   0.647   0.967  0.7902  1.7589  1.2638
15131TIP3    H266809   4.534   0.623   0.969  0.9016  1.0763  3.6219
15132TIP3   OH266810   6.780   0.391   3.653  0.1211 -0.0588 -0.0391
15132TIP3    H166811   6.712   0.394   3.720  0.2687 -0.6063  0.1381
15132TIP3    H266812   6.818   0.304   3.661 -0.7770 -0.6403 -1.7694
15133TIP3   OH266813   0.562   2.076   0.405  0.1975 -0.1839 -0.2023
15133TIP3    H166814   0.616   2.133   0.459  0.2218 -1.0088  0.6805
15133TIP3    H266815   0.490   2.050   0.463  0.1334 -0.9604 -0.6162
15134TIP3   OH266816   1.414   0.881  12.076 -0.5127  0.5067 -0.0958
15134TIP3    H166817   1.343   0.909  12.135  0.0584  0.8472  0.4455
15134TIP3    H266818   1.402   0.935  11.997 -0.7826  0.6521  0.0412
15135TIP3   OH266819   1.828   3.131  15.745 -0.3107 -0.0887  0.4420
15135TIP3    H166820   1.767   3.172  15.683  1.3493 -0.3887 -1.4668
15135TIP3    H266821   1.773   3.070  15.795 -1.4722 -1.0950 -1.8906
15136TIP3   OH266822   1.355   4.554  13.520  0.0885  0.5750  0.5370
15136TIP3    H166823   1.414   4.573  13.447 -0.5945  1.3713  0.1851
15136TIP3    H266824   1.269   4.541  13.479 -0.3725  1.3693  1.2183
15137TIP3   OH266825   6.004   5.120   1.404 -0.2023 -0.3335 -0.4983
15137TIP3    H166826   6.081   5.097   1.351 -0.3529  0.6863 -1.1915
15137TIP3    H266827   6.038   5.128   1.493  0.4283 -0.2167 -0.7445
15138TIP3   OH266828   3.999   0.113   5.583 -0.2114  0.6054 -0.0022
15138TIP3    H166829   3.972   0.037   5.530  0.7665  0.8502 -0.8659
15138TIP3    H266830   4.094   0.112   5.580 -0.1971  2.3729 -0.7354
15139TIP3   OH266831   2.937   5.182  14.018  1.0726 -0.1523  0.8324
15139TIP3    H166832   2.943   5.132  14.099  1.2243 -1.3687  0.0944
15139TIP3    H266833   2.902   5.120  13.954  0.0516  1.0450  0.1773
15140TIP3   OH266834   3.163   6.611  13.934 -0.0491  0.2922  0.1500
15140TIP3    H166835   3.137   6.568  14.015 -0.3933  0.1274 -0.0456
15140TIP3    H266836   3.167   6.704  13.955  0.6608  0.1725  0.5669
15141TIP3   OH266837   6.211   2.964  13.129 -0.6374 -0.1393 -0.0021
15141TIP3    H166838   6.260   2.964  13.211 -0.5890  1.3719 -0.0103
15141TIP3    H266839   6.125   2.927  13.152 -0.1149 -1.1521  0.3801
15142TIP3   OH266840   2.741   2.722  16.744  0.8388 -0.0981  0.3484
15142TIP3    H166841   2.741   2.812  16.710  1.1524 -1.0500 -2.4109
15142TIP3    H266842   2.697   2.729  16.829 -2.1986  2.1486 -1.1956
15143TIP3   OH266843   6.304   4.776  15.928 -0.4908  0.7431 -0.3027
15143TIP3    H166844   6.304   4.811  15.838 -1.4435  0.7417 -0.3160
15143TIP3    H266845   6.241   4.704  15.925 -1.0130  1.1574  0.5236
15144TIP3   OH266846   0.996   3.220  16.493 -0.3146 -0.0648  0.2429
15144TIP3    H166847   1.003   3.256  16.581  0.6638 -0.7041  0.4378
15144TIP3    H266848   1.039   3.134  16.498  0.1413  0.0725 -0.9535
15145TIP3   OH266849   1.334   6.638  13.470 -0.1559 -0.3265  0.2824
15145TIP3    H166850   1.246   6.655  13.436 -0.5070 -0.3574  1.1480
15145TIP3    H266851   1.390   6.698  13.421 -0.2967 -1.8318 -1.8697
15146TIP3   OH266852   5.903   6.763   5.474  0.0471  0.0460  0.0447
15146TIP3    H166853   5.852   6.700   5.423 -0.5238  1.7077 -1.5499
15146TIP3    H266854   5.838   6.814   5.522  0.1659  1.7062 -1.4435
15147TIP3   OH266855   3.442   3.888   1.958  0.4878  0.0328 -0.7017
15147TIP3    H166856   3.434   3.890   1.863  1.8025  0.0552 -0.8254
15147TIP3    H266857   3.473   3.800   1.978  0.3825  0.0840 -0.3035
15148TIP3   OH266858   2.627   3.250  16.037 -0.0289 -0.1675 -0.3290
15148TIP3    H166859   2.594   3.319  16.093  0.2999 -1.6366  1.7936
15148TIP3    H266860   2.555   3.186  16.032  0.8649 -1.2896  0.6490
15149TIP3   OH266861   4.990   0.816   3.357  0.1618  0.2003 -0.0886
15149TIP3    H166862   5.075   0.821   3.314 -0.1802  0.1670 -0.7858
15149TIP3    H266863   4.998   0.874   3.434  0.9346 -0.1240  0.0795
15150TIP3   OH266864   5.691   6.500  13.836 -0.0994 -0.0607 -0.3182
15150TIP3    H166865   5.632   6.559  13.790  1.2504  1.0105 -0.7449
15150TIP3    H266866   5.759   6.557  13.873 -0.3623 -1.0237  1.8559
15151TIP3   OH266867   5.841   3.475   1.554 -0.4633  0.6546  0.0570
15151TIP3    H166868   5.832   3.491   1.648  0.2584 -2.6751  0.8495
15151TIP3    H266869   5.764   3.422   1.532  0.3591 -0.2662 -0.7069
15152TIP3   OH266870   1.496   3.437   2.985 -0.0461 -0.0694  0.3627
15152TIP3    H166871   1.453   3.515   3.022  2.8527  1.0312  1.6807
15152TIP3    H266872   1.504   3.456   2.892 -1.4433  0.1210  0.2516
15153TIP3   OH266873   6.421   3.904   1.166  0.0075 -0.8736  0.2492
15153TIP3    H166874   6.361   3.928   1.236  0.5962  0.0136  0.4545
15153TIP3    H266875   6.480   3.979   1.157 -0.7854 -0.4375 -1.9852
15154TIP3   OH266876   1.757   2.886  10.620  0.4936 -0.9910 -0.1170
15154TIP3    H166877   1.677   2.935  10.598  0.2201 -1.2474  0.2905
15154TIP3    H266878   1.725   2.809  10.667  1.0657 -0.3246  1.4371
15155TIP3   OH266879   4.438   5.974  15.892 -0.2653  0.3054  0.2353
15155TIP3    H166880   4.531   5.958  15.907  0.4663  2.1933 -1.7183
15155TIP3    H266881   4.405   6.006  15.976  1.0228  0.3215  0.7633
15156TIP3   OH266882   2.595   1.754   1.668  0.6401  0.3959 -0.7838
15156TIP3    H166883   2.572   1.777   1.577  2.3357  0.0118 -1.3328
15156TIP3    H266884   2.663   1.688   1.660  0.3429 -0.1406  0.7966
15157TIP3   OH266885   4.558   2.077   1.471 -0.3530  0.2145 -0.9477
15157TIP3    H166886   4.525   2.038   1.551  0.1626  0.2519 -0.7113
15157TIP3    H266887   4.500   2.044   1.402 -0.4723 -0.2399 -0.6316
15158TIP3   OH266888   5.036   3.586   6.325  0.4099 -0.0884  0.0729
15158TIP3    H166889   5.016   3.550   6.412  0.8903 -0.5261  0.0039
15158TIP3    H266890   5.051   3.510   6.270 -3.1836 -0.0279 -1.2833
15159TIP3   OH266891   1.546   2.678  16.541  0.8768 -0.0081 -0.0073
15159TIP3    H166892   1.477   2.647  16.600  2.0916  0.1315  1.5751
15159TIP3    H266893   1.627   2.647  16.582  1.7780 -4.6538 -4.2619
15160TIP3   OH266894   5.074   6.613  10.800  0.2564  0.3332  0.1750
15160TIP3    H166895   5.047   6.574  10.717  1.6484  1.6333 -0.9456
15160TIP3    H266896   5.155   6.658  10.780  1.0941 -0.0081  2.4623
15161TIP3   OH266897   2.441   1.540   2.985 -0.3796 -0.7107  0.3300
15161TIP3    H166898   2.490   1.622   2.996  0.3497 -1.1186  0.2037
15161TIP3    H266899   2.371   1.562   2.923  1.0707 -0.6677 -1.3821
15162TIP3   OH266900   3.296   4.128  12.899  1.0323 -0.1384 -0.1592
15162TIP3    H166901   3.277   4.098  12.988 -0.3858  0.0186 -0.3922
15162TIP3    H266902   3.228   4.193  12.880  1.2512 -0.2413 -1.3936
15163TIP3   OH266903   5.168   5.942  15.081 -0.1514  0.2975 -0.1878
15163TIP3    H166904   5.178   5.987  14.997  0.4760 -2.0250 -1.4386
15163TIP3    H266905   5.204   5.855  15.066  1.4263  0.2865  2.9724
15164TIP3   OH266906   6.114   0.162  15.527  0.1034  0.8925 -0.1432
15164TIP3    H166907   6.051   0.115  15.472  0.3980 -0.2926  0.5099
15164TIP3    H266908   6.077   0.157  15.615  2.2959 -2.1021  0.7326
15165TIP3   OH266909   2.267   5.433  16.470 -0.3676  0.2785  0.1137
15165TIP3    H166910   2.255   5.510  16.526 -1.2120  1.2191 -1.3054
15165TIP3    H266911   2.362   5.429  16.457 -0.0626 -0.4283  2.1966
15166TIP3   OH266912   0.848   6.319  10.923 -0.0529 -0.2915 -0.3973
15166TIP3    H166913   0.895   6.394  10.886  0.1543 -0.6404 -0.8615
15166TIP3    H266914   0.889   6.243  10.881 -0.0399 -0.6810  0.3153
15167TIP3   OH266915   3.073   6.782   1.626  0.1464 -0.3472  0.3873
15167TIP3    H166916   3.040   6.851   1.683  0.4139  0.5672 -0.5295
15167TIP3    H266917   2.998   6.724   1.613  0.3351 -1.1052  2.3890
15168TIP3   OH266918   6.053   2.764   6.238  0.0755 -0.5482 -0.0677
15168TIP3    H166919   5.998   2.752   6.160  0.2229  1.4616 -0.5406
15168TIP3    H266920   6.098   2.847   6.223  1.6907 -1.1264  1.2511
15169TIP3   OH266921   5.824   3.803   3.801 -0.5451  0.3918  0.0203
15169TIP3    H166922   5.770   3.732   3.834  0.0249 -0.1152 -0.1234
15169TIP3    H266923   5.841   3.780   3.710  1.1878 -0.2730  0.4591
15170TIP3   OH266924   4.033   1.274   2.418  0.0543 -0.0228  0.1788
15170TIP3    H166925   4.099   1.250   2.482 -0.4938 -1.4111  0.2488
15170TIP3    H266926   3.963   1.209   2.429 -1.7444  1.8891  0.6967
15171TIP3   OH266927   3.500   1.444  15.576  0.1655  0.1280 -0.2491
15171TIP3    H166928   3.476   1.375  15.637 -0.6588  1.3897  0.9079
15171TIP3    H266929   3.419   1.492  15.560  0.7924  1.0635 -0.7162
15172TIP3   OH266930   5.018   5.567  13.297 -0.6922  0.4880 -0.0054
15172TIP3    H166931   5.064   5.484  13.281  0.2072  0.9199  0.2349
15172TIP3    H266932   5.086   5.634  13.286 -1.5164  1.2312 -0.6782
15173TIP3   OH266933   1.326   1.491   3.220  0.1872  0.1688  0.1931
15173TIP3    H166934   1.249   1.537   3.186 -0.2134  0.3093  1.2453
15173TIP3    H266935   1.388   1.561   3.242 -0.2168  0.2015  1.3003
15174TIP3   OH266936   0.236   4.146   4.349  0.1944 -0.1183  0.0789
15174TIP3    H166937   0.268   4.103   4.428  0.1357 -0.4904 -0.0981
15174TIP3    H266938   0.140   4.146   4.359  0.2107  0.4193  0.3079
15175TIP3   OH266939   0.493   6.445  14.263  0.5146 -0.4136 -0.1646
15175TIP3    H166940   0.517   6.481  14.348  0.5701 -0.7476 -0.0370
15175TIP3    H266941   0.565   6.386  14.241 -0.2243 -1.5183  0.2723
15176TIP3   OH266942   5.078   1.081  13.581 -0.2249 -0.6492 -0.7862
15176TIP3    H166943   5.083   1.038  13.667 -0.5857  1.5604  0.4033
15176TIP3    H266944   5.113   1.016  13.520 -0.7596 -2.6291  0.8812
15177TIP3   OH266945   4.954   6.353   5.158  0.5021 -0.5296  0.2654
15177TIP3    H166946   4.997   6.282   5.205 -0.5646 -1.9052 -0.7354
15177TIP3    H266947   4.915   6.408   5.226  1.4672 -0.8037  1.0607
15178TIP3   OH266948   5.764   6.765   5.183 -0.3652  0.3964 -0.3319
15178TIP3    H166949   5.826   6.813   5.238 -0.6005  0.8149 -0.4228
15178TIP3    H266950   5.797   6.675   5.182  0.3440  0.6498 -0.5269
15179TIP3   OH266951   2.729   4.386  16.212 -0.5945 -0.9070 -0.4800
15179TIP3    H166952   2.689   4.331  16.145  1.9297 -1.5539 -1.5372
15179TIP3    H266953   2.698   4.474  16.192 -2.0620 -1.4548 -0.7578
15180TIP3   OH266954   5.132   1.455  16.664 -0.0216  0.1151  0.5675
15180TIP3    H166955   5.222   1.436  16.689 -0.3373 -2.3771  0.0715
15180TIP3    H266956   5.120   1.412  16.579 -2.1356 -1.1466  1.4153
15181TIP3   OH266957   1.247   6.315  15.093 -0.1123 -0.0100  0.4851
15181TIP3    H166958   1.185   6.336  15.163 -0.1750  0.3254  0.3334
15181TIP3    H266959   1.273   6.225  15.110  0.5232  0.3345  1.4400
15182TIP3   OH266960   4.098   5.228   0.784 -0.5384 -0.1560 -0.7665
15182TIP3    H166961   4.095   5.226   0.688 -1.2130  1.0654 -0.7947
15182TIP3    H266962   4.046   5.305   0.808  0.9386  0.4898  0.5222
15183TIP3   OH266963   3.652   3.326  10.787 -0.3163 -1.0979  0.6304
15183TIP3    H166964   3.671   3.416  10.763  0.7094 -1.4088  0.2075
15183TIP3    H266965   3.634   3.282  10.703  3.0435 -2.1363  0.3156
15184TIP3   OH266966   5.787   0.030  12.682  0.2389  0.3809  0.9535
15184TIP3    H166967   5.734   0.014  12.604 -0.2626  0.7903  1.2004
15184TIP3    H266968   5.843  -0.047  12.691  1.3849  0.9673 -0.6742
15185TIP3   OH266969   0.939   1.989   6.139  0.3009  0.1663 -0.2245
15185TIP3    H166970   0.961   2.077   6.171  1.2605 -1.0696  2.9295
15185TIP3    H266971   1.015   1.936   6.162 -0.7290 -1.7310 -1.0106
15186TIP3   OH266972   4.769   1.332   2.909 -0.0908  0.2764 -0.7688
15186TIP3    H166973   4.749   1.349   2.817 -0.7225  0.9498 -0.5135
15186TIP3    H266974   4.688   1.349   2.956 -0.7265 -3.1187 -0.3868
15187TIP3   OH266975   2.691   1.808  13.724 -0.0714  0.5723  0.0226
15187TIP3    H166976   2.626   1.810  13.653 -0.7628  0.1689  0.6309
15187TIP3    H266977   2.640   1.823  13.803  0.7586  1.5134  0.4115
15188TIP3   OH266978   1.772   6.783  15.996  0.4280  0.3263 -0.5060
15188TIP3    H166979   1.859   6.763  16.030  0.1277  1.4827  1.0548
15188TIP3    H266980   1.787   6.853  15.933  0.8199 -0.7940 -1.6932
15189TIP3   OH266981   5.672   2.595   5.264  0.0181 -0.4297 -0.4692
15189TIP3    H166982   5.687   2.689   5.272  0.5782 -0.6096  0.9025
15189TIP3    H266983   5.695   2.574   5.173  2.1854  0.3690 -0.1539
15190TIP3   OH266984   1.996   6.069  10.786  1.0938 -0.2569  0.6297
15190TIP3    H166985   1.959   6.074  10.697 -0.2185 -1.3348  1.0852
15190TIP3    H266986   2.060   6.141  10.789  1.1846 -0.2108 -1.1855
15191TIP3   OH266987   2.600   1.866  12.743  1.0684  0.4188 -0.5949
15191TIP3    H166988   2.603   1.842  12.651 -2.0353 -0.5889 -0.5385
15191TIP3    H266989   2.555   1.951  12.745  0.0814 -0.1070  0.0493
15192TIP3   OH266990   4.694   1.464  12.553 -0.1949  0.4080  0.0401
15192TIP3    H166991   4.677   1.408  12.628  1.1581 -0.2935 -0.1473
15192TIP3    H266992   4.635   1.433  12.485  0.7004 -0.9909 -0.1412
15193TIP3   OH266993   4.218   3.144  13.541  0.2922  0.2789  0.1526
15193TIP3    H166994   4.206   3.081  13.469 -0.3699  0.2134  0.3114
15193TIP3    H266995   4.131   3.151  13.581  0.7973 -0.1909  1.3660
15194TIP3   OH266996   1.321   0.784  16.261  0.4757 -0.7358  0.0060
15194TIP3    H166997   1.282   0.825  16.338  2.7781  0.9116  0.3978
15194TIP3    H266998   1.327   0.691  16.284 -0.5940 -0.5663  1.0434
15195TIP3   OH266999   3.144   0.513   4.272 -0.3575  0.2788 -0.2003
15195TIP3    H167000   3.197   0.478   4.344  0.0131  0.3759 -0.4202
15195TIP3    H267001   3.205   0.516   4.198 -0.8873 -0.3498 -0.6663
15196TIP3   OH267002   5.944   6.593  15.988  0.5127  0.1322  0.2766
15196TIP3    H167003   6.025   6.606  15.939 -0.0118  2.8566 -0.0197
15196TIP3    H267004   5.881   6.652  15.947 -0.3598  1.4514  3.2148
15197TIP3   OH267005   0.297   5.830   5.051  0.2198  0.0338  0.1752
15197TIP3    H167006   0.382   5.841   5.008  0.1865 -2.2382 -0.6433
15197TIP3    H267007   0.238   5.804   4.981 -0.2669 -1.9477  1.2289
15198TIP3   OH267008   4.898   5.387  11.256 -0.2282 -0.7506  0.4470
15198TIP3    H167009   4.835   5.412  11.189 -2.1990 -1.3437  1.9959
15198TIP3    H267010   4.959   5.461  11.260 -0.6860 -0.2323 -1.2098
15199TIP3   OH267011   6.663   6.599  13.618  0.3896  0.5666 -0.0890
15199TIP3    H167012   6.604   6.576  13.547  0.8737 -0.8557 -0.0571
15199TIP3    H267013   6.606   6.638  13.685 -0.4987 -0.5854 -0.1465
15200TIP3   OH267014   6.027   2.930  10.868  0.2291  0.5130 -0.0502
15200TIP3    H167015   6.003   2.970  10.951  1.9207  0.8795  0.2946
15200TIP3    H267016   5.952   2.947  10.811 -1.0435  0.0900  1.4174
15201TIP3   OH267017   0.587   0.797  15.413 -0.0618  0.2824  0.2060
15201TIP3    H167018   0.620   0.774  15.327 -1.0832 -0.1095 -0.0944
15201TIP3    H267019   0.639   0.874  15.438  1.7387 -0.8611  0.2011
15202TIP3   OH267020   4.411   5.440  15.979  0.5522  0.0270 -0.2141
15202TIP3    H167021   4.435   5.353  15.947 -0.8682 -0.5869  0.2874
15202TIP3    H267022   4.470   5.500  15.934  0.7468 -1.0993 -1.5052
15203TIP3   OH267023   4.138   3.959  12.295  0.3925 -0.1582 -0.0348
15203TIP3    H167024   4.218   3.910  12.317  0.7832  0.5873  0.2199
15203TIP3    H267025   4.104   3.915  12.218  0.1724 -1.4868  0.7811
15204TIP3   OH267026   1.119   3.414  15.589  0.2599 -0.3068 -0.3845
15204TIP3    H167027   1.168   3.471  15.529  0.2001  0.0420 -0.1043
15204TIP3    H267028   1.165   3.330  15.583  0.0278 -0.3909 -1.2001
15205TIP3   OH267029   4.654   5.492   5.708  0.0950 -0.5306 -0.1436
15205TIP3    H167030   4.651   5.500   5.612 -1.5513 -0.9792 -0.1571
15205TIP3    H267031   4.566   5.516   5.737  0.6162 -0.2531  1.2898
15206TIP3   OH267032   6.292   1.353   2.047 -0.5315  0.4050 -0.1569
15206TIP3    H167033   6.199   1.331   2.043 -0.2584 -0.6445 -1.2509
15206TIP3    H267034   6.302   1.427   1.987 -0.5008 -0.0745 -0.7422
15207TIP3   OH267035   1.319   1.471  11.640  0.2629  0.4975  0.0007
15207TIP3    H167036   1.236   1.434  11.609 -1.9829  3.2211  2.2446
15207TIP3    H267037   1.341   1.538  11.575  1.9392 -1.4480 -1.6333
15208TIP3   OH267038   2.729   0.781   3.641  0.0892 -0.2413 -0.7370
15208TIP3    H167039   2.640   0.755   3.666  0.1674  1.6414  1.8008
15208TIP3    H267040   2.757   0.842   3.709  3.2262 -0.4766 -1.6625
15209TIP3   OH267041   1.988   3.954   1.076 -0.4480 -0.1848  0.1396
15209TIP3    H167042   2.019   3.928   1.163 -0.5577 -0.1638  0.1858
15209TIP3    H267043   2.019   3.886   1.018  1.9555  1.1314 -0.2516
15210TIP3   OH267044   1.538   4.724   0.641 -0.6520  0.7267  0.9300
15210TIP3    H167045   1.535   4.674   0.560  0.8143  0.1115  1.2037
15210TIP3    H267046   1.497   4.667   0.706  0.2987  0.1781  1.0761
15211TIP3   OH267047   1.056   1.285  15.579 -0.1327  0.2211  0.1754
15211TIP3    H167048   1.096   1.297  15.665 -2.0471  0.4643  1.0632
15211TIP3    H267049   0.964   1.305  15.592 -0.3293  1.0611 -2.1288
15212TIP3   OH267050   2.830   3.143  15.108 -0.4349  0.1857 -0.2005
15212TIP3    H167051   2.810   3.226  15.149  0.3461  1.2719 -1.9052
15212TIP3    H267052   2.911   3.114  15.149 -0.2369  0.7121 -0.2191
15213TIP3   OH267053   0.112   5.053  11.784 -0.7702 -0.3440  0.0648
15213TIP3    H167054   0.150   4.976  11.740 -0.8679 -0.3150 -0.0694
15213TIP3    H267055   0.104   5.119  11.715 -0.7907 -0.2505  0.1559
15214TIP3   OH267056   2.804   4.736  13.536  0.3469 -0.2440 -0.4126
15214TIP3    H167057   2.875   4.673  13.526  0.3741 -0.1764 -0.6476
15214TIP3    H267058   2.790   4.742  13.631  1.3839  0.5495 -0.2915
15215TIP3   OH267059   6.330   5.335   3.053  0.0944 -0.1840  1.1402
15215TIP3    H167060   6.354   5.417   3.010 -2.5475  0.5267  0.8651
15215TIP3    H267061   6.323   5.358   3.146  1.0652 -0.5533  1.3169
15216TIP3   OH267062   6.642   5.838   3.605 -0.4933  0.7013 -0.0010
15216TIP3    H167063   6.558   5.849   3.562 -0.1457  0.5478 -0.7447
15216TIP3    H267064   6.704   5.825   3.533  0.2913  1.5768  0.4829
15217TIP3   OH267065   0.163   4.718  15.049  0.0224 -0.2956  0.3628
15217TIP3    H167066   0.218   4.751  14.978 -0.9415 -2.2458 -1.4122
15217TIP3    H267067   0.099   4.787  15.065 -1.4108 -0.7921 -2.6219
15218TIP3   OH267068   4.745   0.387  10.288 -1.1548 -0.2742 -0.6741
15218TIP3    H167069   4.699   0.375  10.371 -0.5105  1.6253  0.0281
15218TIP3    H267070   4.714   0.472  10.256 -0.8759 -0.6663 -2.0335
15219TIP3   OH267071   5.482   6.123   0.892  0.1208  0.1046  0.6763
15219TIP3    H167072   5.475   6.211   0.855 -0.3853 -0.0887  0.2944
15219TIP3    H267073   5.413   6.120   0.959  0.8244  0.3471  1.4178
15220TIP3   OH267074   6.549   2.609   4.854 -0.2464 -0.0780 -0.7453
15220TIP3    H167075   6.499   2.580   4.931  1.5917  1.2070  1.0443
15220TIP3    H267076   6.622   2.547   4.849  0.3627  0.6172 -0.6205
15221TIP3   OH267077   4.716   4.211   0.163  0.5270 -0.1444  0.2694
15221TIP3    H167078   4.760   4.249   0.239 -1.7345 -0.1061  1.6462
15221TIP3    H267079   4.626   4.196   0.193 -0.1609 -1.0922 -2.0980
15222TIP3   OH267080   5.869   5.979   0.571  0.2073  0.2312 -0.7246
15222TIP3    H167081   5.957   6.000   0.539  0.7867  0.0779  0.6723
15222TIP3    H267082   5.873   5.996   0.665 -1.3606  0.5197 -0.6788
15223TIP3   OH267083   5.905   5.450  12.178 -0.1461 -0.5670 -0.4346
15223TIP3    H167084   5.819   5.408  12.167 -0.5116  0.0090  0.0934
15223TIP3    H267085   5.886   5.544  12.172  0.5419 -0.4548 -0.8731
15224TIP3   OH267086   0.628   0.548   3.843 -0.1001 -0.4955 -0.2449
15224TIP3    H167087   0.572   0.474   3.869 -2.5030  1.5958  0.9770
15224TIP3    H267088   0.571   0.624   3.849  2.3509  1.5487 -1.1646
15225TIP3   OH267089   1.922   1.184  10.350  0.6550 -0.4943  0.6457
15225TIP3    H167090   1.999   1.161  10.298  0.8902  1.9733 -0.2333
15225TIP3    H267091   1.949   1.171  10.441  2.6778  1.6574  0.4410
15226TIP3   OH267092   2.469   1.063   2.363 -0.5131  0.1482 -0.0622
15226TIP3    H167093   2.555   1.021   2.364 -0.9274 -0.7436 -0.6535
15226TIP3    H267094   2.486   1.152   2.331  0.0704 -0.3325 -1.1500
15227TIP3   OH267095   2.824   2.713  14.026 -0.1552  0.5284  0.0363
15227TIP3    H167096   2.904   2.749  13.987 -1.0317 -0.1455 -2.6041
15227TIP3    H267097   2.756   2.777  14.004 -0.8556 -0.3557 -0.4117
15228TIP3   OH267098   0.369   2.302  15.815  0.2271 -0.1060  0.1016
15228TIP3    H167099   0.454   2.277  15.779  0.0649 -1.4471  0.5893
15228TIP3    H267100   0.363   2.254  15.897 -1.1075 -0.2290 -0.0479
15229TIP3   OH267101   2.507   5.133  13.643  0.2543 -0.0254  0.1244
15229TIP3    H167102   2.520   5.039  13.651 -0.1028 -0.0978 -0.1025
15229TIP3    H267103   2.579   5.172  13.692 -0.2229 -0.4190  1.1581
15230TIP3   OH267104   2.660   1.625  10.742  0.4718 -0.1360  0.1945
15230TIP3    H167105   2.754   1.607  10.750  0.1401 -2.8287 -1.1132
15230TIP3    H267106   2.654   1.693  10.675  1.4181 -1.6787 -1.5236
15231TIP3   OH267107   6.556   5.682  13.166 -0.5018 -0.2892 -0.4405
15231TIP3    H167108   6.629   5.693  13.228  0.7543  2.5263 -2.2134
15231TIP3    H267109   6.478   5.705  13.216  0.3045  0.4933  0.4902
15232TIP3   OH267110   0.581   2.039  15.893  0.3665  0.0714 -0.6673
15232TIP3    H167111   0.531   1.961  15.871  0.4215 -0.4690  1.0446
15232TIP3    H267112   0.563   2.055  15.985  1.7038  1.0907 -0.5468
15233TIP3   OH267113   3.081   4.668   2.472  0.1091 -0.7384  0.2441
15233TIP3    H167114   3.052   4.726   2.543 -0.8634 -1.2607  0.2856
15233TIP3    H267115   3.102   4.728   2.400  1.1896 -0.1983  0.9871
15234TIP3   OH267116   6.021   1.097   0.506  0.2328  0.2297  0.0723
15234TIP3    H167117   6.116   1.104   0.495  0.4308  0.1377  1.5218
15234TIP3    H267118   6.010   1.038   0.580 -0.9859 -0.3689 -0.5575
15235TIP3   OH267119   0.285   6.653  12.297 -0.1834 -0.1334 -0.6967
15235TIP3    H167120   0.229   6.730  12.308 -0.9705 -0.8999  0.9959
15235TIP3    H267121   0.353   6.664  12.364 -0.9356 -1.4106  0.3237
15236TIP3   OH267122   4.966   3.706  13.475 -0.1777 -0.1078  0.5453
15236TIP3    H167123   4.969   3.629  13.531  1.2519  0.3192  1.0932
15236TIP3    H267124   5.037   3.694  13.412 -1.7173 -0.5521 -1.1991
15237TIP3   OH267125   1.716   5.194  16.541  0.3032  0.0457 -0.4823
15237TIP3    H167126   1.654   5.127  16.572  1.9883 -0.0534  3.0618
15237TIP3    H267127   1.802   5.154  16.551  1.1969  1.6303 -1.4247
15238TIP3   OH267128   5.032   6.203   4.155 -0.0352 -0.3530 -0.2423
15238TIP3    H167129   4.982   6.276   4.119  1.3569  0.3016 -0.8966
15238TIP3    H267130   4.971   6.129   4.153 -1.2474  0.6071 -0.2086
15239TIP3   OH267131   0.707   5.853   3.448 -0.3574  0.7534  0.1757
15239TIP3    H167132   0.643   5.901   3.501 -0.6303  0.0112  0.5324
15239TIP3    H267133   0.761   5.922   3.408 -0.8941  1.3644  0.4737
15240TIP3   OH267134   4.556   2.790   6.487 -0.4211 -0.3953 -0.0326
15240TIP3    H167135   4.502   2.715   6.464  0.3201 -0.4127 -1.9091
15240TIP3    H267136   4.611   2.804   6.410  0.7762  0.9086  1.0052
15241TIP3   OH267137   6.328   0.251  13.676 -0.2268  0.4570  0.5342
15241TIP3    H167138   6.335   0.164  13.637 -2.6057  0.1869  0.5360
15241TIP3    H267139   6.418   0.279  13.688  0.6103 -1.0701 -1.5086
15242TIP3   OH267140   0.395   0.920   1.463 -0.0264 -0.3011  0.3443
15242TIP3    H167141   0.329   0.989   1.466  0.1023 -0.0485 -1.6426
15242TIP3    H267142   0.477   0.964   1.484  0.0857  0.2381 -1.1062
15243TIP3   OH267143   0.864   2.201  10.816 -0.4575 -0.2538  0.5689
15243TIP3    H167144   0.854   2.277  10.759 -1.5594 -0.2143  0.7943
15243TIP3    H267145   0.858   2.126  10.756  0.3800 -0.1810  0.3815
15244TIP3   OH267146   4.732   1.408  15.891 -0.3713 -0.7124  0.7429
15244TIP3    H167147   4.710   1.335  15.833 -0.5856 -0.4542  0.4950
15244TIP3    H267148   4.802   1.455  15.846 -0.7948 -0.2951  0.5078
15245TIP3   OH267149   6.618   0.977  15.891  0.1469  0.4206 -0.6948
15245TIP3    H167150   6.587   0.947  15.805  0.2067 -0.7250 -0.3302
15245TIP3    H267151   6.569   1.057  15.907 -0.5311  0.1578 -1.3911
15246TIP3   OH267152   1.798   6.341   4.885  0.0456  0.3321 -0.0978
15246TIP3    H167153   1.828   6.427   4.859 -1.9710  0.7818 -1.1151
15246TIP3    H267154   1.726   6.358   4.946  2.1477 -0.6980  2.8695
15247TIP3   OH267155   2.595   5.787   1.399 -0.0603  0.6433 -0.4266
15247TIP3    H167156   2.660   5.730   1.441 -1.3318  0.3715  1.3003
15247TIP3    H267157   2.555   5.835   1.472 -2.7710 -0.2521 -1.2211
15248TIP3   OH267158   2.694   3.905   2.468 -0.0197  0.8774 -0.1738
15248TIP3    H167159   2.662   3.994   2.484 -1.1293  0.4890 -0.1584
15248TIP3    H267160   2.786   3.908   2.493 -0.2544  1.8066  0.6516
15249TIP3   OH267161   1.190   4.452  15.684 -0.1994 -0.6281  0.3431
15249TIP3    H167162   1.140   4.377  15.653 -0.9012  0.0358 -0.1767
15249TIP3    H267163   1.160   4.525  15.629 -0.0903  0.1886  1.3351
15250TIP3   OH267164   0.601   5.851   0.096 -0.2112 -0.1654  0.2104
15250TIP3    H167165   0.651   5.827   0.173  2.0295  1.6080 -0.5947
15250TIP3    H267166   0.666   5.865   0.028 -2.1381 -3.0300 -2.5333
15251TIP3   OH267167   0.036   5.562   1.602  0.3443  0.3138  0.4309
15251TIP3    H167168   0.036   5.555   1.698 -1.1092  0.2660  0.4488
15251TIP3    H267169  -0.003   5.647   1.584 -1.8198 -0.7129 -0.1203
15252TIP3   OH267170   6.795   0.889  16.062 -1.0961  0.1193  0.1056
15252TIP3    H167171   6.735   0.934  16.002 -1.8688  0.5340  1.1657
15252TIP3    H267172   6.836   0.959  16.112  1.7494  0.0076 -1.8474
15253TIP3   OH267173   4.674   0.264  11.539  0.0718 -0.0642 -0.1899
15253TIP3    H167174   4.683   0.327  11.611  0.4248 -1.2420  0.8282
15253TIP3    H267175   4.762   0.227  11.528  0.2041  0.6093 -1.7440
15254TIP3   OH267176   6.638   5.327   3.661 -0.3466 -0.5402  0.1198
15254TIP3    H167177   6.694   5.304   3.736  1.2586  1.4424 -0.3868
15254TIP3    H267178   6.603   5.413   3.683  2.0016  1.1683 -2.3049
15255TIP3   OH267179   1.053   1.059   2.160  0.0293  0.0709 -0.4585
15255TIP3    H167180   1.105   1.073   2.081 -0.7472 -2.7994 -1.6119
15255TIP3    H267181   1.073   0.970   2.187 -0.3046  0.7153  2.2139
15256TIP3   OH267182   1.511   0.614  14.165  0.3888 -0.7153  0.4190
15256TIP3    H167183   1.529   0.667  14.087  1.5643 -1.0277  0.4610
15256TIP3    H267184   1.416   0.605  14.166  0.0159  2.3676  1.0824
15257TIP3   OH267185   1.711   4.389  14.280 -0.3389 -0.1880 -0.5224
15257TIP3    H167186   1.706   4.388  14.376 -0.7491  0.6156 -0.5301
15257TIP3    H267187   1.797   4.350  14.261  0.5716  1.3455  0.2513
15258TIP3   OH267188   6.216   2.392  10.646  0.1300 -0.8121 -0.0008
15258TIP3    H167189   6.189   2.467  10.698 -0.4894 -3.2443  3.5651
15258TIP3    H267190   6.305   2.412  10.618 -0.5929  1.8598 -0.6406
15259TIP3   OH267191   0.432   1.428  12.915  0.3201  0.0756 -0.1146
15259TIP3    H167192   0.430   1.373  12.837  0.4258 -0.0553 -0.0258
15259TIP3    H267193   0.385   1.378  12.982  0.2759  0.1636 -0.0792
15260TIP3   OH267194   0.286   6.298  15.695  0.3709  0.3644 -1.0437
15260TIP3    H167195   0.373   6.266  15.718  0.7428  0.4037 -2.3602
15260TIP3    H267196   0.249   6.327  15.779  1.8723  0.9776 -0.5577
15261TIP3   OH267197   1.387   4.459  12.743  0.1628  0.2260 -0.7533
15261TIP3    H167198   1.455   4.476  12.678  0.4696  0.9316 -0.2712
15261TIP3    H267199   1.352   4.546  12.763  0.3483  0.0731  0.3042
15262TIP3   OH267200   4.330   5.887   1.752 -0.0130  0.2360 -0.2770
15262TIP3    H167201   4.390   5.956   1.723  0.8559 -1.3451 -2.4486
15262TIP3    H267202   4.291   5.854   1.672 -0.9801 -1.3073  0.7866
15263TIP3   OH267203   6.089   3.241   3.639 -0.2248  0.4467  0.3292
15263TIP3    H167204   6.058   3.313   3.693 -2.1356  1.0724 -1.4716
15263TIP3    H267205   6.177   3.223   3.672 -0.4720  2.2157  2.1661
15264TIP3   OH267206   2.773   3.105   1.905  0.2510  0.8311 -0.0956
15264TIP3    H167207   2.850   3.159   1.923  0.8149  0.6689 -1.8501
15264TIP3    H267208   2.775   3.038   1.973  0.5744  1.9176  1.0119
15265TIP3   OH267209   3.090   3.432   2.288 -0.4922  0.7046  0.0121
15265TIP3    H167210   3.166   3.419   2.345 -1.0708  2.5972  1.3156
15265TIP3    H267211   3.127   3.459   2.204  0.2937  2.3493  0.8539
15266TIP3   OH267212   0.697   4.382  15.722 -0.8268  0.2383  0.1668
15266TIP3    H167213   0.706   4.292  15.755 -2.9666 -0.3699 -0.7806
15266TIP3    H267214   0.731   4.378  15.633  2.4624  1.2804  1.2351
15267TIP3   OH267215   4.489   3.009   6.000 -0.0170 -0.9578 -0.7732
15267TIP3    H167216   4.508   3.000   5.906  0.2345 -0.4119 -0.7816
15267TIP3    H267217   4.495   3.104   6.016  1.7944 -1.2099  0.1904
15268TIP3   OH267218   6.385   3.939  15.539  0.3114  0.0194 -0.1037
15268TIP3    H167219   6.373   3.884  15.462 -1.5909 -0.7732  0.6876
15268TIP3    H267220   6.387   4.029  15.505  0.8227 -0.3831 -1.1684
15269TIP3   OH267221   1.017   3.141   1.577 -0.6891 -0.1528  0.0131
15269TIP3    H167222   1.010   3.086   1.500 -0.6733  0.7215 -0.6271
15269TIP3    H267223   0.931   3.136   1.619 -1.3618  0.9948 -1.1939
15270TIP3   OH267224   1.671   4.541  11.432 -0.6179 -0.5248  0.2876
15270TIP3    H167225   1.616   4.589  11.370  1.6121  0.0460 -1.3660
15270TIP3    H267226   1.756   4.533  11.388  1.3514  0.5595  3.5306
15271TIP3   OH267227   5.997   4.442   1.900  0.2367  0.5832  0.4447
15271TIP3    H167228   5.945   4.372   1.941  1.2709  0.2807  1.3100
15271TIP3    H267229   5.933   4.498   1.856 -0.7013 -0.3839  0.5442
15272TIP3   OH267230   5.625   0.019  15.300 -0.3186 -0.4941 -0.0240
15272TIP3    H167231   5.626   0.053  15.390 -0.3992  0.8470 -0.5001
15272TIP3    H267232   5.570   0.082  15.252  2.1919  0.5922 -1.6636
15273TIP3   OH267233   6.479   4.738   4.488 -0.4146  0.4773 -0.1772
15273TIP3    H167234   6.467   4.733   4.394 -1.6125 -0.2051 -0.0074
15273TIP3    H267235   6.490   4.832   4.506 -0.0610  0.5984 -1.0002
15274TIP3   OH267236   6.187   2.763  15.986  0.6434  0.4214 -0.2454
15274TIP3    H167237   6.173   2.773  15.892  2.3436  0.1163 -0.5493
15274TIP3    H267238   6.185   2.669  16.001  1.4112  0.4146 -0.1567
15275TIP3   OH267239   0.919   1.517   0.427 -0.0450  0.6830  0.5411
15275TIP3    H167240   0.940   1.424   0.426  0.5274  0.7926 -1.4235
15275TIP3    H267241   0.840   1.524   0.373 -0.1132  1.3294  0.7141
15276TIP3   OH267242   5.425   1.382   5.165 -0.4425  0.6466 -0.2586
15276TIP3    H167243   5.378   1.359   5.245 -0.4840  0.1911 -0.4072
15276TIP3    H267244   5.445   1.297   5.124  1.1559  0.7807  0.1726
15277TIP3   OH267245   2.726   0.138  14.473  0.0566 -0.3041 -0.4360
15277TIP3    H167246   2.748   0.216  14.421 -0.0708 -2.1278 -3.4658
15277TIP3    H267247   2.809   0.110  14.511  0.2156  0.9305  0.1660
15278TIP3   OH267248   5.630   4.583   3.351 -0.0075  0.4672  0.2302
15278TIP3    H167249   5.537   4.604   3.348  0.0974  1.9663  3.1850
15278TIP3    H267250   5.634   4.493   3.385 -0.4061  0.5500  0.5012
15279TIP3   OH267251   1.175   5.861   5.846  0.3177 -0.2612 -0.0846
15279TIP3    H167252   1.153   5.776   5.883 -1.4244  0.1472 -0.1099
15279TIP3    H267253   1.187   5.844   5.752  0.9114 -0.6222  0.0506
15280TIP3   OH267254   2.197   1.536   4.520  0.0546  0.5006 -0.7623
15280TIP3    H167255   2.129   1.537   4.453 -2.0582 -0.4608  1.2408
15280TIP3    H267256   2.180   1.457   4.571  2.9245  0.0123 -0.3492
15281TIP3   OH267257   0.848   6.024   3.263  0.8030  0.0347  0.4922
15281TIP3    H167258   0.916   6.049   3.325  0.8927 -0.5896  0.6537
15281TIP3    H267259   0.889   6.034   3.177  1.1184 -0.3902  0.5919
15282TIP3   OH267260   6.208   4.391  11.826  0.0878  0.1966  0.1320
15282TIP3    H167261   6.182   4.303  11.850  1.0678 -0.1667 -0.0743
15282TIP3    H267262   6.215   4.438  11.910 -2.0725  0.5953  0.1489
15283TIP3   OH267263   4.598   6.377   0.230 -0.2587  0.1149  0.1263
15283TIP3    H167264   4.681   6.386   0.277  0.3075  0.6684 -0.9553
15283TIP3    H267265   4.586   6.461   0.185 -1.1524 -0.1427 -0.1442
15284TIP3   OH267266   2.182   2.024   4.005 -0.1586  0.0509  0.2687
15284TIP3    H167267   2.269   2.004   3.970  0.2186  1.0351  0.5935
15284TIP3    H267268   2.194   2.026   4.100  0.0405  2.4756  0.2612
15285TIP3   OH267269   2.827   0.743   4.832 -0.4056  0.2824 -0.3139
15285TIP3    H167270   2.919   0.717   4.819  0.6812  2.9957  1.1331
15285TIP3    H267271   2.806   0.795   4.755 -1.0869 -1.0741 -1.0771
15286TIP3   OH267272   1.412   6.531   5.133 -0.3319 -0.0270  0.4114
15286TIP3    H167273   1.365   6.466   5.185  1.3717 -1.3546  0.3790
15286TIP3    H267274   1.489   6.552   5.186 -0.8669  2.0559  0.4407
15287TIP3   OH267275   5.348   4.759  14.181  0.6476 -0.0341 -0.7628
15287TIP3    H167276   5.273   4.812  14.153  0.5629 -0.4575 -1.3345
15287TIP3    H267277   5.388   4.728  14.100  0.1955 -1.5572 -0.4259
15288TIP3   OH267278   6.408   0.626   1.804  0.0394 -0.3173 -0.3292
15288TIP3    H167279   6.466   0.671   1.742  0.2131 -1.6887 -1.1935
15288TIP3    H267280   6.467   0.595   1.873  0.1231 -0.4420 -0.4562
15289TIP3   OH267281   0.698   0.303   0.301  0.6906  0.7511  0.0710
15289TIP3    H167282   0.715   0.252   0.222 -0.7828  2.9291 -1.7913
15289TIP3    H267283   0.761   0.375   0.297  0.9206  0.6177  1.1477
15290TIP3   OH267284   5.022   2.963  13.048  0.5380 -0.3013 -0.2248
15290TIP3    H167285   5.064   2.977  12.964  1.5594  1.4932  0.5171
15290TIP3    H267286   5.088   2.921  13.102  0.9944  1.3575  0.5629
15291TIP3   OH267287   6.492   1.436  15.904 -0.0828  0.1416 -0.4157
15291TIP3    H167288   6.498   1.530  15.917  0.6474  0.2299 -1.2819
15291TIP3    H267289   6.400   1.419  15.884 -0.7927  0.2938  2.3576
15292TIP3   OH267290   1.878   0.279   2.630  0.3834  0.4037 -0.3804
15292TIP3    H167291   1.968   0.281   2.662 -0.9472 -0.7338  4.3800
15292TIP3    H267292   1.850   0.370   2.631  0.9342  0.5761  0.2408
15293TIP3   OH267293   5.811   0.841  13.392 -0.7464 -0.2095  0.4912
15293TIP3    H167294   5.815   0.767  13.453  0.3934 -1.7643 -1.3448
15293TIP3    H267295   5.717   0.853  13.376 -1.0916  0.4004  2.6562
15294TIP3   OH267296   2.622   1.253  16.896  0.4179  0.2272 -0.1941
15294TIP3    H167297   2.650   1.162  16.891  2.1810  0.7256 -0.2032
15294TIP3    H267298   2.553   1.261  16.831 -0.8365 -1.4358  0.8794
15295TIP3   OH267299   1.094   6.231  11.760  0.4723  0.0773 -0.1432
15295TIP3    H167300   1.114   6.192  11.674 -1.1755 -0.1238 -0.4774
15295TIP3    H267301   1.017   6.182  11.790 -0.7760  2.1015  0.0978
15296TIP3   OH267302   4.083   3.349   3.791 -0.3354 -0.0204 -0.5356
15296TIP3    H167303   4.093   3.290   3.866 -0.6630 -0.4912 -0.8512
15296TIP3    H267304   4.095   3.437   3.827 -2.4149 -0.0706  0.4838
15297TIP3   OH267305   4.824   6.464  14.989 -0.4699 -0.3600  0.0006
15297TIP3    H167306   4.804   6.529  14.921  0.7638  0.0391  0.0031
15297TIP3    H267307   4.911   6.432  14.966 -1.2024 -2.3076 -0.2201
15298TIP3   OH267308   5.610   1.453  16.883 -0.3770 -0.1327  0.5256
15298TIP3    H167309   5.643   1.386  16.823  0.6770  0.1588  0.7692
15298TIP3    H267310   5.673   1.524  16.878  0.9786 -0.9573  3.5745
15299TIP3   OH267311   6.301   5.991   2.018  0.2072 -0.1347 -0.8186
15299TIP3    H167312   6.213   6.006   1.982  0.2369 -1.9096 -1.7694
15299TIP3    H267313   6.360   6.028   1.952  0.1933  2.1212  0.3784
15300TIP3   OH267314   3.149   5.564  14.047  0.2034 -0.7017  0.5786
15300TIP3    H167315   3.182   5.507  14.116  1.9490 -2.3497 -1.4809
15300TIP3    H267316   3.066   5.526  14.021  0.5778 -1.3630  0.3289
15301TIP3   OH267317   3.234   0.216  11.309  0.2049  0.3703  0.4806
15301TIP3    H167318   3.197   0.278  11.372  3.2152  1.9009  0.9480
15301TIP3    H267319   3.288   0.157  11.362  0.4627 -0.1742 -0.3653
15302TIP3   OH267320   4.271   6.735  11.748 -0.0051 -0.3959 -0.3120
15302TIP3    H167321   4.235   6.765  11.831 -2.9599 -0.8714 -1.3048
15302TIP3    H267322   4.336   6.801  11.725  0.8707 -0.2311  2.2904
15303TIP3   OH267323   0.451   5.796  16.179  0.1511  0.7220  0.1932
15303TIP3    H167324   0.406   5.880  16.188 -0.0093  0.6338  0.2320
15303TIP3    H267325   0.534   5.817  16.137  0.3348  0.9670  0.6696
15304TIP3   OH267326   1.829   2.382  12.858 -0.1212 -0.3056  0.0202
15304TIP3    H167327   1.827   2.352  12.949 -0.5604 -0.8969 -0.1760
15304TIP3    H267328   1.920   2.371  12.832 -0.0481 -0.4012  0.3062
15305TIP3   OH267329   3.176   2.287   1.841  0.0323  0.5024 -0.4801
15305TIP3    H167330   3.211   2.264   1.756  0.0735 -0.7592 -0.1311
15305TIP3    H267331   3.153   2.204   1.882  1.2399  0.9581  1.2619
15306TIP3   OH267332   6.044   2.000  10.296 -0.1437  0.1461  0.2159
15306TIP3    H167333   5.992   1.924  10.322  0.9990 -0.6625  0.2049
15306TIP3    H267334   5.989   2.075  10.318 -1.4644 -0.6842 -0.1518
15307TIP3   OH267335   3.290   2.120  16.300  0.3147  0.2947 -0.0099
15307TIP3    H167336   3.215   2.081  16.345  0.7161  0.0548  0.4674
15307TIP3    H267337   3.343   2.158  16.371  0.2098  1.2249 -0.4172
15308TIP3   OH267338   2.417   0.232  14.322  0.3394  0.1075 -0.6777
15308TIP3    H167339   2.448   0.304  14.376  0.0733  1.3393 -2.0955
15308TIP3    H267340   2.484   0.221  14.254  0.4745 -1.1284 -0.3690
15309TIP3   OH267341   4.851   4.903   0.729 -0.1721  0.4113  0.5445
15309TIP3    H167342   4.893   4.988   0.715 -0.1464  0.2285 -0.5399
15309TIP3    H267343   4.897   4.866   0.805  0.8759  0.6940  0.0626
15310TIP3   OH267344   2.806   3.129  15.500 -0.2801  0.7179 -0.5174
15310TIP3    H167345   2.782   3.200  15.441  0.9241  1.7733  0.2355
15310TIP3    H267346   2.783   3.160  15.587 -0.8709 -0.3224 -0.2754
15311TIP3   OH267347   6.507   0.826  15.063 -0.2704  0.4227 -0.7817
15311TIP3    H167348   6.463   0.908  15.040  0.5113  0.3887 -2.5791
15311TIP3    H267349   6.530   0.787  14.979  1.3017 -0.5787  0.0657
15312TIP3   OH267350   5.826   2.251   0.557 -0.2560 -0.2413 -0.0444
15312TIP3    H167351   5.829   2.215   0.469 -2.3522  0.6357 -0.5414
15312TIP3    H267352   5.915   2.282   0.574 -0.0157  0.4665 -2.2475
15313TIP3   OH267353   3.856   0.835   0.178  0.3068 -0.5956  0.1044
15313TIP3    H167354   3.808   0.911   0.145 -1.7443 -1.4287  1.0316
15313TIP3    H267355   3.805   0.760   0.149  0.7932 -1.5189  1.5417
15314TIP3   OH267356   2.453   3.915   2.337  0.1308  0.3923 -0.4444
15314TIP3    H167357   2.543   3.915   2.370  0.2256 -1.4286 -0.6369
15314TIP3    H267358   2.440   4.004   2.304  1.9457  0.6081 -0.6656
15315TIP3   OH267359   2.998   3.391   6.623 -0.1077 -0.1048  0.1103
15315TIP3    H167360   3.038   3.473   6.595 -2.4393  1.5584  1.3671
15315TIP3    H267361   2.947   3.413   6.700 -1.8002 -2.4890 -0.1944
15316TIP3   OH267362   3.569   3.572   2.925 -0.1969 -0.3808  0.1167
15316TIP3    H167363   3.642   3.531   2.970  1.0541  0.2572 -1.2481
15316TIP3    H267364   3.543   3.510   2.857  0.7104  0.4059 -0.9772
15317TIP3   OH267365   1.999   3.681   3.213  0.1067  0.4332  0.0914
15317TIP3    H167366   1.998   3.752   3.278 -0.3970 -0.7217  1.4061
15317TIP3    H267367   1.907   3.669   3.190  0.2427  0.5499 -0.5208
15318TIP3   OH267368   6.561   6.427   5.555 -0.0113  0.5048  0.1756
15318TIP3    H167369   6.601   6.459   5.636  1.5608  0.1001 -0.4059
15318TIP3    H267370   6.506   6.499   5.526 -0.1212  0.8891  1.2752
15319TIP3   OH267371   6.541   0.247   2.606  0.0530 -0.2459 -0.1656
15319TIP3    H167372   6.636   0.249   2.607  0.1028  1.6886 -1.6368
15319TIP3    H267373   6.519   0.156   2.588  1.6231 -0.6925  0.0374
15320TIP3   OH267374   5.026   4.346   4.223  0.0717 -0.1802 -0.1467
15320TIP3    H167375   4.951   4.287   4.220  0.1999 -0.4771  1.7377
15320TIP3    H267376   4.993   4.426   4.263  0.4369  0.2232 -0.6331
15321TIP3   OH267377   5.567   4.211   0.166 -0.0219  0.3472  0.2693
15321TIP3    H167378   5.477   4.202   0.135  0.4832  0.4828 -1.3661
15321TIP3    H267379   5.607   4.126   0.147  0.1038  0.1548  1.3468
15322TIP3   OH267380   2.244   1.900  13.378  0.0274 -0.0417  0.3252
15322TIP3    H167381   2.167   1.846  13.358  1.4841 -2.0632 -0.1649
15322TIP3    H267382   2.227   1.934  13.466 -1.0512 -1.1636  0.5774
15323TIP3   OH267383   0.429   4.450   1.248  0.6372 -0.1044  0.3730
15323TIP3    H167384   0.516   4.461   1.210  0.5536 -1.9322 -0.4434
15323TIP3    H267385   0.416   4.355   1.252 -1.1043  0.1217  0.9986
15324TIP3   OH267386   4.263   5.270   4.934 -0.5576 -0.0432 -0.4156
15324TIP3    H167387   4.247   5.176   4.948 -0.6272  0.3355  2.8999
15324TIP3    H267388   4.359   5.278   4.936 -0.3963 -0.2511 -3.2508
15325TIP3   OH267389   2.649   1.002  13.272 -0.1647 -0.7286  0.3577
15325TIP3    H167390   2.662   1.010  13.366  0.5324 -0.1284  0.2168
15325TIP3    H267391   2.631   1.091  13.242 -2.6288 -1.1988  0.2193
15326TIP3   OH267392   2.397   0.544  16.200  0.0779 -0.0838  0.2143
15326TIP3    H167393   2.466   0.609  16.187  1.5390 -1.4330  0.8192
15326TIP3    H267394   2.370   0.555  16.291  0.2468 -0.2534  0.2842
15327TIP3   OH267395   4.789   0.206  16.950  0.1628  0.4028  0.3218
15327TIP3    H167396   4.832   0.290  16.938 -0.1075  0.4189 -0.5711
15327TIP3    H267397   4.815   0.178  17.038  1.1697  0.8788  0.1836
15328TIP3   OH267398   0.681   5.986  11.382  0.4388 -0.5313 -0.0939
15328TIP3    H167399   0.612   5.971  11.446  0.0238 -1.2664 -0.6967
15328TIP3    H267400   0.640   5.967  11.297  1.3300 -0.8105 -0.4729
15329TIP3   OH267401   1.921   3.535  12.739 -0.1694  0.5640  0.3989
15329TIP3    H167402   1.870   3.596  12.792 -0.3368  0.1703  0.7008
15329TIP3    H267403   1.859   3.465  12.717 -0.0881  0.7023 -0.2820
15330TIP3   OH267404   3.645   2.336   0.997  0.1686  0.2185 -0.5900
15330TIP3    H167405   3.647   2.331   1.092  2.1591 -0.0957 -0.6077
15330TIP3    H267406   3.593   2.260   0.970  1.2971 -0.9012  0.2230
15331TIP3   OH267407   1.096   0.080   5.182 -0.2176  0.2966  0.4959
15331TIP3    H167408   1.065  -0.006   5.156  1.1121 -0.3506  0.9187
15331TIP3    H267409   1.145   0.064   5.263  2.7664  0.8411 -1.0271
15332TIP3   OH267410   5.025   6.095  14.557 -0.2921 -0.5227 -0.9948
15332TIP3    H167411   5.092   6.027  14.561  0.4777  0.2668  0.2503
15332TIP3    H267412   5.072   6.177  14.571 -1.5578  0.0045  0.5082
15333TIP3   OH267413   2.783   0.353   0.338 -0.0031  0.2070 -0.2199
15333TIP3    H167414   2.829   0.269   0.340 -0.4592 -0.1021 -1.6366
15333TIP3    H267415   2.791   0.387   0.427  0.9932 -0.8992  0.1330
15334TIP3   OH267416   0.409   1.018   4.145 -0.4660 -0.1549 -0.2081
15334TIP3    H167417   0.443   0.929   4.140  1.8953  0.6024  0.5482
15334TIP3    H267418   0.318   1.012   4.117 -0.1502 -2.6601 -0.8860
15335TIP3   OH267419   4.770   4.386  14.189  0.1393 -0.2724 -0.7451
15335TIP3    H167420   4.747   4.361  14.278 -0.3751 -0.7311 -1.0015
15335TIP3    H267421   4.823   4.313  14.157  0.3220 -0.1093 -0.8181
15336TIP3   OH267422   4.556   5.152   3.764 -0.0722  0.4476 -0.5336
15336TIP3    H167423   4.588   5.243   3.766  0.5902  0.2164 -0.2981
15336TIP3    H267424   4.471   5.156   3.808  0.2997  0.8246  0.1752
15337TIP3   OH267425   4.899   5.222   3.654 -0.3799 -0.1540  0.4868
15337TIP3    H167426   4.837   5.283   3.615 -0.4347 -0.6354 -0.2002
15337TIP3    H267427   4.940   5.178   3.579  0.4667 -0.1590  0.9408
15338TIP3   OH267428   1.021   2.808   3.221  0.0973  0.2634  0.1196
15338TIP3    H167429   1.063   2.796   3.136 -0.0161 -0.7250  0.1904
15338TIP3    H267430   1.044   2.729   3.270 -0.3722  0.5311  0.7776
15339TIP3   OH267431   5.747   2.448  12.177 -0.2116  0.5490 -0.1108
15339TIP3    H167432   5.753   2.536  12.139  0.7323  0.3330 -0.4897
15339TIP3    H267433   5.837   2.417  12.179 -0.6857 -1.0632 -1.5651
15340TIP3   OH267434   4.853   2.467  15.950 -0.1855 -0.0631  0.1180
15340TIP3    H167435   4.797   2.471  15.872  0.5128  1.2116 -0.3659
15340TIP3    H267436   4.925   2.528  15.930  0.6628 -0.6564  1.2561
15341TIP3   OH267437   6.755   5.008  15.764 -0.2155  0.2074 -0.3174
15341TIP3    H167438   6.723   4.917  15.764  0.5063 -0.0584  0.6210
15341TIP3    H267439   6.735   5.040  15.852  2.3695 -0.0880  0.4676
15342TIP3   OH267440   2.929   4.207  16.964 -0.1270  0.1804  0.4522
15342TIP3    H167441   2.990   4.175  17.031 -2.0548  0.7041  2.5651
15342TIP3    H267442   2.932   4.140  16.896  0.8912 -1.0937  1.6813
15343TIP3   OH267443   3.910   3.454  11.349 -0.0629  0.6751 -0.0524
15343TIP3    H167444   3.901   3.528  11.409 -1.5932  0.8073 -0.3796
15343TIP3    H267445   3.839   3.395  11.375  1.4974 -1.0113  0.6047
15344TIP3   OH267446   5.927   4.234   4.450 -0.2620  0.3584 -0.2496
15344TIP3    H167447   5.912   4.290   4.526  2.4985 -0.0339  0.6990
15344TIP3    H267448   5.967   4.293   4.385  1.7925 -0.2101  0.4171
15345TIP3   OH267449   3.818   3.792   3.794 -0.0354  0.3412 -0.2007
15345TIP3    H167450   3.862   3.856   3.850 -2.7363  3.3350 -1.1739
15345TIP3    H267451   3.859   3.802   3.708 -0.1182  0.4399 -0.2299
15346TIP3   OH267452   5.150   3.047  10.780  0.1240 -0.1638 -0.2747
15346TIP3    H167453   5.067   3.048  10.827  0.4780  1.1404  0.3673
15346TIP3    H267454   5.151   2.963  10.734 -0.6301 -1.0816  1.3231
15347TIP3   OH267455   6.211   2.732  10.801 -0.0290 -1.1212  0.2841
15347TIP3    H167456   6.246   2.771  10.721 -1.0905 -1.7469 -0.5130
15347TIP3    H267457   6.137   2.789  10.824 -0.3672 -1.5403  0.2332
15348TIP3   OH267458   4.338   0.407  11.804 -0.0423  0.3076 -0.6900
15348TIP3    H167459   4.318   0.400  11.898  2.2443 -1.3237 -0.2315
15348TIP3    H267460   4.365   0.498  11.792 -1.0424  0.7247  0.0546
15349TIP3   OH267461   3.005   6.010  10.857 -0.0555  0.3541  0.6178
15349TIP3    H167462   2.972   6.063  10.784  0.1145  2.4621  1.9569
15349TIP3    H267463   3.089   6.050  10.879  0.9784 -1.6717  0.5587
15350TIP3   OH267464   4.307   2.775   3.559  0.0879  0.4097 -0.3288
15350TIP3    H167465   4.230   2.781   3.502 -0.0328  0.2623 -0.1803
15350TIP3    H267466   4.320   2.864   3.592 -0.0515  0.4211 -0.3074
15351TIP3   OH267467   2.691   0.982   5.663  0.2511 -0.2812 -0.1078
15351TIP3    H167468   2.771   1.008   5.617  1.0938  0.1114  1.5060
15351TIP3    H267469   2.649   1.065   5.685 -0.3747 -0.4791 -0.5374
15352TIP3   OH267470   4.326   0.111   1.905 -0.1480  0.3392  0.3849
15352TIP3    H167471   4.250   0.164   1.929 -1.5791 -1.5145  0.1105
15352TIP3    H267472   4.388   0.124   1.978 -1.2126  0.9367  1.2103
15353TIP3   OH267473   5.546   0.402  15.367 -0.5552 -0.0465 -0.2913
15353TIP3    H167474   5.531   0.492  15.336  0.5484 -0.0383 -0.8469
15353TIP3    H267475   5.495   0.348  15.307 -0.8923  0.1760 -0.2113
15354TIP3   OH267476   0.130   6.818   6.140  0.2129 -0.0072  0.1211
15354TIP3    H167477   0.050   6.765   6.132  0.6236 -0.3467 -3.5357
15354TIP3    H267478   0.101   6.908   6.124  0.4012  0.0261 -0.0348
15355TIP3   OH267479   2.106   3.041   4.754 -0.1701 -0.3152 -0.1421
15355TIP3    H167480   2.044   3.094   4.804 -0.1723  0.0927 -0.5774
15355TIP3    H267481   2.179   3.099   4.736  0.3325 -0.7900  0.3459
15356TIP3   OH267482   0.974   4.591   0.681 -0.1169  0.4311  0.5741
15356TIP3    H167483   0.909   4.636   0.736 -1.3860 -1.6555  0.8989
15356TIP3    H267484   0.955   4.498   0.693 -2.1207 -0.3140 -5.1867
15357TIP3   OH267485   6.042   2.983   1.535  0.0136  0.0093  0.7792
15357TIP3    H167486   6.011   3.071   1.514 -1.4906 -0.3071  1.5679
15357TIP3    H267487   5.963   2.929   1.538  0.9914 -1.6268 -0.7545
15358TIP3   OH267488   4.399   2.646   6.289 -0.0557  0.2369  0.6793
15358TIP3    H167489   4.423   2.599   6.209  1.8804  2.5876 -0.2621
15358TIP3    H267490   4.305   2.629   6.299 -0.1465 -0.9609 -1.5039
15359TIP3   OH267491   0.744   0.504   6.271 -0.4213 -0.2183  0.4817
15359TIP3    H167492   0.702   0.432   6.319 -1.8429  1.3892  1.8024
15359TIP3    H267493   0.675   0.571   6.264  0.6290  0.7503 -1.3386
15360TIP3   OH267494   1.326   3.628  15.378  0.4322  0.3303 -0.0240
15360TIP3    H167495   1.234   3.647  15.397  1.0078  1.5459  1.8125
15360TIP3    H267496   1.335   3.646  15.284 -1.3533 -0.6109 -0.4420
15361TIP3   OH267497   0.410   0.540  13.096 -0.0559  0.0991  0.0863
15361TIP3    H167498   0.361   0.491  13.162 -0.0391 -0.5006 -0.3425
15361TIP3    H267499   0.381   0.504  13.012 -0.1422  0.9106 -0.2474
15362TIP3   OH267500   0.512   1.827   0.272  0.6745  0.3643  0.2030
15362TIP3    H167501   0.484   1.916   0.293 -1.8251 -0.2340 -0.2577
15362TIP3    H267502   0.564   1.836   0.192  0.5958  1.4058  0.2585
15363TIP3   OH267503   0.332   3.375   4.696  0.2909  0.0409 -0.2262
15363TIP3    H167504   0.400   3.366   4.629  1.1354  1.3739  0.3942
15363TIP3    H267505   0.303   3.286   4.713  0.2343 -0.3473 -2.1688
15364TIP3   OH267506   1.702   1.442   2.734 -0.1035  0.4728  0.0754
15364TIP3    H167507   1.633   1.468   2.794 -1.9732 -1.9728 -0.8286
15364TIP3    H267508   1.724   1.522   2.687 -1.5848  1.5549  1.1237
15365TIP3   OH267509   6.519   6.717  13.819 -0.1191 -0.0257 -0.1450
15365TIP3    H167510   6.428   6.731  13.794 -0.4432 -0.9435  0.4795
15365TIP3    H267511   6.559   6.804  13.815 -0.9013  0.3134 -0.8666
15366TIP3   OH267512   3.301   5.348  14.908  0.2157  0.1172 -0.0194
15366TIP3    H167513   3.233   5.282  14.921 -0.8155  0.6281 -2.3298
15366TIP3    H267514   3.298   5.401  14.987  0.9628 -2.4112  1.8444
15367TIP3   OH267515   2.226   3.461   1.282 -0.3569  0.0275 -0.3581
15367TIP3    H167516   2.250   3.369   1.269 -1.1872 -0.2205 -0.1517
15367TIP3    H267517   2.276   3.488   1.359 -0.5229 -0.4033 -0.0990
15368TIP3   OH267518   5.066   3.665   0.303  0.0921 -0.3020 -0.0409
15368TIP3    H167519   4.993   3.727   0.304  0.8542  0.7130 -1.9746
15368TIP3    H267520   5.024   3.579   0.290 -0.8445  0.0410  0.6105
15369TIP3   OH267521   4.540   1.234   6.378  0.5695 -0.0873 -0.1975
15369TIP3    H167522   4.486   1.310   6.397  0.4796 -0.0809 -0.4693
15369TIP3    H267523   4.577   1.208   6.462 -0.6146 -0.6704  0.1632
15370TIP3   OH267524   2.739   5.823  16.686  0.1856 -0.9585 -0.1839
15370TIP3    H167525   2.749   5.917  16.698  0.4177 -1.1286  1.1935
15370TIP3    H267526   2.649   5.804  16.713  0.4671 -1.2548  0.5947
15371TIP3   OH267527   2.978   4.534  13.612  0.4116  0.2523  0.3085
15371TIP3    H167528   3.050   4.477  13.587  0.7447  0.3457  1.0310
15371TIP3    H267529   2.982   4.539  13.708 -1.0324 -0.3741  0.4388
15372TIP3   OH267530   3.827   3.666   4.186  0.9593 -0.1764  0.2115
15372TIP3    H167531   3.799   3.756   4.205  0.1015 -0.6068  1.0242
15372TIP3    H267532   3.841   3.666   4.091 -1.8086  0.1038 -0.2988
15373TIP3   OH267533   4.655   2.236   0.873 -0.0751  1.0882 -0.1432
15373TIP3    H167534   4.624   2.284   0.951 -0.1790  0.4196  0.2362
15373TIP3    H267535   4.750   2.234   0.882 -0.1672 -0.3066  0.7780
15374TIP3   OH267536   5.829   6.072   2.833  0.1739  0.4988 -0.2850
15374TIP3    H167537   5.894   6.095   2.900  0.3960  0.6326 -0.5461
15374TIP3    H267538   5.881   6.052   2.755 -0.0522 -0.2022 -0.2640
15375TIP3   OH267539   5.016   0.727   4.766 -0.3352  0.0491 -0.3578
15375TIP3    H167540   5.004   0.632   4.770 -2.9778  0.3447  0.5559
15375TIP3    H267541   4.929   0.761   4.748  0.3642  2.3783  0.4129
15376TIP3   OH267542   1.261   2.360   5.031 -0.1890 -0.9498 -0.3227
15376TIP3    H167543   1.247   2.416   5.107  1.2273 -1.8258  0.6273
15376TIP3    H267544   1.318   2.411   4.974 -1.5465 -0.1448 -1.0048
15377TIP3   OH267545   4.653   5.954  14.461 -0.4934  0.2727  0.1162
15377TIP3    H167546   4.666   5.907  14.378  0.0196  1.0991 -0.2747
15377TIP3    H267547   4.567   5.924  14.492 -1.1019  0.6432 -1.1714
15378TIP3   OH267548   5.560   0.541   0.831 -0.3271  0.5082 -0.4030
15378TIP3    H167549   5.644   0.583   0.843 -0.0727 -0.5462  2.2446
15378TIP3    H267550   5.501   0.586   0.892 -1.4195  0.4920 -1.3960
15379TIP3   OH267551   2.683   3.272   5.224 -0.1451  0.3463 -0.5285
15379TIP3    H167552   2.755   3.233   5.273 -0.7506 -0.0461  0.0849
15379TIP3    H267553   2.653   3.345   5.279 -0.4031  0.3220 -0.6347
15380TIP3   OH267554   4.896   2.090   4.029  0.0253 -0.1373  1.1936
15380TIP3    H167555   4.917   2.119   3.941 -1.1155 -2.1948  0.1629
15380TIP3    H267556   4.865   2.168   4.074 -1.7583  0.5156 -1.0147
15381TIP3   OH267557   4.494   3.262  11.614 -0.5856 -0.2650  0.7373
15381TIP3    H167558   4.479   3.218  11.697 -1.5058 -1.7212 -0.1547
15381TIP3    H267559   4.501   3.191  11.550  1.6140  0.7302 -0.2431
15382TIP3   OH267560   5.832   3.727   4.388 -0.7261  0.0402 -0.1877
15382TIP3    H167561   5.780   3.652   4.415 -2.0125 -0.0804 -2.6727
15382TIP3    H267562   5.780   3.803   4.413  0.0670  0.1249  1.3381
15383TIP3   OH267563   1.933   0.067   3.907 -0.4682  0.2597  0.8206
15383TIP3    H167564   2.019   0.051   3.945  1.1841  1.0196 -2.2840
15383TIP3    H267565   1.935   0.021   3.823 -3.2493  0.0426  0.7901
15384TIP3   OH267566   1.124   5.718   4.614  0.3825  0.3161 -0.7477
15384TIP3    H167567   1.199   5.715   4.555  0.4709 -0.9300 -0.6006
15384TIP3    H267568   1.103   5.811   4.622  2.8668  0.8380  0.4012
15385TIP3   OH267569   0.545   1.457   3.614 -0.0657 -0.0317  0.4047
15385TIP3    H167570   0.575   1.492   3.698  0.8697 -0.8122  0.4079
15385TIP3    H267571   0.535   1.363   3.628 -0.8170 -0.0395 -0.1038
15386TIP3   OH267572   2.747   0.524   2.216  0.4788  0.4945  0.0991
15386TIP3    H167573   2.829   0.561   2.184  0.3427  0.0589 -0.7758
15386TIP3    H267574   2.774   0.457   2.279  0.7431  1.4570  1.0471
15387TIP3   OH267575   6.436   3.189  14.877 -0.1890 -0.1410 -0.1557
15387TIP3    H167576   6.452   3.137  14.797 -0.4951  0.0089 -0.3159
15387TIP3    H267577   6.366   3.142  14.922 -0.3174  0.0148 -0.1925
15388TIP3   OH267578   3.649   4.093   0.981  0.8274 -0.2596 -0.3054
15388TIP3    H167579   3.599   4.055   1.053 -0.9349  1.1384 -0.7309
15388TIP3    H267580   3.648   4.188   0.999  0.6947  0.0732 -1.9549
15389TIP3   OH267581   3.366   4.278  11.488  0.0546 -0.1851  0.1119
15389TIP3    H167582   3.288   4.316  11.449  0.6346  1.1550  0.1902
15389TIP3    H267583   3.438   4.335  11.459  0.8192 -0.6051  1.1090
15390TIP3   OH267584   0.786   2.003   5.562  0.6996  0.2013  0.1837
15390TIP3    H167585   0.789   1.966   5.651  3.0268  1.2921  0.6430
15390TIP3    H267586   0.878   2.022   5.541  0.1009  0.8919 -2.0786
15391TIP3   OH267587   2.332   2.422  12.871 -0.2582 -0.5931  0.1224
15391TIP3    H167588   2.352   2.500  12.922 -1.9710 -0.7760  1.1648
15391TIP3    H267589   2.403   2.361  12.891  1.4219  0.8453 -1.1739
15392TIP3   OH267590   4.681   5.394   3.870  0.4720 -0.4575  0.0433
15392TIP3    H167591   4.595   5.427   3.897 -0.5273 -2.8888  0.1169
15392TIP3    H267592   4.736   5.404   3.948  0.6608  2.1930 -0.3544
15393TIP3   OH267593   5.973   0.478   2.655  0.5753 -0.3251  0.2535
15393TIP3    H167594   5.988   0.547   2.720  0.8446 -0.0455 -0.1005
15393TIP3    H267595   5.895   0.506   2.607 -0.3438 -1.1211  1.2201
15394TIP3   OH267596   2.597   0.038  16.460  0.1209 -0.1476 -0.0011
15394TIP3    H167597   2.620   0.015  16.370 -0.6656 -1.3643  0.0796
15394TIP3    H267598   2.679   0.067  16.499  0.8855 -1.4468 -0.5750
15395TIP3   OH267599   6.006   5.828  12.498 -0.4084  0.4560 -0.3059
15395TIP3    H167600   6.000   5.916  12.536  0.6644  0.6088 -0.4543
15395TIP3    H267601   5.950   5.832  12.420  1.3539  1.7584 -1.6215
15396TIP3   OH267602   2.958   5.116   0.232  0.1108 -0.1690 -0.1278
15396TIP3    H167603   2.948   5.067   0.151  0.6068 -3.0240  1.3916
15396TIP3    H267604   2.872   5.156   0.248 -0.1347 -0.0180 -1.7397
15397TIP3   OH267605   2.419   4.466  10.664 -0.2452 -1.1065 -0.1587
15397TIP3    H167606   2.463   4.490  10.746 -2.5482 -2.3859  1.5600
15397TIP3    H267607   2.390   4.376  10.678 -2.2980 -0.7389 -1.6535
15398TIP3   OH267608   5.855   2.481   2.161  0.0413  0.4419  0.0861
15398TIP3    H167609   5.946   2.459   2.142  0.2608  0.7101  0.8075
15398TIP3    H267610   5.812   2.483   2.075  0.8990  1.1294 -0.3376
15399TIP3   OH267611   5.126   6.489  15.485  0.1827 -0.3346  0.3324
15399TIP3    H167612   5.074   6.448  15.554  1.4257 -1.7922  0.4790
15399TIP3    H267613   5.114   6.583  15.497 -0.2738 -0.5840  2.0231
15400TIP3   OH267614   4.484   5.857   5.035 -0.4976  0.1218  0.4507
15400TIP3    H167615   4.503   5.885   4.946  0.8696  1.6127  1.1839
15400TIP3    H267616   4.431   5.777   5.024  0.2739 -0.1494 -1.6705
15401TIP3   OH267617   1.762   1.281   2.514 -0.2799  0.4773  0.0922
15401TIP3    H167618   1.847   1.251   2.546 -0.2856  1.3873  0.9747
15401TIP3    H267619   1.732   1.345   2.578 -1.7118  0.0720 -0.1138
15402TIP3   OH267620   6.080   6.045  15.673  0.1904  0.1383  0.3343
15402TIP3    H167621   6.056   5.962  15.633  2.6994 -0.1328 -0.7637
15402TIP3    H267622   6.097   6.024  15.765 -0.7312 -0.2039  0.4406
15403TIP3   OH267623   1.046   5.388   5.865  0.1777 -0.3150 -0.4949
15403TIP3    H167624   1.070   5.481   5.875  0.3125 -0.4619  0.6374
15403TIP3    H267625   0.963   5.390   5.816 -1.2964  0.5772  1.8489
15404TIP3   OH267626   6.042   3.281  10.938  0.7543  0.2657 -0.1370
15404TIP3    H167627   6.130   3.312  10.957  1.6697 -1.8723 -0.5986
15404TIP3    H267628   6.042   3.190  10.968 -2.3362  1.0448  2.8625
15405TIP3   OH267629   0.772   3.724  13.765  0.6072 -0.6455 -0.3405
15405TIP3    H167630   0.800   3.761  13.682  1.7958 -2.5149 -0.8345
15405TIP3    H267631   0.744   3.635  13.744 -0.1888 -0.7721  1.0922
15406TIP3   OH267632   0.505   4.975   5.277 -0.3775  0.2050 -0.2588
15406TIP3    H167633   0.507   4.886   5.313 -0.3498  0.9703  1.7435
15406TIP3    H267634   0.427   5.015   5.315 -0.8472  0.8129 -1.7850
15407TIP3   OH267635   0.408   6.213   5.736  0.2519 -0.1824 -0.9111
15407TIP3    H167636   0.327   6.180   5.699 -0.7817  1.0416  0.1672
15407TIP3    H267637   0.381   6.286   5.791  2.1356  0.5376 -0.8736
15408TIP3   OH267638   3.681   1.050   2.270  0.5295 -0.3236  0.1436
15408TIP3    H167639   3.724   1.070   2.187 -0.7852 -1.6959 -0.9248
15408TIP3    H267640   3.594   1.017   2.244 -0.1723 -0.1200  2.1001
15409TIP3   OH267641   6.543   3.142  11.493  0.1321  0.1717 -0.3202
15409TIP3    H167642   6.624   3.110  11.454 -0.7921 -0.6222 -1.6848
15409TIP3    H267643   6.505   3.198  11.425  0.0696  1.4622  0.7398
15410TIP3   OH267644   5.033   3.992   5.704 -0.0199 -0.2637  0.7366
15410TIP3    H167645   4.987   3.938   5.640 -0.9396  0.5621  0.6655
15410TIP3    H267646   5.049   3.934   5.779 -0.8765 -0.6676  0.6129
15411TIP3   OH267647   1.900   4.970   3.178 -0.3457 -0.1298 -0.5761
15411TIP3    H167648   1.893   4.876   3.164 -0.0393 -0.3296  0.5127
15411TIP3    H267649   1.959   4.979   3.253 -0.2465  0.9361 -0.7651
15412TIP3   OH267650   2.861   2.179  16.566  0.4577 -0.4339  0.1849
15412TIP3    H167651   2.795   2.190  16.634 -0.3496 -3.1756 -0.0362
15412TIP3    H267652   2.921   2.114  16.601  1.5627  0.0842 -0.6881
15413TIP3   OH267653   1.210   0.004   5.414  0.0145  0.0857 -0.0707
15413TIP3    H167654   1.285  -0.018   5.359 -0.6637 -1.0406 -0.5797
15413TIP3    H267655   1.172  -0.081   5.437  0.4173  0.4998  2.3666
15414TIP3   OH267656   0.952   2.469  15.256  0.6143 -0.0913  0.7119
15414TIP3    H167657   0.970   2.415  15.332 -2.4377 -0.7966  1.0464
15414TIP3    H267658   1.027   2.456  15.198  1.7257 -1.6527  2.4288
15415TIP3   OH267659   5.191   6.297  14.501  0.1611 -0.3078  0.2951
15415TIP3    H167660   5.267   6.317  14.556  0.7195 -0.8960 -0.2403
15415TIP3    H267661   5.151   6.382  14.483  1.3161  0.1331 -0.2897
15416TIP3   OH267662   3.505   1.913   2.603 -0.4830 -0.6226  0.1374
15416TIP3    H167663   3.511   1.964   2.522  0.6935  1.0845  1.2390
15416TIP3    H267664   3.462   1.831   2.577 -0.1913 -0.0980 -2.1816
15417TIP3   OH267665   1.498   2.709  13.951 -0.1663  0.1409 -0.0133
15417TIP3    H167666   1.409   2.731  13.979  0.4342  0.4537  1.7405
15417TIP3    H267667   1.492   2.618  13.921 -0.9714 -0.0117  0.5828
15418TIP3   OH267668   1.954   0.931   2.923  0.2755  0.4594 -0.5110
15418TIP3    H167669   1.999   0.957   3.003  0.8809 -0.0721 -0.6742
15418TIP3    H267670   2.021   0.932   2.855  0.8703 -3.2419 -0.2226
15419TIP3   OH267671   5.107   3.394  13.518 -0.3760 -0.3084 -0.2732
15419TIP3    H167672   5.057   3.388  13.437 -0.6331 -2.3612 -0.0252
15419TIP3    H267673   5.048   3.359  13.585  0.6384 -0.8485  0.3712
15420TIP3   OH267674   6.155   3.596  13.859 -0.1725  0.4773 -0.6309
15420TIP3    H167675   6.225   3.532  13.873  0.0527  0.7872 -0.3137
15420TIP3    H267676   6.137   3.591  13.765 -0.1717 -0.0635 -0.6029
15421TIP3   OH267677   6.236   4.446   3.342  0.4585  0.4453 -0.4441
15421TIP3    H167678   6.231   4.527   3.291  1.6742  1.1530  0.5112
15421TIP3    H267679   6.156   4.448   3.395 -0.2814  0.2336 -1.5181
15422TIP3   OH267680   5.564   0.860  13.038 -0.3634  0.1162  0.1098
15422TIP3    H167681   5.566   0.923  12.966  0.6873  0.1333  0.1310
15422TIP3    H267682   5.471   0.849  13.059 -0.5683  1.6819  0.1376
15423TIP3   OH267683   3.939   0.402  16.673  0.6774 -1.0501 -0.5935
15423TIP3    H167684   3.877   0.335  16.645  0.5215 -0.2766 -2.2069
15423TIP3    H267685   3.893   0.450  16.741 -0.5155 -0.4981 -1.7583
15424TIP3   OH267686   4.445   4.950   2.347 -0.5172 -0.1082 -0.2210
15424TIP3    H167687   4.373   5.003   2.312 -0.1211 -0.4034 -1.5613
15424TIP3    H267688   4.476   4.900   2.271  1.2286  0.1618  0.2839
15425TIP3   OH267689   3.801   0.465   0.510  0.0899 -0.0426 -0.0613
15425TIP3    H167690   3.747   0.467   0.589  0.1891 -0.2877  0.0095
15425TIP3    H267691   3.828   0.556   0.498  0.7613 -0.1453  0.6481
15426TIP3   OH267692   3.765   5.341  11.776  0.0964 -0.2338  0.5881
15426TIP3    H167693   3.779   5.247  11.780  0.8275 -0.2038 -0.6333
15426TIP3    H267694   3.731   5.364  11.862 -0.4735 -1.6655  0.7700
15427TIP3   OH267695   4.456   0.742  15.518  0.5108 -0.3809 -0.4658
15427TIP3    H167696   4.408   0.768  15.596 -1.8265 -0.4583 -1.7755
15427TIP3    H267697   4.483   0.652  15.535 -1.5221 -1.0237 -0.3815
15428TIP3   OH267698   2.956   3.609  12.495 -0.0855  0.1509  0.0391
15428TIP3    H167699   2.957   3.633  12.402  1.4159  0.2946  0.0659
15428TIP3    H267700   2.999   3.682  12.539  0.6083 -0.6066  0.6512
15429TIP3   OH267701   1.324   6.635   4.898 -0.2719  0.7593 -0.2314
15429TIP3    H167702   1.228   6.640   4.896 -0.3240 -0.2215 -1.2638
15429TIP3    H267703   1.345   6.609   4.987 -0.9914  0.7581 -0.0589
15430TIP3   OH267704   5.936   0.761   6.740 -0.6893 -0.1244 -0.3698
15430TIP3    H167705   5.990   0.682   6.735 -1.1506 -0.4250 -0.7137
15430TIP3    H267706   5.860   0.741   6.686 -0.9990  0.4096 -0.1376
15431TIP3   OH267707   6.149   1.048   2.748 -0.2488 -0.2765  0.4416
15431TIP3    H167708   6.122   1.107   2.678  2.7921 -0.3384 -0.9363
15431TIP3    H267709   6.101   0.967   2.730 -3.4393  1.1860  1.5763
15432TIP3   OH267710   0.069   5.541  13.956  0.0666 -0.1372 -0.1116
15432TIP3    H167711   0.068   5.457  14.001  0.9559  0.0213  0.2293
15432TIP3    H267712   0.100   5.604  14.022 -3.6574  1.1046  0.6675
15433TIP3   OH267713   3.625   6.186   4.889  0.2119 -0.4178 -0.0087
15433TIP3    H167714   3.629   6.260   4.828 -0.6836 -1.1159 -0.9583
15433TIP3    H267715   3.532   6.162   4.891  0.3629 -0.9519  0.9754
15434TIP3   OH267716   4.295   2.184   0.831 -0.6799 -0.1863  0.1049
15434TIP3    H167717   4.223   2.121   0.837  0.7132 -1.9788 -0.9667
15434TIP3    H267718   4.311   2.210   0.921  0.3934 -3.4407  0.9754
15435TIP3   OH267719   3.366   4.111   2.169  0.1221  0.1156  0.5959
15435TIP3    H167720   3.412   4.081   2.090 -0.6212 -1.7945  0.8276
15435TIP3    H267721   3.359   4.206   2.158 -0.0131 -0.0940 -1.6658
15436TIP3   OH267722   1.407   0.244   2.772 -0.7405  0.6416 -0.4685
15436TIP3    H167723   1.452   0.187   2.710 -1.0297  0.3435 -0.4102
15436TIP3    H267724   1.419   0.202   2.857 -2.0361 -0.0383 -0.5895
15437TIP3   OH267725   1.479   6.748   2.314 -0.0837 -0.4716 -0.2887
15437TIP3    H167726   1.545   6.802   2.272 -0.4154  0.7476  0.7068
15437TIP3    H267727   1.459   6.680   2.250  0.2901  0.6231 -1.6016
15438TIP3   OH267728   5.862   1.535  13.397  0.0538  0.4754  0.0287
15438TIP3    H167729   5.833   1.445  13.380 -0.4842  0.7299 -0.4379
15438TIP3    H267730   5.860   1.577  13.311 -0.7368  1.2351  0.4041
15439TIP3   OH267731   4.630   4.072   1.815  0.0720  0.0165  0.1643
15439TIP3    H167732   4.626   4.121   1.733  0.1040 -0.7504 -0.2958
15439TIP3    H267733   4.616   4.139   1.883  1.2798  0.8549 -0.3872
15440TIP3   OH267734   5.355   3.926   5.125 -0.3181  0.2497 -0.2124
15440TIP3    H167735   5.305   3.851   5.156 -0.0110 -0.3874 -1.2256
15440TIP3    H267736   5.326   3.938   5.035  2.7473 -1.3819 -1.5341
15441TIP3   OH267737   0.442   0.745   3.917 -0.0105  0.4570  0.1317
15441TIP3    H167738   0.361   0.694   3.910  0.4520 -0.1791 -0.8121
15441TIP3    H267739   0.483   0.712   3.997 -0.7778  0.9364  0.7319
15442TIP3   OH267740   6.729   5.884   2.775 -0.6208  0.2464  0.5039
15442TIP3    H167741   6.812   5.890   2.823 -0.4844  0.0713  0.2868
15442TIP3    H267742   6.681   5.815   2.819 -0.7129  0.4452  0.7217
15443TIP3   OH267743   4.790   2.965  13.707  0.5820 -0.1799  0.0481
15443TIP3    H167744   4.871   2.943  13.660  1.1221 -0.6903  1.1802
15443TIP3    H267745   4.788   2.905  13.781 -0.5428  0.2289  0.3680
15444TIP3   OH267746   5.644   4.376   5.965  0.5263  0.2779  0.4433
15444TIP3    H167747   5.600   4.389   6.049  0.5470  2.5590  0.1644
15444TIP3    H267748   5.736   4.396   5.982  0.6645  0.0092  0.0378
15445TIP3   OH267749   4.596   2.648   2.892 -0.0209 -0.6649 -0.4929
15445TIP3    H167750   4.662   2.582   2.914  1.3180  0.7985  0.0371
15445TIP3    H267751   4.539   2.651   2.969  1.9941  1.2349  1.0255
15446TIP3   OH267752   5.913   5.268  16.078  0.2647  0.1367  0.2764
15446TIP3    H167753   5.855   5.303  16.010  1.0049  1.7275  0.4267
15446TIP3    H267754   5.865   5.193  16.114 -0.3173 -0.5032 -1.7011
15447TIP3   OH267755   0.998   3.126   5.373 -0.3009  0.2140  0.2553
15447TIP3    H167756   1.039   3.206   5.340 -1.0322  0.1931 -0.7454
15447TIP3    H267757   1.068   3.081   5.421  0.3748  0.9914  0.0126
15448TIP3   OH267758   2.485   1.553   5.724  0.2902 -0.0739  0.3671
15448TIP3    H167759   2.456   1.482   5.781 -1.8796 -0.2260 -0.8290
15448TIP3    H267760   2.562   1.518   5.678 -0.1309 -1.2567  0.5516
15449TIP3   OH267761   0.079   1.179   1.937 -0.3412  0.4228 -0.0407
15449TIP3    H167762   0.018   1.164   2.009 -1.1797  1.2151 -0.5654
15449TIP3    H267763   0.153   1.121   1.955 -0.9447 -0.0464  0.9717
15450TIP3   OH267764   3.437   2.129  14.582  0.7054  0.6353  0.3984
15450TIP3    H167765   3.476   2.043  14.568  0.3646  0.7412 -1.5112
15450TIP3    H267766   3.344   2.112  14.598  0.8231  0.6014  1.0689
15451TIP3   OH267767   2.424   5.706   3.636  0.1841 -0.8231  0.3558
15451TIP3    H167768   2.390   5.622   3.606 -0.8433 -0.0919 -0.5983
15451TIP3    H267769   2.384   5.771   3.578  2.0765  0.2214  0.1363
15452TIP3   OH267770   2.139   4.448   0.166  0.2363 -0.2951  0.4929
15452TIP3    H167771   2.159   4.375   0.224 -0.6846 -0.4559  0.6183
15452TIP3    H267772   2.093   4.408   0.092 -1.2280  0.2746  1.0611
15453TIP3   OH267773   3.460   3.639  12.693 -0.2130  0.8311  0.1441
15453TIP3    H167774   3.450   3.576  12.621  1.1215 -0.5743  1.0969
15453TIP3    H267775   3.437   3.589  12.771  1.6263  1.2635  1.0149
15454TIP3   OH267776   5.496   3.807   4.309 -0.1400 -0.1700  0.2461
15454TIP3    H167777   5.446   3.871   4.258 -1.1024 -1.0336  0.0756
15454TIP3    H267778   5.539   3.752   4.242 -0.8580 -0.8814  0.3554
15455TIP3   OH267779   2.961   3.344  12.386  0.2348 -0.0355 -0.5185
15455TIP3    H167780   2.952   3.399  12.464  0.1427 -0.9812  0.1554
15455TIP3    H267781   3.046   3.366  12.350  1.0659 -0.8341  0.8637
15456TIP3   OH267782   0.010   0.015  11.179  0.2508  0.6036  0.2478
15456TIP3    H167783  -0.085   0.017  11.188  0.1206  1.9849 -0.9992
15456TIP3    H267784   0.043   0.031  11.267 -0.7204  2.0836  0.3764
15457TIP3   OH267785   2.547   5.984   3.400 -0.2998  0.4591  0.1234
15457TIP3    H167786   2.598   6.057   3.436  0.9418  0.3519 -1.3097
15457TIP3    H267787   2.519   6.015   3.314 -3.8772  1.0205  1.3295
15458TIP3   OH267788   5.970   6.776  16.538 -0.2199  0.0465 -0.4427
15458TIP3    H167789   5.996   6.822  16.458 -1.7291  0.9070 -0.4836
15458TIP3    H267790   5.984   6.684  16.518 -1.3032  0.1775 -2.0218
15459TIP3   OH267791   1.803   4.096  15.706  0.2653  0.0061 -0.3392
15459TIP3    H167792   1.850   4.030  15.654  0.7821 -0.8893  1.2031
15459TIP3    H267793   1.733   4.047  15.750  1.0197  0.3196  1.3003
15460TIP3   OH267794   2.490   2.513   2.938 -0.4605  0.5767  0.3521
15460TIP3    H167795   2.491   2.514   2.842  1.0065 -0.2696  0.3345
15460TIP3    H267796   2.569   2.464   2.963 -1.1333  0.2435  1.9861
15461TIP3   OH267797   6.122   0.384  16.788 -0.5233  0.5327  0.1951
15461TIP3    H167798   6.107   0.353  16.698 -0.9232 -0.0857  0.4740
15461TIP3    H267799   6.047   0.441  16.806 -0.6091  0.3986  0.2573
15462TIP3   OH267800   0.542   0.133  11.239 -0.0579 -0.2991  0.2643
15462TIP3    H167801   0.520   0.071  11.309  0.3555 -0.1592  0.5296
15462TIP3    H267802   0.604   0.193  11.281 -1.8854  1.4731  0.5844
15463TIP3   OH267803   3.944   1.871  10.924 -0.1813 -0.9441  0.1711
15463TIP3    H167804   3.964   1.822  10.844  0.9436  3.0076 -2.2502
15463TIP3    H267805   4.030   1.892  10.961 -0.1537  3.3038 -1.7924
15464TIP3   OH267806   6.292   2.637   6.351 -0.0788 -0.0017 -0.6053
15464TIP3    H167807   6.201   2.660   6.332 -0.1826 -0.0162 -0.1268
15464TIP3    H267808   6.321   2.703   6.413  0.2914  0.0971 -0.8776
15465TIP3   OH267809   0.288   5.668   3.540 -0.2903 -0.1864  0.0207
15465TIP3    H167810   0.241   5.749   3.519 -1.2911 -1.0394 -1.2144
15465TIP3    H267811   0.224   5.598   3.525  0.2342 -1.1803  2.0311
15466TIP3   OH267812   1.982   1.106   3.563  0.2352  0.4184 -0.2851
15466TIP3    H167813   1.971   1.084   3.655 -0.1996  2.1728  0.1055
15466TIP3    H267814   2.075   1.093   3.545  0.8143  2.3939  1.0619
15467TIP3   OH267815   6.102   3.862  12.192 -0.2190  0.3516 -0.4071
15467TIP3    H167816   6.198   3.865  12.185 -0.3375  1.6772 -2.1775
15467TIP3    H267817   6.073   3.948  12.163 -1.9300  0.4578  1.4190
15468TIP3   OH267818   1.341   6.722   1.849  0.2210 -0.1155  0.5466
15468TIP3    H167819   1.267   6.711   1.908  1.5799 -2.1591  2.0207
15468TIP3    H267820   1.398   6.785   1.894 -0.7719  1.8478 -0.8211
15469TIP3   OH267821   5.817   1.934  11.287 -0.0541  0.2194  0.2933
15469TIP3    H167822   5.894   1.887  11.254  0.6796  1.7622 -0.3108
15469TIP3    H267823   5.760   1.866  11.322  2.0034 -0.9218  1.6641
15470TIP3   OH267824   3.197   5.460   4.725 -0.2756 -0.4839  0.4887
15470TIP3    H167825   3.131   5.526   4.705  0.6762  1.0058  2.0770
15470TIP3    H267826   3.215   5.471   4.818  0.8653 -2.1228  0.5015
15471TIP3   OH267827   0.110   3.147   1.739  0.0051 -0.1944 -0.5179
15471TIP3    H167828   0.152   3.187   1.664  1.4501  0.0340  0.3843
15471TIP3    H267829   0.105   3.054   1.717 -0.4160 -0.0050 -1.2603
15472TIP3   OH267830   0.692   2.718   2.167 -0.1114  0.1714 -0.7794
15472TIP3    H167831   0.656   2.738   2.253 -1.7679  1.7862 -1.7679
15472TIP3    H267832   0.615   2.698   2.113  0.9193 -1.1960 -1.7949
15473TIP3   OH267833   2.744   1.540   0.724 -0.0548  0.0735 -0.2746
15473TIP3    H167834   2.816   1.483   0.697  0.8913  1.3817 -0.6161
15473TIP3    H267835   2.701   1.492   0.795  1.6000 -0.4368  0.4365
15474TIP3   OH267836   3.624   0.486   1.824  0.6470 -0.1474  0.3584
15474TIP3    H167837   3.619   0.554   1.757  1.0159 -1.3045 -0.8844
15474TIP3    H267838   3.542   0.496   1.874 -0.3213 -0.1845 -1.1744
15475TIP3   OH267839   5.544   0.661  11.851 -0.3984  0.4292  0.5955
15475TIP3    H167840   5.566   0.586  11.907 -0.3276  1.6687  2.2939
15475TIP3    H267841   5.627   0.689  11.814  0.1160  1.6264  2.5349
15476TIP3   OH267842   0.958   5.687   3.082 -0.5826 -0.3286 -0.4930
15476TIP3    H167843   0.889   5.693   3.015 -0.3820 -1.8190 -0.8740
15476TIP3    H267844   0.915   5.646   3.157 -0.2840 -0.5971 -0.4677
15477TIP3   OH267845   1.608   0.736  11.384 -0.3468 -0.0008  0.6674
15477TIP3    H167846   1.544   0.665  11.378 -0.9814  0.6239 -0.3963
15477TIP3    H267847   1.642   0.744  11.295  0.0064  0.7732  0.8692
15478TIP3   OH267848   4.218   0.514   0.878 -0.4496  0.6160  0.1101
15478TIP3    H167849   4.265   0.586   0.921 -0.4840  1.2460 -0.8712
15478TIP3    H267850   4.271   0.437   0.895 -0.4672  0.8518  1.2714
15479TIP3   OH267851   4.993   0.369   1.348  0.1296  0.1610 -0.3068
15479TIP3    H167852   5.007   0.367   1.443 -1.9488  0.4700  0.0577
15479TIP3    H267853   5.001   0.277   1.321  1.5120  0.1647 -0.0010
15480TIP3   OH267854   2.505   4.634  15.960 -0.2941 -0.0598  0.4681
15480TIP3    H167855   2.534   4.613  15.872 -0.2332  0.4204  0.3692
15480TIP3    H267856   2.410   4.646  15.951 -0.4532 -1.0739  0.6820
15481TIP3   OH267857   5.155   5.582   1.572  0.2352  0.1528 -0.2362
15481TIP3    H167858   5.120   5.541   1.651 -1.4052  1.9835  0.0448
15481TIP3    H267859   5.229   5.526   1.547  2.3600  0.7163  3.9003
15482TIP3   OH267860   3.656   3.522  11.885  0.5085 -0.5431 -0.6732
15482TIP3    H167861   3.634   3.522  11.979  0.4094  0.4582 -0.6819
15482TIP3    H267862   3.699   3.438  11.870  0.7299 -0.6170  0.3199
15483TIP3   OH267863   3.036   1.256  14.092 -0.4110 -0.3598  0.0038
15483TIP3    H167864   3.057   1.247  14.185  1.4851 -0.8785 -0.4378
15483TIP3    H267865   3.030   1.350  14.078  0.7630 -0.2154  0.3713
15484TIP3   OH267866   1.094   4.833  11.239  0.0355 -0.0031 -0.0357
15484TIP3    H167867   1.031   4.881  11.185 -0.0268  0.7522  0.6819
15484TIP3    H267868   1.099   4.883  11.320  3.1627  1.2210 -0.8267
15485TIP3   OH267869   3.784   4.457  13.027  0.5306 -0.0387  0.2373
15485TIP3    H167870   3.713   4.394  13.011  1.2002 -1.1602  1.5163
15485TIP3    H267871   3.846   4.441  12.956  0.7755 -0.9586  0.6455
15486TIP3   OH267872   2.987   3.320   5.519  1.0189 -0.5659  0.2646
15486TIP3    H167873   3.048   3.348   5.450 -0.2278 -1.0564 -1.0754
15486TIP3    H267874   2.986   3.225   5.513  1.7985 -0.7043  1.7967
15487TIP3   OH267875   0.962   3.804  13.516 -0.6478  0.2045 -0.4217
15487TIP3    H167876   0.948   3.882  13.462  2.1944  1.5998  0.6611
15487TIP3    H267877   1.049   3.773  13.491 -0.4478 -0.7781  1.3360
15488TIP3   OH267878   4.350   6.752  13.976  0.6463 -0.0371  0.0555
15488TIP3    H167879   4.314   6.797  13.899  2.4585  0.5806 -0.4731
15488TIP3    H267880   4.355   6.660  13.950  0.8054  0.0961 -0.3976
15489TIP3   OH267881   5.435   3.787  13.201 -0.5317 -0.1384  0.2466
15489TIP3    H167882   5.479   3.711  13.238  0.1157  0.0510 -0.1136
15489TIP3    H267883   5.474   3.862  13.246 -1.3700 -0.0225  0.8087
15490TIP3   OH267884   0.472   5.780  11.700 -0.4537 -0.3196  0.2800
15490TIP3    H167885   0.391   5.831  11.701 -0.9436 -1.0873  1.5418
15490TIP3    H267886   0.478   5.748  11.610 -1.7538 -0.5627  0.2658
15491TIP3   OH267887   4.766   6.582  10.655  0.3107 -0.3432 -0.2533
15491TIP3    H167888   4.672   6.586  10.667  0.0478 -0.6872 -1.8746
15491TIP3    H267889   4.783   6.492  10.627  0.9869 -0.0659 -0.7834
15492TIP3   OH267890   4.305   3.725  16.041  0.3643  0.1643  0.1736
15492TIP3    H167891   4.343   3.692  15.959  0.0869  2.1430 -0.7963
15492TIP3    H267892   4.212   3.703  16.034  0.5266 -0.6809  0.5067
15493TIP3   OH267893   6.043   1.447  16.943 -0.1285  0.2295 -0.0015
15493TIP3    H167894   5.990   1.387  16.995  2.4637  0.5041  3.2348
15493TIP3    H267895   5.995   1.530  16.946 -1.8300 -0.6251 -1.3206
15494TIP3   OH267896   5.054   0.976  11.453  0.2344  0.6095 -0.1739
15494TIP3    H167897   5.099   1.004  11.532  1.0487  0.2951 -0.5182
15494TIP3    H267898   4.997   0.904  11.482  2.0522 -0.9135 -0.2064
15495TIP3   OH267899   4.930   2.250   2.553 -0.1891  0.0592 -0.6334
15495TIP3    H167900   4.968   2.204   2.629  2.1277 -0.8195 -2.2267
15495TIP3    H267901   4.996   2.314   2.527 -1.4864  1.2243 -1.2011
15496TIP3   OH267902   2.713   1.192  14.592  0.3519 -0.1070  0.7207
15496TIP3    H167903   2.661   1.188  14.673  0.4515 -1.7451  0.7253
15496TIP3    H267904   2.795   1.149  14.614  0.2474 -0.8908 -0.3551
15497TIP3   OH267905   6.559   4.752  15.274 -0.3634  0.4865  0.1040
15497TIP3    H167906   6.629   4.776  15.335  0.9166 -1.0349 -0.6960
15497TIP3    H267907   6.510   4.833  15.261  1.0267  1.5168  0.9667
15498TIP3   OH267908   1.000   5.392  11.067  0.2398 -0.5513 -0.4425
15498TIP3    H167909   1.065   5.335  11.028 -1.5281 -2.9803 -0.0473
15498TIP3    H267910   0.920   5.375  11.017 -0.3428  1.8375 -0.4797
15499TIP3   OH267911   1.770   5.384   2.692 -0.4196  0.2220  0.3643
15499TIP3    H167912   1.865   5.376   2.687 -0.5345 -1.2285  0.0382
15499TIP3    H267913   1.744   5.409   2.603 -0.3099  1.4019  0.6386
15500TIP3   OH267914   6.305   2.254   1.406  0.1620 -0.3572  0.3052
15500TIP3    H167915   6.235   2.278   1.467 -0.1473 -3.6651  1.4118
15500TIP3    H267916   6.381   2.303   1.437 -0.5907 -0.0843  1.8309
15501TIP3   OH267917   4.530   3.905   5.506  0.0586 -0.0071 -0.0424
15501TIP3    H167918   4.463   3.909   5.574 -0.5347  0.5493 -0.6328
15501TIP3    H267919   4.598   3.848   5.541  0.0876  0.7974  1.2907
15502TIP3   OH267920   5.209   0.168   5.300  0.0339 -0.9354  0.0602
15502TIP3    H167921   5.304   0.166   5.308  0.2895  2.0597 -0.9428
15502TIP3    H267922   5.192   0.207   5.214 -2.0546 -0.1548  0.7470
15503TIP3   OH267923   2.156   4.026  13.393  0.1766  0.5269  0.1010
15503TIP3    H167924   2.163   4.099  13.455  0.2590  1.8889 -1.4351
15503TIP3    H267925   2.141   4.068  13.309 -1.8281 -1.3255 -0.5511
15504TIP3   OH267926   1.681   6.650  10.555 -0.6353 -0.7144  0.3162
15504TIP3    H167927   1.769   6.673  10.586 -0.3828 -2.8157  1.3349
15504TIP3    H267928   1.633   6.733  10.555  0.8312  0.1857  1.5027
15505TIP3   OH267929   3.989   3.260  13.660 -0.2254  0.4594 -0.2291
15505TIP3    H167930   3.944   3.327  13.609  1.3432  1.2541 -0.6298
15505TIP3    H267931   3.986   3.292  13.750 -1.0402  0.1603 -0.1416
15506TIP3   OH267932   2.794   1.944   3.397  0.3184  0.0708  0.4061
15506TIP3    H167933   2.851   1.999   3.343  0.1886  1.3332  1.5115
15506TIP3    H267934   2.795   1.986   3.483  0.9943 -2.2329  1.5779
15507TIP3   OH267935   5.157   4.454  14.653  0.2449 -0.3654  0.1247
15507TIP3    H167936   5.187   4.463  14.744 -0.8327 -0.4790  0.5090
15507TIP3    H267937   5.225   4.496  14.601  0.0172  1.3490  1.1257
15508TIP3   OH267938   2.126   6.264  15.319  0.1834 -0.6466 -0.2201
15508TIP3    H167939   2.102   6.357  15.318 -0.0493 -0.6940  0.2633
15508TIP3    H267940   2.152   6.247  15.410  1.8823 -0.6567 -0.6826
15509TIP3   OH267941   1.810   1.633   1.648  0.4474  0.8007  0.2218
15509TIP3    H167942   1.794   1.708   1.592  1.1912  0.6365 -0.2250
15509TIP3    H267943   1.765   1.654   1.730 -1.7969  0.4496 -0.8557
15510TIP3   OH267944   2.307   5.739  13.329 -0.2216  0.1755  0.4876
15510TIP3    H167945   2.227   5.732  13.382 -0.0727 -0.1012  0.6732
15510TIP3    H267946   2.309   5.659  13.277 -0.0597  0.1789  0.4888
15511TIP3   OH267947   0.045   1.336  16.057  0.3733  0.1102 -0.2198
15511TIP3    H167948   0.057   1.394  16.132 -1.8235  1.3844 -0.7947
15511TIP3    H267949   0.118   1.357  15.999  2.1239 -0.9039  1.4652
15512TIP3   OH267950   5.347   4.607   4.818  0.0117 -0.3117  0.2215
15512TIP3    H167951   5.270   4.592   4.874  0.2172  0.1550  0.6377
15512TIP3    H267952   5.417   4.557   4.860 -0.0636 -0.7427 -0.1623
15513TIP3   OH267953   4.271   3.213   6.166 -0.2250  0.1592  0.0728
15513TIP3    H167954   4.274   3.250   6.078  1.5615 -1.6188 -0.6955
15513TIP3    H267955   4.328   3.269   6.218 -1.6488  1.4928  0.2802
15514TIP3   OH267956   6.778   5.710   4.708  0.7299  0.3752 -0.0036
15514TIP3    H167957   6.869   5.696   4.682  0.7492  1.4806 -0.6041
15514TIP3    H267958   6.776   5.799   4.742 -0.1986  0.4981 -0.3463
15515TIP3   OH267959   5.860   4.098   6.450 -0.5078 -0.5292  0.3204
15515TIP3    H167960   5.818   4.156   6.514  0.1756  0.5027 -0.1463
15515TIP3    H267961   5.858   4.012   6.492 -1.8426 -0.2501  0.8885
15516TIP3   OH267962   1.127   1.318   5.311  0.4137  0.3352  0.0403
15516TIP3    H167963   1.213   1.296   5.277  0.5897 -0.2094  0.8180
15516TIP3    H267964   1.114   1.259   5.385 -0.7326  0.2359 -0.2142
15517TIP3   OH267965   4.754   4.543  13.947  0.1017 -0.3593  0.2431
15517TIP3    H167966   4.761   4.639  13.952 -1.6550 -0.1894  0.2941
15517TIP3    H267967   4.748   4.516  14.039 -1.0148 -0.3385  0.1884
15518TIP3   OH267968   1.594   0.133   6.546  0.0807 -0.1987 -0.0474
15518TIP3    H167969   1.620   0.055   6.497 -2.8784 -1.1177 -0.3423
15518TIP3    H267970   1.587   0.202   6.480  1.0649 -0.0805 -0.0469
15519TIP3   OH267971   5.418   5.159  12.768  0.5633 -0.1492 -0.3888
15519TIP3    H167972   5.488   5.150  12.833  0.4453 -1.5322 -0.4341
15519TIP3    H267973   5.415   5.253  12.750  0.5563  0.2957  1.6514
15520TIP3   OH267974   4.752   3.263  12.858  0.2135  0.0561 -0.1736
15520TIP3    H167975   4.840   3.229  12.842  0.5077  0.8990 -0.3980
15520TIP3    H267976   4.743   3.260  12.954 -0.0108 -1.2156 -0.2175
15521TIP3   OH267977   5.810   0.445  11.761 -0.3200 -0.0831  0.6962
15521TIP3    H167978   5.823   0.532  11.800 -1.3977  0.1845  0.4999
15521TIP3    H267979   5.845   0.384  11.825 -0.6038  0.4442  1.3642
15522TIP3   OH267980   6.220   4.584   4.005 -0.5241 -0.1564 -0.1874
15522TIP3    H167981   6.246   4.510   3.949  1.8442  0.9843 -0.7247
15522TIP3    H267982   6.255   4.562   4.091 -2.0360 -0.7832  0.2914
15523TIP3   OH267983   1.930   6.552  15.079  0.2731  0.2599  0.5925
15523TIP3    H167984   1.847   6.590  15.109  0.4761 -0.3390  1.9594
15523TIP3    H267985   1.912   6.526  14.988 -0.2568  2.3915  0.0212
15524TIP3   OH267986   0.802   6.432   1.821  0.6952 -0.3784 -0.0647
15524TIP3    H167987   0.813   6.337   1.832 -0.6893 -0.4832  0.7152
15524TIP3    H267988   0.843   6.452   1.737  0.7656 -1.7230 -0.3676
15525TIP3   OH267989   5.750   5.109   0.384 -0.3649  0.5948  0.4021
15525TIP3    H167990   5.807   5.051   0.334 -0.8870 -0.4051  0.9377
15525TIP3    H267991   5.663   5.096   0.347 -0.3710  1.6559 -0.0021
15526TIP3   OH267992   5.200   6.507   3.428 -0.4721 -0.2653 -0.2244
15526TIP3    H167993   5.170   6.432   3.480  0.1534  0.4662  1.2776
15526TIP3    H267994   5.120   6.555   3.407 -0.8538 -1.2202 -0.9986
15527TIP3   OH267995   0.753   6.626  10.993  0.1318  0.3949  0.1648
15527TIP3    H167996   0.790   6.624  11.082  0.5446 -1.8696  0.0160
15527TIP3    H267997   0.816   6.576  10.941 -1.1787 -0.1554 -0.9332
15528TIP3   OH267998   1.203   6.532   5.888  0.5387 -0.0848 -0.0514
15528TIP3    H167999   1.276   6.477   5.918 -0.2708 -1.3883 -0.4125
15528TIP3    H268000   1.135   6.518   5.953  0.0742 -0.0462 -0.5277
15529TIP3   OH268001   0.370   1.549  14.729  0.3762 -0.0048  0.0356
15529TIP3    H168002   0.329   1.616  14.783 -0.2798 -1.2433  1.1286
15529TIP3    H268003   0.298   1.510  14.679  0.1570 -1.9826  1.7367
15530TIP3   OH268004   4.640   4.140   3.364 -0.7515 -0.6515 -0.2403
15530TIP3    H168005   4.631   4.094   3.280  0.4126 -0.4709 -0.4724
15530TIP3    H268006   4.551   4.171   3.382 -0.8653  0.1068 -1.8688
15531TIP3   OH268007   2.839   5.968  14.750  0.0115  0.5283 -0.1718
15531TIP3    H168008   2.901   5.910  14.705  0.4112  1.0339 -0.2796
15531TIP3    H268009   2.765   5.912  14.771 -0.1106  0.2468 -1.3105
15532TIP3   OH268010   0.232   5.947  12.369 -0.1727 -0.1391  0.6545
15532TIP3    H168011   0.258   5.857  12.387 -0.8827  0.0357  2.8248
15532TIP3    H268012   0.139   5.942  12.347 -0.4857  0.1152  1.8095
15533TIP3   OH268013   1.719   4.858  10.676 -0.0190 -0.2728 -0.2787
15533TIP3    H168014   1.788   4.924  10.676  0.0391 -0.3342 -0.1015
15533TIP3    H268015   1.736   4.806  10.597  0.6130 -0.7831  0.1857
15534TIP3   OH268016   6.275   5.173  14.939 -0.1216  0.5751  0.1979
15534TIP3    H168017   6.266   5.267  14.921 -1.3570  0.8123  1.8925
15534TIP3    H268018   6.341   5.168  15.008  0.4378  0.1232 -0.3585
15535TIP3   OH268019   4.313   1.854  16.855  0.1462  0.5112  0.8561
15535TIP3    H168020   4.231   1.903  16.855  0.4412  1.0018  1.2252
15535TIP3    H268021   4.338   1.850  16.762  0.2573  1.2853  0.8515
15536TIP3   OH268022   3.467   5.047  15.701 -0.0542 -0.0149  0.2107
15536TIP3    H168023   3.449   4.991  15.625 -0.3719 -0.2661  0.4714
15536TIP3    H268024   3.556   5.022  15.728  0.1393  0.2175 -0.1974
15537TIP3   OH268025   2.847   3.991  10.405 -0.0149  0.0791 -0.0314
15537TIP3    H168026   2.822   4.081  10.384 -0.3647 -0.6957 -3.7828
15537TIP3    H268027   2.942   3.989  10.391  0.0282 -0.0706  0.2849
15538TIP3   OH268028   4.775   3.780  16.439 -0.5577 -0.4550  0.2732
15538TIP3    H168029   4.818   3.865  16.431  1.2853 -1.3404  0.2998
15538TIP3    H268030   4.726   3.770  16.357  1.1583 -0.3912 -0.8009
15539TIP3   OH268031   3.268   2.644  16.589  0.4801 -0.2804 -0.1284
15539TIP3    H168032   3.320   2.586  16.645  0.4684  1.7488  2.1761
15539TIP3    H268033   3.187   2.657  16.638 -0.3627  0.1029 -1.5642
15540TIP3   OH268034   2.132   4.639  16.867 -0.1201  0.1405 -0.5561
15540TIP3    H168035   2.038   4.653  16.865  0.0586  1.3910 -1.8820
15540TIP3    H268036   2.170   4.727  16.869  1.0456 -0.3109  2.0615
15541TIP3   OH268037   3.918   3.386  16.622  0.4575 -0.7101 -0.0233
15541TIP3    H168038   3.946   3.458  16.679 -1.3983 -1.5697  2.0783
15541TIP3    H268039   3.836   3.417  16.583 -0.5389 -1.7772  1.1687
15542TIP3   OH268040   3.876   6.103   4.989  0.0472 -0.3737 -0.0844
15542TIP3    H168041   3.796   6.145   4.955 -0.0699  0.8318  1.5428
15542TIP3    H268042   3.926   6.175   5.028  1.1560 -1.3671  0.3893
15543TIP3   OH268043   2.714   2.299   2.390 -0.3507  0.2326 -0.4424
15543TIP3    H168044   2.678   2.355   2.459 -0.9666  1.6644 -1.8738
15543TIP3    H268045   2.640   2.281   2.332  0.1797 -0.8798 -0.8166
15544TIP3   OH268046   2.354   6.520   2.096 -0.6222 -0.4031 -0.1884
15544TIP3    H168047   2.266   6.516   2.060 -0.7886 -0.9975  0.2686
15544TIP3    H268048   2.377   6.613   2.095 -1.3132 -0.2307 -0.1722
15545TIP3   OH268049   3.996   2.640   3.309 -0.7405 -0.0908 -0.0007
15545TIP3    H168050   3.968   2.631   3.218  0.8432 -1.4759 -0.4040
15545TIP3    H268051   4.060   2.712   3.307 -0.4522 -0.3481 -0.0474
15546TIP3   OH268052   2.272   6.241  15.539 -0.1020 -0.6907  0.3116
15546TIP3    H168053   2.244   6.269  15.626 -3.1493 -1.8682 -0.1642
15546TIP3    H268054   2.359   6.203  15.553  0.1511  0.5581  2.5254
15547TIP3   OH268055   4.371   5.192   3.088  0.1725  0.4882 -0.5067
15547TIP3    H168056   4.373   5.118   3.028 -2.3491 -0.2033  0.1070
15547TIP3    H268057   4.342   5.266   3.035  1.3811  0.7210 -0.8467
15548TIP3   OH268058   2.670   2.106   4.547  0.4360  0.2672  0.1409
15548TIP3    H168059   2.751   2.055   4.546  1.7357  2.2055  1.4365
15548TIP3    H268060   2.631   2.087   4.632  0.2646  0.4702  0.1072
15549TIP3   OH268061   4.869   1.888   0.154 -0.3064  0.0844  0.1981
15549TIP3    H168062   4.877   1.859   0.245 -1.2520  1.4009  0.7262
15549TIP3    H268063   4.800   1.833   0.118 -0.9479  0.5373  0.7132
15550TIP3   OH268064   1.034   0.307  15.585  0.3091 -0.2231 -0.1869
15550TIP3    H168065   1.086   0.383  15.558 -0.7521  0.2246 -1.0422
15550TIP3    H268066   1.092   0.258  15.644  0.8365  1.4848  0.7755
15551TIP3   OH268067   4.756   1.052  15.136  0.3639  0.3018 -0.5112
15551TIP3    H168068   4.784   0.966  15.166  1.0621  0.4474 -0.7203
15551TIP3    H268069   4.704   1.034  15.058 -0.2536  0.0173 -0.0445
15552TIP3   OH268070   5.520   0.959  11.815 -0.0197 -0.5426  0.6978
15552TIP3    H168071   5.425   0.958  11.827 -0.0127  0.4233  0.8967
15552TIP3    H268072   5.540   0.875  11.772 -1.2902  0.3199 -1.7714
15553TIP3   OH268073   0.356   3.633  14.544  0.6153 -0.2947 -0.0558
15553TIP3    H168074   0.269   3.639  14.504  1.1916  0.7832 -1.2174
15553TIP3    H268075   0.378   3.540  14.540 -0.7724 -0.7080  0.9452
15554TIP3   OH268076   0.923   5.681   4.262 -0.3094  0.0037 -0.0005
15554TIP3    H168077   0.893   5.692   4.352 -1.5909 -2.1987 -0.1015
15554TIP3    H268078   0.855   5.725   4.209 -0.5015 -0.2632  0.0239
15555TIP3   OH268079   5.739   3.040   0.067  1.1555 -0.1284 -0.1466
15555TIP3    H168080   5.814   3.075   0.114  0.9008 -2.1743  1.9403
15555TIP3    H268081   5.682   3.116   0.054  1.7823  0.7426  1.8190
15556TIP3   OH268082   1.713   3.033  11.223 -0.0934  0.2643 -0.3680
15556TIP3    H168083   1.678   3.106  11.173 -0.7898 -0.1405 -0.4743
15556TIP3    H268084   1.746   3.073  11.304 -0.0511  0.7541 -0.6231
15557TIP3   OH268085   4.732   5.281  11.425  0.4912  0.0641  0.1805
15557TIP3    H168086   4.678   5.353  11.457 -1.2736 -0.8743 -0.5609
15557TIP3    H268087   4.779   5.317  11.350  0.7471  0.8377  0.7042
15558TIP3   OH268088   0.323   0.116  16.195 -0.1218 -0.5508 -0.0299
15558TIP3    H168089   0.260   0.184  16.169  0.7596  0.4964  0.4870
15558TIP3    H268090   0.269   0.040  16.217 -1.3178  0.6916  1.5805
15559TIP3   OH268091   6.531   6.461   6.031 -0.0121 -0.2161 -0.1888
15559TIP3    H168092   6.557   6.381   6.077 -1.1038  0.2167  1.2747
15559TIP3    H268093   6.437   6.468   6.048 -0.5144 -0.1238 -2.7147
15560TIP3   OH268094   0.896   0.049  16.311  0.2646 -0.2989  0.2344
15560TIP3    H168095   0.831   0.066  16.379 -0.2674 -3.9095  0.8354
15560TIP3    H268096   0.916  -0.044  16.319  3.8065  0.1272 -1.4965
15561TIP3   OH268097   3.800   3.199  12.550  0.1729 -0.2736 -0.1081
15561TIP3    H168098   3.858   3.154  12.489  0.5869  0.4241 -0.2456
15561TIP3    H268099   3.774   3.132  12.613  0.8645 -0.6672 -0.2389
15562TIP3   OH268100   5.673   4.616  13.319 -0.0230  0.1110  0.0810
15562TIP3    H168101   5.705   4.701  13.289  0.4686  1.3265  3.5211
15562TIP3    H268102   5.587   4.606  13.277  0.5965  1.5052 -1.6499
15563TIP3   OH268103   1.166   4.736   4.789 -0.2050  0.2179 -0.3242
15563TIP3    H168104   1.183   4.830   4.800 -0.8008  0.1809  1.0732
15563TIP3    H268105   1.075   4.724   4.816  0.1042 -0.8851  0.2812
15564TIP3   OH268106   4.046   2.404   6.106  0.0743  0.4590 -0.0038
15564TIP3    H168107   3.962   2.449   6.112  0.1484  0.7665 -1.0050
15564TIP3    H268108   4.039   2.330   6.167 -0.9492  0.4315 -0.1435
15565TIP3   OH268109   2.785   3.442  13.691 -0.0631 -0.3941  0.0364
15565TIP3    H168110   2.782   3.396  13.775 -0.8569 -0.5044 -0.0464
15565TIP3    H268111   2.694   3.466  13.674  0.1476 -0.0475 -0.6149
15566TIP3   OH268112   6.701   0.605   3.502 -0.0724  0.1153  0.0806
15566TIP3    H168113   6.607   0.606   3.518  0.0563 -1.6389  1.1463
15566TIP3    H268114   6.728   0.516   3.521  1.6586  0.2941 -1.2474
15567TIP3   OH268115   1.308   0.889  12.978  0.0129  0.1064 -0.3033
15567TIP3    H168116   1.270   0.842  12.904 -1.0691 -1.9031  1.4054
15567TIP3    H268117   1.242   0.954  13.002 -1.2102 -1.4434  0.8422
15568TIP3   OH268118   4.894   2.069  16.099 -0.4571 -0.1799 -0.0637
15568TIP3    H168119   4.838   2.015  16.155  0.3772 -1.8847 -0.8107
15568TIP3    H268120   4.978   2.072  16.144 -0.1598 -0.4743 -0.5880
15569TIP3   OH268121   0.912   0.617   2.611 -0.3515  0.0122 -0.2072
15569TIP3    H168122   0.846   0.660   2.664  0.6240 -2.0445  2.9385
15569TIP3    H268123   0.981   0.683   2.601 -1.0126  0.7812  0.1758
15570TIP3   OH268124   6.621   5.968  13.753  0.5143 -0.2085 -0.7929
15570TIP3    H168125   6.546   5.978  13.694 -1.0903  1.1141  1.3115
15570TIP3    H268126   6.594   5.900  13.814  1.5243 -0.4925 -0.6384
15571TIP3   OH268127   6.305   2.715  11.832  0.1175  0.2488 -0.1828
15571TIP3    H168128   6.347   2.760  11.906  1.2346 -0.5082 -0.3308
15571TIP3    H268129   6.372   2.654  11.801 -0.8894 -0.5342 -0.8456
15572TIP3   OH268130   0.522   6.816  14.392 -0.1277  0.1006 -0.1392
15572TIP3    H168131   0.548   6.758  14.463  2.0352 -0.2815 -1.1498
15572TIP3    H268132   0.594   6.880  14.386 -1.2405  1.3584 -0.6826
15573TIP3   OH268133   5.125   0.631   0.109  0.2753 -0.1011 -0.1764
15573TIP3    H168134   5.079   0.698   0.160  0.2839 -0.8890  0.8864
15573TIP3    H268135   5.205   0.675   0.078 -0.1029  0.6089 -0.1639
15574TIP3   OH268136   2.962   4.531  12.960  0.4169 -0.1418 -0.2294
15574TIP3    H168137   3.052   4.563  12.954  0.3759  0.4187  1.4775
15574TIP3    H268138   2.908   4.609  12.952  0.2538  0.0876  2.1779
15575TIP3   OH268139   1.429   0.200   3.410  0.1332 -0.9183 -0.0383
15575TIP3    H168140   1.402   0.143   3.338  1.4505 -0.2755 -1.0823
15575TIP3    H268141   1.503   0.154   3.450  0.8800 -0.1997 -0.5703
15576TIP3   OH268142   6.819   0.276   0.471 -0.1828 -0.4815 -0.1834
15576TIP3    H168143   6.746   0.222   0.440 -0.3035 -1.0410  1.0267
15576TIP3    H268144   6.872   0.292   0.393 -1.1800 -0.7259 -0.9250
15577TIP3   OH268145   0.360   3.522  13.361  0.1974  0.5493  0.4713
15577TIP3    H168146   0.321   3.537  13.448  0.3052 -1.2481  0.8727
15577TIP3    H268147   0.339   3.430  13.342  1.1910  0.5911 -0.8930
15578TIP3   OH268148   2.258   6.559   1.569 -0.3274  0.0039  0.0512
15578TIP3    H168149   2.335   6.615   1.575 -0.5208  0.1581  1.5757
15578TIP3    H268150   2.186   6.620   1.553 -0.3636  0.0658  0.4309
15579TIP3   OH268151   5.785   6.733   2.465 -0.3810 -0.5348  0.1442
15579TIP3    H168152   5.778   6.705   2.373 -1.8952 -0.2009  0.1275
15579TIP3    H268153   5.778   6.651   2.515  1.1232 -0.7997 -0.0185
15580TIP3   OH268154   6.270   3.780   4.763 -0.1699 -0.2943 -0.2680
15580TIP3    H168155   6.302   3.744   4.680 -1.1064  0.6847 -1.0868
15580TIP3    H268156   6.210   3.850   4.737 -1.7847 -1.0566  1.2022
15581TIP3   OH268157   6.342   3.962  16.589  0.1344  0.3660  0.0562
15581TIP3    H168158   6.435   3.959  16.610 -0.0516  0.6319  0.9539
15581TIP3    H268159   6.298   3.928  16.667 -0.5445  0.6358 -0.1961
15582TIP3   OH268160   6.722   6.089  11.608 -0.1200  0.6521  0.8979
15582TIP3    H168161   6.739   6.183  11.607  1.3123  0.4113  1.0015
15582TIP3    H268162   6.673   6.075  11.689 -2.4747  1.6169 -0.2584
15583TIP3   OH268163   5.393   2.082   1.803 -0.1715 -0.7864 -0.4592
15583TIP3    H168164   5.483   2.063   1.829  0.1234  0.9392 -0.0860
15583TIP3    H268165   5.338   2.041   1.870  0.2365 -2.9827 -1.3943
15584TIP3   OH268166   1.664   5.514   1.350  0.0109 -0.0258 -0.6049
15584TIP3    H168167   1.672   5.609   1.359  2.0371 -0.0882 -1.1788
15584TIP3    H268168   1.603   5.502   1.277 -0.6830  0.8009 -0.1807
15585TIP3   OH268169   0.159   5.648  13.102  0.3924 -0.6291  0.5472
15585TIP3    H168170   0.091   5.649  13.034 -1.5353  1.0311  2.3500
15585TIP3    H268171   0.241   5.636  13.054 -1.0445 -1.4427 -1.8538
15586TIP3   OH268172   6.675   3.038  14.188 -0.3837 -0.6936 -0.2685
15586TIP3    H168173   6.729   3.117  14.188 -1.5769  0.1765  1.2004
15586TIP3    H268174   6.601   3.060  14.131 -0.4655 -0.9223 -0.2494
15587TIP3   OH268175   6.738   2.968   0.371 -0.3040  0.6122  0.0587
15587TIP3    H168176   6.818   2.965   0.319  0.4260  1.1888  1.1021
15587TIP3    H268177   6.766   2.942   0.459 -1.9896 -2.9916 -0.3249
15588TIP3   OH268178   5.424   3.039   1.105 -0.3056 -0.1364  0.1385
15588TIP3    H168179   5.405   2.952   1.070  0.8601 -0.1351 -0.5739
15588TIP3    H268180   5.362   3.096   1.061  0.3604 -0.3164 -1.0869
15589TIP3   OH268181   4.159   4.671  15.218 -0.0295 -0.2287  0.7541
15589TIP3    H168182   4.213   4.629  15.151 -1.1348 -0.8741  0.2279
15589TIP3    H268183   4.072   4.632  15.206 -0.9499  1.7294  0.6948
15590TIP3   OH268184   4.506   1.807  13.146  0.0558 -0.2445 -0.4360
15590TIP3    H168185   4.574   1.739  13.150  0.9132  0.6085 -0.0881
15590TIP3    H268186   4.494   1.823  13.053 -0.9924 -1.6694 -0.5776
15591TIP3   OH268187   2.847   3.177  12.125 -0.1998  0.2537  0.0939
15591TIP3    H168188   2.801   3.251  12.164 -2.4605 -1.4787  0.9073
15591TIP3    H268189   2.910   3.150  12.192 -1.0786 -0.0564  0.8050
15592TIP3   OH268190   0.812   2.513   3.302 -0.1116  0.0743  0.7281
15592TIP3    H168191   0.890   2.466   3.333  0.8929  1.3737  0.2878
15592TIP3    H268192   0.762   2.530   3.381 -0.1496 -1.0927  0.9781
15593TIP3   OH268193   6.550   2.158   0.212  0.2463  0.2963 -0.0788
15593TIP3    H168194   6.627   2.116   0.252 -0.4408  1.1223  2.3052
15593TIP3    H268195   6.478   2.099   0.232 -0.0909  0.6262 -0.3135
15594TIP3   OH268196   5.277   6.427   5.668 -0.0475 -0.4510  0.3837
15594TIP3    H168197   5.324   6.346   5.689 -0.7974 -1.1606 -0.5909
15594TIP3    H268198   5.337   6.497   5.692  1.9447 -1.3258 -1.7112
15595TIP3   OH268199   6.013   6.496   4.479 -0.0991 -0.1131 -1.0164
15595TIP3    H168200   5.981   6.557   4.413 -0.7453  0.1867 -0.4345
15595TIP3    H268201   5.978   6.529   4.562 -1.1675 -1.7407 -0.7823
15596TIP3   OH268202   2.019   3.320  16.996  0.0102  0.2096 -0.0971
15596TIP3    H168203   1.944   3.379  16.985 -1.8096 -1.8158  0.6993
15596TIP3    H268204   2.068   3.330  16.914 -0.3418  2.5777 -0.1101
15597TIP3   OH268205   6.300   2.440   3.250  0.1659 -0.1707 -0.3997
15597TIP3    H168206   6.310   2.365   3.309  0.4888 -0.5930 -0.9782
15597TIP3    H268207   6.266   2.510   3.305  0.1882 -0.6451  0.2238
15598TIP3   OH268208   5.401   6.218   2.167  0.0373  0.0956 -0.0340
15598TIP3    H168209   5.385   6.245   2.077  0.9367  1.1994  0.1136
15598TIP3    H268210   5.314   6.203   2.204 -0.3331 -0.6160 -1.1357
15599TIP3   OH268211   1.071   3.894   3.557 -0.0123 -0.1625  0.3151
15599TIP3    H168212   1.019   3.887   3.637  0.1627  0.1170  0.4558
15599TIP3    H268213   1.136   3.962   3.577 -0.4789  0.4986 -0.3458
15600TIP3   OH268214   1.097   5.124  12.048 -0.5562  0.2165  0.6148
15600TIP3    H168215   1.013   5.108  12.090  1.1335 -1.3501  3.7878
15600TIP3    H268216   1.148   5.170  12.115  1.0675  1.3755 -1.3178
15601TIP3   OH268217   0.430   1.159   5.999 -0.1501  0.0250 -0.2937
15601TIP3    H168218   0.432   1.144   6.094 -0.7813  0.1335 -0.2561
15601TIP3    H268219   0.346   1.202   5.984  0.0994  0.3267 -0.8608
15602TIP3   OH268220   3.249   1.801  16.623 -0.7740  0.4104  0.0551
15602TIP3    H168221   3.239   1.893  16.647 -0.1852  1.0508 -1.9042
15602TIP3    H268222   3.339   1.780  16.648 -0.9667  0.2951  0.6721
15603TIP3   OH268223   5.706   0.693  14.632  0.0673  0.1487  0.3221
15603TIP3    H168224   5.690   0.639  14.554  2.2543  0.3632 -0.3358
15603TIP3    H268225   5.620   0.702  14.673 -1.0179 -0.6126 -1.6530
15604TIP3   OH268226   4.298   4.995   0.820 -0.5363 -0.6619 -0.9395
15604TIP3    H168227   4.226   4.994   0.757 -0.3361 -2.9749 -1.2084
15604TIP3    H268228   4.375   5.019   0.769 -0.7393 -0.4268 -1.1322
15605TIP3   OH268229   6.219   0.692  11.376 -0.0881 -0.6907 -0.1344
15605TIP3    H168230   6.286   0.628  11.349  0.6084 -1.4964  3.0811
15605TIP3    H268231   6.155   0.640  11.425 -0.5603  0.7535  0.8622
15606TIP3   OH268232   0.626   2.434  14.449 -0.2197  0.3511  0.4556
15606TIP3    H168233   0.641   2.475  14.535 -2.8083  0.1230  1.0986
15606TIP3    H268234   0.678   2.354  14.452  0.0996  0.5754  1.6381
15607TIP3   OH268235   4.101   6.086  15.560 -0.2386 -0.1776  1.1142
15607TIP3    H168236   4.107   6.059  15.651 -0.0319  0.0753  1.1799
15607TIP3    H268237   4.124   6.179  15.561  1.1254 -0.4811  0.6334
15608TIP3   OH268238   1.808   6.806   1.646 -0.5841  0.4516 -0.4943
15608TIP3    H168239   1.778   6.836   1.732 -0.8689  0.6487 -0.6605
15608TIP3    H268240   1.741   6.743   1.618 -0.0569 -0.2561 -0.2044
15609TIP3   OH268241   5.061   3.358  14.008 -0.0260  0.3255  0.4696
15609TIP3    H168242   5.039   3.442  13.967 -1.8981  0.4199  1.5523
15609TIP3    H268243   5.096   3.306  13.936  0.1144  1.6560 -0.4723
15610TIP3   OH268244   5.896   5.409   2.177  0.4636  0.0553  0.4101
15610TIP3    H168245   5.801   5.412   2.186  0.5769  0.1308  1.8767
15610TIP3    H268246   5.916   5.473   2.108 -0.7367 -2.1856 -2.2081
15611TIP3   OH268247   0.713   1.667  15.240 -0.1829 -0.4501 -0.3796
15611TIP3    H168248   0.786   1.667  15.300 -1.0369 -0.6170  0.6872
15611TIP3    H268249   0.671   1.582  15.252 -0.4495 -0.4371 -1.1213
15612TIP3   OH268250   3.796   1.514   2.723 -0.1483  0.2068 -0.1396
15612TIP3    H168251   3.702   1.529   2.711  0.0098 -0.1552 -2.2275
15612TIP3    H268252   3.809   1.422   2.697  0.7959  0.3105 -0.0615
15613TIP3   OH268253   0.579   3.167  15.421 -0.1742 -0.1117  0.1002
15613TIP3    H168254   0.620   3.210  15.347  2.1816 -1.7130  0.3845
15613TIP3    H268255   0.550   3.083  15.387  0.9447 -0.8683  0.9490
15614TIP3   OH268256   1.952   2.200  11.002 -0.4172  0.0265 -0.0791
15614TIP3    H168257   1.958   2.265  10.932  1.9921 -0.8516 -0.8067
15614TIP3    H268258   1.905   2.127  10.962  1.2625 -0.6159 -0.9648
15615TIP3   OH268259   0.569   2.763   1.789 -0.0808  0.4550  0.1394
15615TIP3    H168260   0.526   2.827   1.732  1.8425  1.7385  0.0558
15615TIP3    H268261   0.524   2.773   1.873 -0.2026  1.5244 -0.0331
15616TIP3   OH268262   5.129   6.597   3.943  0.4588  0.3649 -0.1648
15616TIP3    H168263   5.216   6.563   3.926 -0.4434 -1.7757 -0.7761
15616TIP3    H268264   5.103   6.641   3.862  0.4586 -0.1433 -0.4389
15617TIP3   OH268265   0.693   6.474  14.770 -0.5232  0.0009 -0.2179
15617TIP3    H168266   0.637   6.528  14.715  0.0594  2.5519  1.5249
15617TIP3    H268267   0.640   6.458  14.849 -0.7001 -2.1155 -0.7037
15618TIP3   OH268268   4.483   2.935   5.296 -0.1959  0.0963  0.5195
15618TIP3    H168269   4.485   2.852   5.250  0.3164 -0.6452  1.8368
15618TIP3    H268270   4.516   2.999   5.232  1.9582 -1.1427  0.3108
15619TIP3   OH268271   3.691   4.118   0.134 -0.0215 -0.0618  0.5201
15619TIP3    H168272   3.763   4.056   0.149  0.2964 -0.0708 -0.9239
15619TIP3    H268273   3.673   4.112   0.040 -0.4895  1.4995  0.4852
15620TIP3   OH268274   2.595   3.888  13.284 -0.1085  0.1486  0.2881
15620TIP3    H168275   2.650   3.809  13.280 -0.5739 -0.1625 -0.0990
15620TIP3    H268276   2.569   3.894  13.376  1.5630  1.0025  0.7531
15621TIP3   OH268277   5.633   2.293  14.499 -0.8309  0.0810  0.0075
15621TIP3    H168278   5.645   2.362  14.564 -1.7599 -0.5367  0.8646
15621TIP3    H268279   5.542   2.301  14.472 -0.3977  0.4921 -1.4486
15622TIP3   OH268280   4.437   0.987   4.024 -0.0560  0.2494 -0.4863
15622TIP3    H168281   4.499   0.943   3.967  0.2689  0.9341 -0.6648
15622TIP3    H268282   4.420   0.924   4.094  0.5725 -0.0756 -0.6209
15623TIP3   OH268283   6.139   3.743  12.427  0.2195 -0.2571 -0.0306
15623TIP3    H168284   6.098   3.778  12.506  1.7362  1.1336  0.1759
15623TIP3    H268285   6.117   3.805  12.358 -1.0953 -1.4624 -0.7666
15624TIP3   OH268286   4.332   3.808  16.651 -0.0729 -0.0991  0.4023
15624TIP3    H168287   4.309   3.797  16.743 -1.0723  1.8874  0.4484
15624TIP3    H268288   4.282   3.885  16.623  1.2345  0.1431 -1.4357
15625TIP3   OH268289   3.568   2.525   3.027 -0.1128  0.0056  0.1972
15625TIP3    H168290   3.490   2.579   3.022 -0.3321 -0.2720  0.5573
15625TIP3    H268291   3.536   2.435   3.030  0.2429 -0.1405 -0.2578
15626TIP3   OH268292   6.141   1.509  14.725  0.5858  0.0045 -0.2684
15626TIP3    H168293   6.161   1.490  14.816 -1.8923 -0.7533  0.1936
15626TIP3    H268294   6.227   1.520  14.683  1.8980 -2.1233  1.6110
15627TIP3   OH268295   2.774   3.539   2.033  0.9849 -0.7760  0.1755
15627TIP3    H168296   2.745   3.580   2.114 -0.3897 -0.3463 -0.5028
15627TIP3    H268297   2.818   3.458   2.062  1.6288 -0.0303  1.3852
15628TIP3   OH268298   4.449   3.804  12.124  0.5298  0.0112 -0.0022
15628TIP3    H168299   4.436   3.898  12.110 -1.8247 -0.2238  0.0903
15628TIP3    H268300   4.437   3.792  12.218  1.6177 -0.3022  0.1099
15629TIP3   OH268301   0.335   1.658  12.614 -0.3155 -0.2331  0.1755
15629TIP3    H168302   0.301   1.644  12.703 -2.4439  1.1922 -0.3402
15629TIP3    H268303   0.342   1.753  12.606 -0.4001 -0.3296 -1.2685
15630TIP3   OH268304   1.246   5.483   0.906 -0.2712  0.5383  0.1248
15630TIP3    H168305   1.295   5.561   0.879 -0.3866  0.5510 -0.0445
15630TIP3    H268306   1.154   5.504   0.889 -0.4542  0.9751  1.5538
15631TIP3   OH268307   0.037   2.234   5.535 -0.2727 -0.4247 -0.3107
15631TIP3    H168308   0.108   2.281   5.579 -1.0723  0.0642  0.4834
15631TIP3    H268309   0.078   2.153   5.504  0.0816 -1.3783  2.3891
15632TIP3   OH268310   0.334   3.171   0.385 -0.4972 -0.4541 -0.8331
15632TIP3    H168311   0.400   3.131   0.441 -1.1770  0.2164  0.4798
15632TIP3    H268312   0.250   3.145   0.424 -0.9682  1.1596 -0.7120
15633TIP3   OH268313   0.439   4.406   2.772 -0.2719 -0.1661  0.1672
15633TIP3    H168314   0.528   4.440   2.779 -0.5474  0.6341 -0.0985
15633TIP3    H268315   0.391   4.448   2.843  0.0411 -2.2736  1.7274
15634TIP3   OH268316   0.052   6.788  12.244  0.2253  0.1414  0.3907
15634TIP3    H168317  -0.039   6.761  12.230 -0.0606  0.9741  0.5943
15634TIP3    H268318   0.048   6.852  12.316  1.3713 -2.3031  2.8203
15635TIP3   OH268319   6.037   1.402   2.054 -0.2575 -0.5883  0.0138
15635TIP3    H168320   5.959   1.346   2.064 -0.0035 -0.7432  1.1803
15635TIP3    H268321   6.034   1.461   2.129  0.1289  0.1834 -0.5706
15636TIP3   OH268322   0.947   0.866  13.831  0.1781 -0.0436 -0.0812
15636TIP3    H168323   0.949   0.853  13.736  1.0594  1.6714 -0.3546
15636TIP3    H268324   0.993   0.791  13.867  0.4343 -0.3809 -1.0737
15637TIP3   OH268325   1.721   6.350   2.107 -0.1810 -0.2660 -0.3850
15637TIP3    H168326   1.810   6.314   2.106  0.0343  0.1739  0.8777
15637TIP3    H268327   1.670   6.285   2.156 -0.4831 -0.3449 -0.7997
15638TIP3   OH268328   5.368   4.813  16.261 -0.4637  0.6570 -0.0361
15638TIP3    H168329   5.405   4.846  16.179 -0.7041 -1.0567 -0.8727
15638TIP3    H268330   5.444   4.808  16.320 -0.6407  4.0662  0.6944
15639TIP3   OH268331   3.333   0.969   6.474 -0.2156  0.1258 -0.1108
15639TIP3    H168332   3.419   1.003   6.499 -0.2222 -0.4872  0.7950
15639TIP3    H268333   3.274   1.044   6.480 -0.4765 -0.2030  3.0194
15640TIP3   OH268334   4.193   2.094   2.606 -0.5072  0.2865  0.7505
15640TIP3    H168335   4.181   2.004   2.578  1.6982 -0.2079  1.1660
15640TIP3    H268336   4.285   2.098   2.635  0.5222  3.3817 -2.2018
15641TIP3   OH268337   1.050   2.577   3.665 -0.1872  0.7016 -0.0231
15641TIP3    H168338   1.031   2.494   3.709 -0.1623  0.2102 -0.9158
15641TIP3    H268339   1.117   2.618   3.719  0.9873 -0.6044 -0.4474
15642TIP3   OH268340   0.518   5.605   3.939  0.5221 -0.4403 -0.5849
15642TIP3    H168341   0.548   5.610   3.848 -1.0604  2.6652 -1.1056
15642TIP3    H268342   0.436   5.655   3.939  0.9580  0.4964  2.7433
15643TIP3   OH268343   4.406   6.683  12.347  0.1368 -0.0978 -0.4675
15643TIP3    H168344   4.355   6.633  12.282  0.2603  0.2794 -0.8613
15643TIP3    H268345   4.341   6.740  12.389 -0.1428 -1.1311  0.5229
15644TIP3   OH268346   4.809   5.047   0.060 -0.3330 -0.0853 -0.2814
15644TIP3    H168347   4.723   5.057   0.101 -1.1207 -0.8041 -1.6653
15644TIP3    H268348   4.869   5.096   0.116 -1.3083 -1.1035  1.7774
15645TIP3   OH268349   6.459   6.377   0.546 -0.7915 -0.7190 -0.4917
15645TIP3    H168350   6.528   6.367   0.481  0.3282  1.0928  0.3609
15645TIP3    H268351   6.440   6.471   0.547 -1.1781 -0.7816  1.3752
15646TIP3   OH268352   4.060   6.306  12.565 -0.1936 -0.0562  0.1616
15646TIP3    H168353   3.973   6.315  12.526 -1.1239  1.7214  2.4649
15646TIP3    H268354   4.096   6.395  12.564  0.7266 -0.4006  1.1344
15647TIP3   OH268355   1.796   3.046   3.165  0.0032 -0.3023  0.9034
15647TIP3    H168356   1.824   2.985   3.097 -0.7274 -0.5598  0.8316
15647TIP3    H268357   1.807   3.133   3.126 -2.2301 -0.4883 -0.2813
15648TIP3   OH268358   1.827   4.401   0.200  0.1892 -0.0608 -0.0946
15648TIP3    H168359   1.921   4.384   0.194  0.1729  0.0366 -0.6620
15648TIP3    H268360   1.792   4.323   0.244  0.5904  0.1109  0.5574
15649TIP3   OH268361   6.111   3.138  14.816  0.5418 -0.1826 -0.4062
15649TIP3    H168362   6.189   3.134  14.761  0.9060  1.4649 -0.0569
15649TIP3    H268363   6.066   3.219  14.789 -1.3525 -1.3565 -0.9788
15650TIP3   OH268364   3.158   1.950  14.972 -0.2191  0.4579  0.2008
15650TIP3    H168365   3.221   2.019  14.952 -0.6531  0.7810 -0.0975
15650TIP3    H268366   3.073   1.992  14.958 -0.5007 -0.6721 -1.8757
15651TIP3   OH268367   6.722   0.070   0.121 -0.5348  0.4744 -1.1782
15651TIP3    H168368   6.784   0.008   0.159 -2.3121 -1.4416 -1.2129
15651TIP3    H268369   6.749   0.079   0.030 -0.2944 -0.3555 -1.1972
15652TIP3   OH268370   4.645   0.503  16.966 -0.0459 -0.3641  0.0910
15652TIP3    H168371   4.736   0.479  16.979  0.2156  0.8758  0.6784
15652TIP3    H268372   4.619   0.456  16.886  1.2717 -0.2726 -0.4132
15653TIP3   OH268373   3.716   6.672   3.461 -0.2321  0.4883  0.0492
15653TIP3    H168374   3.807   6.662   3.488  0.2533  1.7350 -1.0290
15653TIP3    H268375   3.681   6.740   3.520 -0.1797  0.7032 -0.1655
15654TIP3   OH268376   4.219   4.403   1.404  0.2677  0.5876  0.3011
15654TIP3    H168377   4.287   4.452   1.451  0.4288 -0.3062  1.0336
15654TIP3    H268378   4.183   4.344   1.470 -0.6745  0.4864 -0.2905
15655TIP3   OH268379   5.717   3.352  16.079 -0.0262 -0.0473 -0.3602
15655TIP3    H168380   5.746   3.412  16.010  1.7651 -2.2174 -1.6354
15655TIP3    H268381   5.789   3.290  16.088 -1.5017 -1.6110  1.3682
15656TIP3   OH268382   3.201   2.643  12.928  0.3264 -0.0782  0.4813
15656TIP3    H168383   3.176   2.715  12.986 -5.9064 -1.7677  0.5732
15656TIP3    H268384   3.195   2.564  12.982  2.5089 -1.1353 -0.6754
15657TIP3   OH268385   3.880   5.936   3.548 -0.1144  0.0427  0.3820
15657TIP3    H168386   3.798   5.898   3.579 -1.1924  1.8502 -0.1027
15657TIP3    H268387   3.929   5.862   3.512 -1.2916 -1.1562  1.1719
15658TIP3   OH268388   0.456   0.677   5.400  0.0743  0.3237  0.3829
15658TIP3    H168389   0.498   0.743   5.456  1.5170 -0.8382  0.7120
15658TIP3    H268390   0.362   0.689   5.416  0.3502  1.6217  1.2007
15659TIP3   OH268391   5.812   0.048  16.265 -0.4355 -0.1784 -0.3740
15659TIP3    H168392   5.800   0.106  16.340  0.3274 -0.9552  0.3687
15659TIP3    H268393   5.905   0.056  16.243 -0.6889  0.1734 -1.3497
15660TIP3   OH268394   2.222   2.049   3.716 -0.1383  0.0398  0.3060
15660TIP3    H168395   2.198   2.058   3.624  2.8010  0.9406 -0.4867
15660TIP3    H268396   2.171   2.116   3.761 -0.3384  0.7620 -0.9481
15661TIP3   OH268397   0.169   2.604   1.974 -0.2796  0.4836  0.1336
15661TIP3    H168398   0.124   2.582   1.893 -0.7653  1.2085  0.1995
15661TIP3    H268399   0.122   2.557   2.042 -0.0592  0.1183  0.0376
15662TIP3   OH268400   1.552   2.937   3.706 -0.1561 -0.5799  0.0856
15662TIP3    H168401   1.476   2.994   3.708 -2.0845 -2.9557  0.1968
15662TIP3    H268402   1.602   2.965   3.630 -0.3531  1.9125  0.7851
15663TIP3   OH268403   0.984   5.279   1.616 -0.5238 -0.5942  0.2688
15663TIP3    H168404   0.946   5.294   1.530 -1.4865  1.7926  1.0202
15663TIP3    H268405   1.073   5.248   1.599 -0.4810  0.4289 -1.5855
15664TIP3   OH268406   2.519   5.385  12.722  0.0588  0.3097 -0.0893
15664TIP3    H168407   2.576   5.308  12.722 -0.2983 -0.0649  3.0863
15664TIP3    H268408   2.485   5.389  12.632  1.6390 -2.0251 -0.8807
15665TIP3   OH268409   3.018   4.234  15.113 -0.1639  0.1129  0.0930
15665TIP3    H168410   2.995   4.316  15.157 -1.9918 -0.2500 -0.0868
15665TIP3    H268411   3.079   4.191  15.173 -1.4659  0.2859  1.6276
15666TIP3   OH268412   6.319   3.555   4.049  0.2426 -0.6336 -0.0531
15666TIP3    H168413   6.227   3.574   4.034  0.0118 -1.1658  0.6467
15666TIP3    H268414   6.321   3.463   4.075  1.1048 -0.9627 -1.2249
15667TIP3   OH268415   6.745   3.822  15.330 -0.0408  0.1178  0.3700
15667TIP3    H168416   6.815   3.830  15.265  0.9251 -0.2806  1.3230
15667TIP3    H268417   6.668   3.858  15.287  0.2464 -1.3378 -1.4759
15668TIP3   OH268418   3.334   6.249  16.226 -0.0239 -0.0983  0.0404
15668TIP3    H168419   3.345   6.277  16.317  0.0534  1.0544 -0.3066
15668TIP3    H268420   3.408   6.289  16.179 -0.1582 -0.5370 -0.5642
15669TIP3   OH268421   3.693   4.950   5.391  0.4766 -0.0518  0.0293
15669TIP3    H168422   3.735   4.889   5.331  0.6737  0.4702 -0.3654
15669TIP3    H268423   3.697   5.034   5.347  1.3063  0.4924  1.0952
15670TIP3   OH268424   4.771   1.145  16.747  0.2068 -0.3371  0.4338
15670TIP3    H168425   4.744   1.154  16.655  1.3673 -0.5628  0.0555
15670TIP3    H268426   4.804   1.232  16.771  0.6589 -0.4872  0.3735
15671TIP3   OH268427   5.159   3.556   4.652  0.1934  0.6803 -0.0346
15671TIP3    H168428   5.101   3.480   4.649  0.0505  0.8025 -0.4604
15671TIP3    H268429   5.210   3.551   4.571  1.5662 -0.0298  0.8303
15672TIP3   OH268430   4.581   4.222   4.014  0.2295 -0.2996  0.0606
15672TIP3    H168431   4.595   4.300   4.067 -0.1749  0.3118 -0.7191
15672TIP3    H268432   4.554   4.155   4.077 -0.9041  0.5899  0.5557
15673TIP3   OH268433   2.754   4.615  13.975 -0.2127 -0.1240 -0.1661
15673TIP3    H168434   2.704   4.544  13.936  1.0040 -1.4063  0.5002
15673TIP3    H268435   2.705   4.640  14.053 -0.0657 -1.0374  0.2249
15674TIP3   OH268436   6.457   6.040   6.065 -0.0544 -0.2685 -0.2853
15674TIP3    H168437   6.424   5.977   6.130  0.7786 -0.3501  0.0671
15674TIP3    H268438   6.498   6.109   6.117 -1.5606  0.9386 -0.6453
15675TIP3   OH268439   4.380   6.750  15.382  0.0187  0.1117  0.2779
15675TIP3    H168440   4.339   6.806  15.448 -1.7766  0.2757 -0.9086
15675TIP3    H268441   4.314   6.682  15.365  0.2445  0.3362 -1.6697
15676TIP3   OH268442   3.911   6.237   4.339 -0.1073  0.5023 -0.0351
15676TIP3    H168443   3.828   6.190   4.326  0.2842 -0.4670  0.8762
15676TIP3    H268444   3.904   6.274   4.427  0.6017  0.0467  0.2168
15677TIP3   OH268445   2.849   2.641  12.371 -0.1759 -1.0118  0.4015
15677TIP3    H168446   2.822   2.647  12.279  1.1847 -3.3243 -0.2211
15677TIP3    H268447   2.937   2.678  12.372 -0.0771 -1.2541  0.7017
15678TIP3   OH268448   4.101   4.377   0.155 -0.6550  0.3157 -0.1697
15678TIP3    H168449   4.008   4.354   0.146 -0.2513 -1.4684 -0.2253
15678TIP3    H268450   4.135   4.370   0.066 -0.8163  2.8137 -0.4773
15679TIP3   OH268451   1.254   1.820   3.781  0.2459  0.4994  0.4652
15679TIP3    H168452   1.311   1.873   3.837  0.7271  1.2035 -0.6584
15679TIP3    H268453   1.219   1.882   3.717 -0.0742 -0.3323 -0.1860
15680TIP3   OH268454   6.554   5.369   2.134 -0.5843 -0.0865  0.6076
15680TIP3    H168455   6.524   5.307   2.200 -2.5786  1.3266  1.1072
15680TIP3    H268456   6.481   5.374   2.072  0.1088  0.7397 -0.1615
15681TIP3   OH268457   0.477   6.163   6.583 -0.1801 -0.0069  0.5525
15681TIP3    H168458   0.514   6.122   6.505 -0.0169  1.7470 -0.3497
15681TIP3    H268459   0.545   6.224   6.613 -0.9750  0.7279  0.9232
15682TIP3   OH268460   6.522   5.335   6.289  0.0968  0.5513 -1.0423
15682TIP3    H168461   6.527   5.430   6.302  0.0300  0.2503  1.6873
15682TIP3    H268462   6.577   5.299   6.358 -2.5630 -1.4776  0.1729
15683TIP3   OH268463   1.265   1.112   4.074 -0.1338  0.2678  0.3918
15683TIP3    H168464   1.244   1.022   4.050 -0.6052  0.1259  1.2598
15683TIP3    H268465   1.243   1.164   3.997  0.6024 -0.4153 -0.2827
15684TIP3   OH268466   1.830   2.298   2.419  0.1498  0.3815  0.1220
15684TIP3    H168467   1.844   2.377   2.470  1.2757 -0.8687  1.8964
15684TIP3    H268468   1.745   2.265   2.447 -0.5205  1.1551 -0.9416
15685TIP3   OH268469   5.635   4.081   1.771 -0.3104  0.2982 -0.5595
15685TIP3    H168470   5.652   3.988   1.783 -0.2170  0.4831  0.9618
15685TIP3    H268471   5.633   4.094   1.676  1.1843 -0.9751 -0.7958
15686TIP3   OH268472   1.458   5.283   1.588  0.2858 -0.1986  0.0622
15686TIP3    H168473   1.427   5.206   1.541  0.2911 -0.5914  0.6825
15686TIP3    H268474   1.550   5.265   1.605  0.7384  0.7132 -1.2794
15687TIP3   OH268475   0.386   4.534  10.842 -0.4014 -0.6902  0.2210
15687TIP3    H168476   0.424   4.559  10.926 -1.3484  0.5582  0.3021
15687TIP3    H268477   0.414   4.602  10.781 -0.0136 -1.3990 -0.4211
15688TIP3   OH268478   1.063   6.262   1.349  0.1611  0.1638  0.4376
15688TIP3    H168479   1.148   6.251   1.392 -0.2845 -1.7932  0.9266
15688TIP3    H268480   1.043   6.176   1.312 -2.5843 -0.1472  2.2593
15689TIP3   OH268481   3.013   3.651  11.523  1.1922 -0.1406 -0.1447
15689TIP3    H168482   2.980   3.601  11.448  1.4743  0.7396 -0.8805
15689TIP3    H268483   3.099   3.683  11.495  1.1270  0.5406  0.4025
15690TIP3   OH268484   4.154   0.828  11.909  0.0028 -0.0408  0.1301
15690TIP3    H168485   4.134   0.910  11.865 -1.7495 -0.5108 -0.0012
15690TIP3    H268486   4.208   0.853  11.984 -0.6140  1.2441  0.1647
15691TIP3   OH268487   2.900   1.991   2.118  0.6616  0.1300  0.3563
15691TIP3    H168488   2.983   2.031   2.092 -0.0268  1.5846  0.2461
15691TIP3    H268489   2.835   2.031   2.060  0.1078 -2.6149 -1.0619
15692TIP3   OH268490   3.135   5.441  16.855  0.0795  1.0576  0.4241
15692TIP3    H168491   3.117   5.364  16.800  0.7762  0.9393  0.3594
15692TIP3    H268492   3.115   5.413  16.944  0.7250  0.6776  0.4477
15693TIP3   OH268493   0.432   1.527   6.022  0.0584 -0.1501  0.1828
15693TIP3    H168494   0.498   1.483   6.076  0.7160  1.0282  0.3862
15693TIP3    H268495   0.404   1.460   5.960  0.9630 -0.8786  0.5203
15694TIP3   OH268496   6.243   2.843  14.163  0.3514  0.2647  0.0381
15694TIP3    H168497   6.242   2.870  14.071  0.7723  1.0007  0.2427
15694TIP3    H268498   6.151   2.822  14.182  0.1937  0.4904 -0.4425
15695TIP3   OH268499   5.117   3.721   5.108  0.0032  0.5236 -0.0450
15695TIP3    H168500   5.105   3.797   5.051 -0.8211 -0.2355 -0.9136
15695TIP3    H268501   5.092   3.646   5.054  1.5882 -0.4588  0.5290
15696TIP3   OH268502   0.704   5.976   5.812 -0.1355 -0.1218  0.2749
15696TIP3    H168503   0.660   5.893   5.827  2.2691 -1.9664 -1.9074
15696TIP3    H268504   0.640   6.029   5.765 -1.2362 -1.2898  0.3954
15697TIP3   OH268505   5.844   2.673  12.572  0.4547 -0.1799  0.7618
15697TIP3    H168506   5.848   2.686  12.667 -0.1836  0.0391  0.7672
15697TIP3    H268507   5.862   2.760  12.536  3.8885 -0.8417  0.5678
15698TIP3   OH268508   5.470   0.158  13.281 -0.0937  0.2497 -0.0890
15698TIP3    H168509   5.390   0.178  13.329 -0.2345  0.7915 -0.5343
15698TIP3    H268510   5.439   0.123  13.197  0.1480 -0.9299  0.2942
15699TIP3   OH268511   0.817   6.478   2.921  0.3606 -0.5427  0.3564
15699TIP3    H168512   0.746   6.541   2.911 -0.1703 -0.9757  1.2134
15699TIP3    H268513   0.878   6.499   2.852 -0.9206 -0.5666 -0.8293
15700TIP3   OH268514   3.414   0.758   3.207  0.1949 -0.1761  0.3600
15700TIP3    H168515   3.345   0.815   3.171 -1.0165 -1.3596  0.7381
15700TIP3    H268516   3.367   0.696   3.263  1.5829 -0.9951  0.6556
15701TIP3   OH268517   6.277   1.111   2.985  0.1987  0.1696  0.0599
15701TIP3    H168518   6.288   1.197   2.945 -1.1812  0.5461  0.4472
15701TIP3    H268519   6.249   1.054   2.913  1.0986  0.0275 -0.1934
15702TIP3   OH268520   5.625   1.068   3.640  0.1043 -0.1344 -0.9359
15702TIP3    H168521   5.561   1.129   3.604 -1.2107  0.0486  1.5024
15702TIP3    H268522   5.622   1.083   3.734  2.9162 -0.9809 -0.6180
15703TIP3   OH268523   1.097   5.926   6.439 -0.2389  0.1170  0.0253
15703TIP3    H168524   1.107   5.839   6.401 -0.3345  0.6806 -1.3645
15703TIP3    H268525   1.128   5.985   6.371  0.0491  1.1687  1.0369
15704TIP3   OH268526   2.822   4.881   4.421 -0.0223 -0.7123  0.0007
15704TIP3    H168527   2.861   4.968   4.422 -2.4534  0.5352 -2.4346
15704TIP3    H268528   2.787   4.869   4.510  2.0070 -0.1116  0.9458
15705TIP3   OH268529   2.125   3.725   0.967  0.4732  0.0936  0.1354
15705TIP3    H168530   2.150   3.719   1.059  2.2275 -0.2877 -0.3404
15705TIP3    H268531   2.206   3.708   0.919 -0.4375  0.1894 -1.4839
15706TIP3   OH268532   3.406   0.035  12.651  0.0713 -0.2073 -0.1805
15706TIP3    H168533   3.315   0.009  12.636  0.2110 -0.4931 -0.5322
15706TIP3    H268534   3.400   0.123  12.687 -0.3644 -0.3675  0.1572
15707TIP3   OH268535   6.388   6.239   2.468 -0.9393  0.0339 -0.2235
15707TIP3    H168536   6.454   6.218   2.535 -0.2652  3.1653  0.2394
15707TIP3    H268537   6.393   6.166   2.407  0.5555 -1.4851  1.5591
15708TIP3   OH268538   0.067   5.714  15.676  0.4773  0.2707  0.4896
15708TIP3    H168539   0.117   5.645  15.631  2.6665  1.5955  0.7049
15708TIP3    H268540   0.133   5.781  15.696 -1.1966  1.5470  2.0361
15709TIP3   OH268541   1.361   0.767   1.211 -0.0335  0.3049 -0.1748
15709TIP3    H168542   1.298   0.741   1.144 -0.8114 -0.4578  0.8159
15709TIP3    H268543   1.330   0.724   1.291  0.4133  1.8337  0.8588
15710TIP3   OH268544   3.555   5.142  15.305 -0.0407  0.1558 -0.4097
15710TIP3    H168545   3.625   5.170  15.365  0.6041 -1.0904 -0.5451
15710TIP3    H268546   3.556   5.208  15.235  0.4897  0.5677 -0.0239
15711TIP3   OH268547   4.203   0.887   2.507 -0.1204  0.0378  0.0457
15711TIP3    H168548   4.187   0.867   2.414  0.7468  1.0388 -0.3334
15711TIP3    H268549   4.120   0.868   2.550 -0.2722 -1.3114 -0.7859
15712TIP3   OH268550   3.648   2.275  12.184  0.1753 -0.1114  0.3902
15712TIP3    H168551   3.627   2.236  12.099 -1.2648  1.4599 -0.0207
15712TIP3    H268552   3.578   2.339  12.199  1.3140  0.8249  1.9882
15713TIP3   OH268553   0.048   3.691   1.388  0.2832  0.0776  0.8075
15713TIP3    H168554  -0.035   3.647   1.371  0.5869  0.4029 -1.8331
15713TIP3    H268555   0.034   3.781   1.358  1.5472  0.1725  0.4512
15714TIP3   OH268556   1.801   0.790   5.787 -0.5922 -0.0000  0.0723
15714TIP3    H168557   1.715   0.831   5.781 -1.1079 -1.2165 -1.9313
15714TIP3    H268558   1.821   0.763   5.697  0.1989 -3.1109  1.0533
15715TIP3   OH268559   1.501   4.684  15.483  0.4762  0.2732 -0.0838
15715TIP3    H168560   1.496   4.693  15.578  0.3286 -0.2060 -0.0438
15715TIP3    H268561   1.586   4.722  15.460  0.3557  0.7113  0.2007
15716TIP3   OH268562   0.258   2.586  13.744 -0.5544 -0.9649 -0.1326
15716TIP3    H168563   0.341   2.551  13.777  0.3344 -0.4527 -1.6962
15716TIP3    H268564   0.284   2.645  13.673 -2.1757  0.4806  0.4089
15717TIP3   OH268565   6.669   6.186   2.844 -0.1842 -0.3468  0.1603
15717TIP3    H168566   6.663   6.091   2.839 -1.4416 -0.3062  0.4757
15717TIP3    H268567   6.707   6.212   2.761 -0.0334 -1.1118 -0.0195
15718TIP3   OH268568   4.557   3.929   4.851  0.3210  0.0346 -0.7042
15718TIP3    H168569   4.504   3.860   4.813 -0.2547  1.5317 -2.7806
15718TIP3    H268570   4.559   3.998   4.785  0.5941  2.1656  1.3619
15719TIP3   OH268571   4.018   2.911   1.850 -0.6448 -0.1421 -0.6236
15719TIP3    H168572   4.079   2.893   1.922 -2.6269  0.9786  1.4696
15719TIP3    H268573   4.071   2.902   1.771  1.7790 -0.9334  0.9774
15720TIP3   OH268574   6.345   5.452   0.071  0.2470 -0.7220  0.3311
15720TIP3    H168575   6.441   5.460   0.068  0.1658  1.0082  1.1965
15720TIP3    H268576   6.318   5.512   0.140 -1.5066 -0.8923 -0.1569
15721TIP3   OH268577   4.812   6.592  14.296  0.3066  0.2559  0.4532
15721TIP3    H168578   4.787   6.673  14.252  0.1305 -0.0524 -0.0294
15721TIP3    H268579   4.814   6.527  14.226 -0.4163 -0.3441  0.9789
15722TIP3   OH268580   4.994   4.594  15.631 -0.3290  0.1977 -1.0205
15722TIP3    H168581   4.950   4.574  15.549 -1.5983  0.6412 -0.4808
15722TIP3    H268582   4.922   4.606  15.694  0.6036  0.1534  0.0792
15723TIP3   OH268583   6.255   0.816  10.613  0.5212  0.5359  0.1102
15723TIP3    H168584   6.320   0.833  10.545 -1.1450 -1.0191 -2.0212
15723TIP3    H268585   6.266   0.723  10.635  0.0570  0.6542  0.9094
15724TIP3   OH268586   5.988   5.257   1.140  0.2738  0.0059  0.0749
15724TIP3    H168587   6.054   5.325   1.156  1.2534 -0.9181  0.0622
15724TIP3    H268588   5.993   5.201   1.217 -0.3390 -0.2145 -0.0441
15725TIP3   OH268589   2.613   6.672  13.498  0.1102 -0.3123 -0.2657
15725TIP3    H168590   2.610   6.581  13.470 -1.0084  0.1799 -1.9058
15725TIP3    H268591   2.601   6.668  13.593 -1.7930 -1.8044 -0.4946
15726TIP3   OH268592   1.870   0.425  12.342 -0.0243  1.0143  0.6481
15726TIP3    H168593   1.837   0.409  12.430  0.1430  0.6619  0.6466
15726TIP3    H268594   1.819   0.500  12.310 -2.4858 -0.9015 -0.2354
15727TIP3   OH268595   3.965   4.135  11.606 -0.0277 -0.5374  0.4213
15727TIP3    H168596   3.870   4.125  11.618 -0.3056 -0.2567 -1.3518
15727TIP3    H268597   3.991   4.197  11.674 -1.2457  0.0098  0.4154
15728TIP3   OH268598   6.486   6.320   4.050 -0.6800 -0.5308 -0.0366
15728TIP3    H168599   6.481   6.346   3.958 -0.5796 -1.8131 -0.4239
15728TIP3    H268600   6.534   6.237   4.050 -1.1926 -0.8659  1.0985
15729TIP3   OH268601   2.536   6.288  14.517  0.4057  0.4928 -0.1026
15729TIP3    H168602   2.503   6.200  14.497  1.3585  0.2740 -0.8250
15729TIP3    H268603   2.482   6.318  14.589  0.5305 -0.9879  0.6525
15730TIP3   OH268604   3.373   2.502  11.897  0.3762 -0.1092 -0.3608
15730TIP3    H168605   3.283   2.490  11.929  1.1993 -1.6360  1.6465
15730TIP3    H268606   3.366   2.569  11.830 -2.4029 -0.8302 -0.9398
15731TIP3   OH268607   1.240   1.431   4.980  0.1213 -0.1503  0.1122
15731TIP3    H168608   1.267   1.506   4.927  1.4155 -1.0555 -0.5648
15731TIP3    H268609   1.275   1.355   4.934  1.3494 -0.9889  2.2680
15732TIP3   OH268610   3.416   2.863   1.986 -0.0494 -0.1914  0.4478
15732TIP3    H168611   3.345   2.854   1.921 -0.9828  0.7006  1.2985
15732TIP3    H268612   3.492   2.891   1.934 -0.3134 -1.1328 -0.4812
15733TIP3   OH268613   4.944   3.726   2.948 -0.4437 -0.3726  0.0613
15733TIP3    H168614   5.035   3.748   2.966 -0.6875  1.7269 -0.9912
15733TIP3    H268615   4.918   3.671   3.023  1.8965 -1.8577 -0.0975
15734TIP3   OH268616   5.742   2.207  10.775 -0.0894 -0.1645 -0.2749
15734TIP3    H168617   5.662   2.170  10.738  0.7582  0.5306 -3.0547
15734TIP3    H268618   5.721   2.299  10.790  0.3924  0.2346 -1.8674
15735TIP3   OH268619   6.087   2.167  10.623 -0.4407 -0.4514 -0.5671
15735TIP3    H168620   6.138   2.247  10.630  1.6271 -1.8203  1.5409
15735TIP3    H268621   6.028   2.182  10.549 -2.0729  3.9778  1.2916
15736TIP3   OH268622   4.530   1.843  10.791  0.0573  0.0983  0.5748
15736TIP3    H168623   4.606   1.794  10.760  0.2512  0.7931 -0.0628
15736TIP3    H268624   4.479   1.779  10.841 -0.4220 -1.1399 -1.4008
15737TIP3   OH268625   6.431   6.035  13.493 -0.0662  0.1797  0.0082
15737TIP3    H168626   6.475   6.106  13.446 -0.7945  0.4752 -0.2365
15737TIP3    H268627   6.350   6.021  13.444 -0.7789  0.4015  1.0967
15738TIP3   OH268628   0.104   2.375  13.841  0.2451  0.5680 -0.6205
15738TIP3    H168629   0.170   2.422  13.791  0.7888 -0.0257 -0.4729
15738TIP3    H268630   0.097   2.423  13.924  0.3884  0.7142 -0.6950
15739TIP3   OH268631   1.626   4.552  16.647  0.4184  0.3764  0.2441
15739TIP3    H168632   1.555   4.615  16.638  0.0365 -0.0495  0.2690
15739TIP3    H268633   1.631   4.534  16.741  0.0810 -0.1433  0.1619
15740TIP3   OH268634   4.901   1.419  13.060 -0.0605  0.1291  0.2151
15740TIP3    H168635   4.949   1.383  13.134 -0.9570 -0.2983  0.6064
15740TIP3    H268636   4.810   1.396  13.077 -0.1376 -1.3536 -1.7724
15741TIP3   OH268637   3.480   4.085  12.694  0.1854  0.1894 -0.3318
15741TIP3    H168638   3.418   4.091  12.766  2.0869  1.6108  1.3012
15741TIP3    H268639   3.549   4.026  12.726  1.0507  0.8289 -0.9518
15742TIP3   OH268640   3.838   6.450  11.295 -0.5684 -0.7311 -0.0896
15742TIP3    H168641   3.821   6.446  11.200  0.3814  0.7421 -0.3642
15742TIP3    H268642   3.867   6.362  11.318  1.3584 -0.5907 -1.6533
15743TIP3   OH268643   1.343   6.013  12.099 -0.3021  0.3121 -0.0276
15743TIP3    H168644   1.272   5.948  12.100  0.0494 -0.1169 -1.5253
15743TIP3    H268645   1.405   5.981  12.164 -0.8300 -0.0419  0.3160
15744TIP3   OH268646   0.420   2.759  12.814 -0.1819 -0.5162 -0.3902
15744TIP3    H168647   0.341   2.713  12.842 -0.1673 -1.2168 -1.4182
15744TIP3    H268648   0.461   2.789  12.895 -1.4074 -0.3002  0.1605
15745TIP3   OH268649   0.236   3.446  14.736 -0.0458  0.4299  0.1694
15745TIP3    H168650   0.300   3.405  14.679  0.9483  1.3966  0.5433
15745TIP3    H268651   0.180   3.374  14.766 -0.3055 -0.1608 -1.6198
15746TIP3   OH268652   4.508   4.127  13.861  0.5260 -0.2316 -0.1219
15746TIP3    H168653   4.416   4.153  13.852  0.8555  1.5280  1.0815
15746TIP3    H268654   4.504   4.042  13.905 -0.5313 -0.5301 -0.7554
15747TIP3   OH268655   6.477   0.279   3.555 -0.0608 -0.3415 -0.2527
15747TIP3    H168656   6.474   0.191   3.591 -4.0443  0.2645  1.4887
15747TIP3    H268657   6.471   0.337   3.632  1.2390  1.4483 -1.4099
15748TIP3   OH268658   2.600   2.412  15.116  0.3015  0.1496  0.0024
15748TIP3    H168659   2.527   2.409  15.054 -0.7088 -0.1033  1.1571
15748TIP3    H268660   2.658   2.480  15.082  0.1528 -0.4654 -1.5948
15749TIP3   OH268661   0.821   0.332   2.547 -0.0128  0.1914  0.0181
15749TIP3    H168662   0.863   0.418   2.547 -0.7408  0.5760  0.9313
15749TIP3    H268663   0.847   0.292   2.464  0.5631  1.1803 -0.2975
15750TIP3   OH268664   2.229   4.548  11.660  0.0561  0.6975 -0.4862
15750TIP3    H168665   2.135   4.535  11.652 -0.2613  2.0776  0.5106
15750TIP3    H268666   2.268   4.470  11.620 -1.5316 -1.0492  1.1799
15751TIP3   OH268667   5.344   5.170   4.407  0.2904  0.5097 -0.5345
15751TIP3    H168668   5.398   5.171   4.328 -0.7465  0.2808 -1.2647
15751TIP3    H268669   5.295   5.252   4.404 -0.2395  0.2020 -0.4836
15752TIP3   OH268670   3.436   5.011  16.198 -0.0362 -0.1825 -0.6439
15752TIP3    H168671   3.344   5.035  16.191 -0.0094  2.1698  3.6533
15752TIP3    H268672   3.436   4.923  16.235 -0.5547 -0.2222 -0.7405
15753TIP3   OH268673   1.576   6.097  15.245 -0.4317  0.1813  0.8287
15753TIP3    H168674   1.563   6.176  15.299  1.8177 -0.5453  2.6148
15753TIP3    H268675   1.669   6.078  15.254 -0.9688 -2.8877  0.7136
15754TIP3   OH268676   5.407   3.547  16.653  0.5026 -0.1139 -0.1712
15754TIP3    H168677   5.399   3.642  16.651  0.0630 -0.1566 -0.4890
15754TIP3    H268678   5.420   3.522  16.561  2.1678 -0.2349  0.0530
15755TIP3   OH268679   2.360   2.723   1.234 -0.5373  0.0989  0.1921
15755TIP3    H168680   2.306   2.772   1.295 -0.5129  0.5654 -0.1562
15755TIP3    H268681   2.298   2.679   1.177 -0.5824  1.4342 -0.8506
15756TIP3   OH268682   6.792   0.450   2.377 -0.4744 -0.4657 -0.0417
15756TIP3    H168683   6.881   0.480   2.362 -0.7022  0.6767  0.8015
15756TIP3    H268684   6.780   0.378   2.315  1.2867 -1.1531  0.3767
15757TIP3   OH268685   3.133   1.428   1.367  0.4142  0.1416 -0.1243
15757TIP3    H168686   3.143   1.510   1.318 -1.0513  0.2723 -0.2499
15757TIP3    H268687   3.146   1.360   1.302  0.7338  0.2776 -0.2072
15758TIP3   OH268688   0.584   1.571  16.970  0.0800  0.2884 -0.0647
15758TIP3    H168689   0.637   1.562  16.890  0.4607  3.2983 -0.2480
15758TIP3    H268690   0.494   1.577  16.938  0.2378  1.5543 -0.3011
15759TIP3   OH268691   3.872   4.250   0.745  1.0403 -0.1612 -0.5911
15759TIP3    H168692   3.844   4.252   0.836  0.5138 -1.3636 -0.7078
15759TIP3    H268693   3.829   4.326   0.705 -1.9340 -1.7498 -0.6812
15760TIP3   OH268694   3.613   2.304   2.357 -0.6015 -0.5075  0.1439
15760TIP3    H168695   3.586   2.212   2.356  0.8565 -0.9557 -0.5176
15760TIP3    H268696   3.636   2.323   2.266  0.6939 -0.0028  0.5571
15761TIP3   OH268697   6.313   5.871   5.144 -0.4160 -0.4072 -0.0072
15761TIP3    H168698   6.249   5.801   5.153 -0.7096 -0.0945  0.4083
15761TIP3    H268699   6.322   5.885   5.050  0.0532 -1.3659 -0.1166
15762TIP3   OH268700   4.933   6.322   1.939  0.2332  0.4182 -0.5941
15762TIP3    H168701   4.907   6.387   2.004  2.5136 -0.6077  1.5156
15762TIP3    H268702   5.015   6.356   1.903  0.8790 -0.7112 -0.2541
15763TIP3   OH268703   3.955   4.543   3.523  0.2192  0.0858 -0.2819
15763TIP3    H168704   4.033   4.504   3.484  0.5043  0.0827  0.2884
15763TIP3    H268705   3.885   4.480   3.502  0.6063 -0.5590  0.3064
15764TIP3   OH268706   5.371   2.569  11.920  0.1182  0.0270 -0.0081
15764TIP3    H168707   5.302   2.557  11.855 -0.3021 -0.0047  0.4360
15764TIP3    H268708   5.360   2.660  11.950 -0.5941 -0.3777  1.0243
15765TIP3   OH268709   0.700   3.103  12.505 -0.1577  0.0887  0.3310
15765TIP3    H168710   0.606   3.122  12.513 -0.5957 -0.6633 -2.0670
15765TIP3    H268711   0.731   3.163  12.438  0.2755 -1.7984 -1.2823
15766TIP3   OH268712   1.131   1.941   0.300  0.2665  0.4901 -0.2546
15766TIP3    H168713   1.166   2.029   0.307 -0.1356  0.7000 -0.8146
15766TIP3    H268714   1.039   1.953   0.278  0.0052 -0.0647  0.4890
15767TIP3   OH268715   2.783   2.376   0.197  0.4790  0.4287 -0.1636
15767TIP3    H168716   2.702   2.406   0.155  1.5422  1.4950 -1.5469
15767TIP3    H268717   2.789   2.283   0.175 -0.3217  0.3517 -0.0893
15768TIP3   OH268718   0.052   4.860  12.461  0.5963  0.7161 -0.1100
15768TIP3    H168719   0.105   4.791  12.421  0.3655  0.4426  0.0521
15768TIP3    H268720   0.033   4.920  12.390  1.5930  1.1054 -0.0533
15769TIP3   OH268721   2.181   6.539   2.946 -0.2746  0.1238  0.9758
15769TIP3    H168722   2.101   6.571   2.904 -0.4007  0.3489  1.3776
15769TIP3    H268723   2.227   6.619   2.973 -0.0126 -0.0108  0.9274
15770TIP3   OH268724   5.647   6.761  12.213  0.0391 -0.6993  0.3599
15770TIP3    H168725   5.711   6.695  12.187  0.7849 -0.5475  1.7036
15770TIP3    H268726   5.670   6.782  12.304 -1.8377 -0.5443  0.8352
15771TIP3   OH268727   6.144   1.554   2.979 -0.1929 -0.0403  0.4084
15771TIP3    H168728   6.058   1.518   3.000 -1.2076  1.4684 -0.9790
15771TIP3    H268729   6.180   1.581   3.063 -0.9262 -0.9564  1.0375
15772TIP3   OH268730   2.037   0.855   6.316  0.5981  0.5181 -0.0184
15772TIP3    H168731   2.087   0.908   6.378  0.7771 -0.6342  0.8453
15772TIP3    H268732   2.051   0.765   6.344 -2.3486  0.1451  0.5312
15773TIP3   OH268733   2.643   4.309   3.175  0.1458  0.1457  0.3735
15773TIP3    H168734   2.708   4.269   3.232  0.1373 -0.1603  0.1707
15773TIP3    H268735   2.619   4.391   3.219  0.7592  0.3238  0.3864
15774TIP3   OH268736   2.541   2.198   3.112 -0.1669 -0.1839  0.1997
15774TIP3    H168737   2.566   2.106   3.111  3.0022  0.5063  1.5410
15774TIP3    H268738   2.611   2.242   3.063 -1.0340  1.6125  0.5022
15775TIP3   OH268739   0.679   2.600  15.850 -0.2870  0.1497  0.1026
15775TIP3    H168740   0.707   2.604  15.759  0.3683 -0.0941  0.2874
15775TIP3    H268741   0.717   2.678  15.890 -2.7524  1.7139 -0.3954
15776TIP3   OH268742   4.720   6.177   3.711  0.1630 -0.3248  0.1568
15776TIP3    H168743   4.783   6.172   3.783 -0.5126 -0.5748  0.7377
15776TIP3    H268744   4.765   6.137   3.637  0.0347 -2.1766  1.0290
15777TIP3   OH268745   5.292   6.362  12.400 -0.1741  1.1350 -0.2938
15777TIP3    H168746   5.223   6.297  12.406  0.2690  0.6293 -0.5274
15777TIP3    H268747   5.296   6.403  12.486  0.5666 -0.2167  0.3372
15778TIP3   OH268748   6.522   0.747  11.042  0.0799 -0.5002  0.3574
15778TIP3    H168749   6.491   0.834  11.019  1.6704  0.4763  1.7047
15778TIP3    H268750   6.464   0.687  10.993 -0.7051  1.2842 -1.0118
15779TIP3   OH268751   6.674   6.532   5.814  0.3048 -0.2174 -0.1774
15779TIP3    H168752   6.639   6.489   5.892  1.0414 -2.4024 -0.9932
15779TIP3    H268753   6.763   6.557   5.840  0.5890 -1.0416 -0.3318
15780TIP3   OH268754   2.491   5.260   4.346  0.7986  0.2450  0.3409
15780TIP3    H168755   2.414   5.221   4.387  0.1120 -0.0315 -1.1412
15780TIP3    H268756   2.524   5.192   4.287  1.0330  1.0327 -0.4587
15781TIP3   OH268757   0.843   0.056  13.847 -0.3203  0.4347 -0.3416
15781TIP3    H168758   0.856   0.033  13.939  0.3478  0.2328 -0.4808
15781TIP3    H268759   0.773   0.121  13.848  0.7574  1.6352  0.4627
15782TIP3   OH268760   0.922   3.886   3.782  0.2604 -0.2909  0.3269
15782TIP3    H168761   0.883   3.808   3.823  1.4808 -0.6760  0.8085
15782TIP3    H268762   0.936   3.946   3.855  0.3302 -0.0588  0.1202
15783TIP3   OH268763   3.028   0.063   0.136  0.3668  0.3112  0.3184
15783TIP3    H168764   2.986   0.013   0.066 -2.2960  1.4972  0.9330
15783TIP3    H268765   3.094   0.116   0.091  1.0509 -1.3568 -0.7657
15784TIP3   OH268766   2.226   3.955  16.490 -0.4548  0.0623 -0.0856
15784TIP3    H168767   2.223   3.867  16.528 -0.1107 -0.6983 -1.7559
15784TIP3    H268768   2.294   3.951  16.423  0.2798  1.9079  0.4740
15785TIP3   OH268769   2.497   5.849  13.495 -0.0124 -0.2666 -0.2426
15785TIP3    H168770   2.489   5.804  13.411 -0.1060 -0.9107  0.1031
15785TIP3    H268771   2.423   5.817  13.546  0.6666 -0.7439  0.4713
15786TIP3   OH268772   1.877   1.764   4.545 -0.2280 -0.2034 -0.2955
15786TIP3    H168773   1.933   1.728   4.476  0.3066 -0.3789  0.2176
15786TIP3    H268774   1.792   1.721   4.532  0.2221 -1.1926 -0.0803
15787TIP3   OH268775   3.138   0.963  13.776  0.3542 -0.1432 -0.2541
15787TIP3    H168776   3.184   1.003  13.849  2.4802 -1.5700 -0.7157
15787TIP3    H268777   3.172   0.874  13.771 -0.0741 -0.2580 -2.6607
15788TIP3   OH268778   0.682   0.380  12.144 -0.6385 -0.2931  0.1863
15788TIP3    H168779   0.753   0.430  12.184 -0.3812 -0.2318 -0.3478
15788TIP3    H268780   0.696   0.290  12.175  0.0115 -0.3920 -0.3794
15789TIP3   OH268781   1.972   0.312   2.303  0.1763 -0.3042 -0.2886
15789TIP3    H168782   2.022   0.368   2.362 -0.6397  0.4778 -0.3102
15789TIP3    H268783   2.030   0.296   2.229  1.3547 -1.6083  0.8663
15790TIP3   OH268784   1.811   4.230   3.865 -0.6382  0.0369 -0.7529
15790TIP3    H168785   1.742   4.167   3.842 -1.1272 -0.5693  2.0421
15790TIP3    H268786   1.827   4.215   3.958  0.0851  3.2457 -0.2474
15791TIP3   OH268787   1.807   0.690  13.943 -0.1496 -0.0846  0.1589
15791TIP3    H168788   1.861   0.700  13.865  0.7169 -0.9458  0.6175
15791TIP3    H268789   1.747   0.764  13.941  1.0209  0.8837 -0.3992
15792TIP3   OH268790   5.296   0.324   4.788  0.1580  0.2375 -0.0655
15792TIP3    H168791   5.314   0.241   4.832 -1.7209  0.2692  0.8772
15792TIP3    H268792   5.352   0.323   4.711  0.6880 -1.5876  0.2860
15793TIP3   OH268793   3.793   6.059   4.579  0.3043  0.1090 -0.2236
15793TIP3    H168794   3.706   6.064   4.541 -0.1162 -0.3391  0.6456
15793TIP3    H268795   3.794   5.975   4.626  0.3242  1.2093  1.8554
15794TIP3   OH268796   2.073   1.537  16.265 -0.9594 -0.5949 -0.1008
15794TIP3    H168797   2.155   1.503  16.230 -1.9861 -1.3189 -1.9214
15794TIP3    H268798   2.095   1.566  16.353  1.1425 -1.1841 -0.3834
15795TIP3   OH268799   4.241   3.549  11.056 -0.2707  0.2168 -0.0611
15795TIP3    H168800   4.232   3.481  11.124 -1.1046 -0.0834 -0.4591
15795TIP3    H268801   4.197   3.625  11.093  1.1623  0.7424  0.6252
15796TIP3   OH268802   2.734   4.280   5.089  0.3575  0.2414 -0.0089
15796TIP3    H168803   2.641   4.300   5.095 -0.2989 -2.0502 -1.2537
15796TIP3    H268804   2.770   4.351   5.035 -1.0333  0.2749 -0.9571
15797TIP3   OH268805   4.655   1.916  14.658  0.1745  0.6193  0.6767
15797TIP3    H168806   4.681   1.945  14.571 -1.6120 -1.5249 -0.6941
15797TIP3    H268807   4.721   1.851  14.683 -0.2497 -0.0542  0.0928
15798TIP3   OH268808   5.219   2.585   0.129 -0.3282 -0.7020  0.3215
15798TIP3    H168809   5.308   2.565   0.158 -0.3419 -1.2205  0.0259
15798TIP3    H268810   5.229   2.656   0.066 -0.1919 -0.2970  0.8001
15799TIP3   OH268811   0.340   0.152   4.979 -0.0532 -0.1409 -0.4186
15799TIP3    H168812   0.407   0.089   5.005  1.1623  1.1742 -0.2272
15799TIP3    H268813   0.274   0.145   5.048  0.8096 -0.1225  0.4385
15800TIP3   OH268814   3.975   3.264   6.394  0.5021  0.0291  0.2395
15800TIP3    H168815   4.031   3.342   6.393 -0.5728  0.8393  0.8967
15800TIP3    H268816   3.910   3.281   6.326 -0.5843  0.3800  1.3287
15801TIP3   OH268817   1.386   0.714  15.844 -0.2179 -0.3498 -0.2112
15801TIP3    H168818   1.399   0.622  15.865 -3.1193 -0.5596  1.1372
15801TIP3    H268819   1.398   0.760  15.927  3.3869  0.8942 -1.2503
15802TIP3   OH268820   0.261   0.010  11.360  0.1179 -0.0760  0.4046
15802TIP3    H168821   0.351  -0.008  11.387  0.2734  0.1796  0.0564
15802TIP3    H268822   0.236  -0.067  11.309  0.7744  0.6394 -1.0586
15803TIP3   OH268823   2.327   5.165  11.676  0.1436  0.4441  0.2302
15803TIP3    H168824   2.238   5.191  11.651 -0.1686  0.0756  0.9340
15803TIP3    H268825   2.384   5.231  11.635 -0.4534  0.6922 -0.2094
15804TIP3   OH268826   4.166   2.997  13.300  0.6200 -0.0697  0.3874
15804TIP3    H168827   4.079   3.033  13.282  0.0504 -1.8487 -0.6518
15804TIP3    H268828   4.178   2.929  13.234  1.0259 -2.7453  3.0128
15805TIP3   OH268829   2.085   0.646  11.152  0.4052 -1.0369 -0.3867
15805TIP3    H168830   2.016   0.676  11.093 -1.3708  0.4532  2.2318
15805TIP3    H268831   2.062   0.556  11.172  0.3868 -1.1899 -1.0646
15806TIP3   OH268832   0.696   1.467  16.707  0.0018  1.1048 -0.1594
15806TIP3    H168833   0.614   1.456  16.659 -0.2996 -0.1396  0.6056
15806TIP3    H268834   0.705   1.388  16.759  1.8409  1.0931 -0.4149
15807TIP3   OH268835   2.457   3.221   3.960  0.4816 -0.2158 -0.1981
15807TIP3    H168836   2.382   3.219   3.901  0.0260 -0.0794  0.3592
15807TIP3    H268837   2.473   3.314   3.975  1.7986 -0.1890 -1.5772
15808TIP3   OH268838   4.613   0.553   5.122 -0.6141 -0.0773 -0.7632
15808TIP3    H168839   4.688   0.560   5.181 -1.9439  0.8429  0.9029
15808TIP3    H268840   4.621   0.630   5.065  0.4224 -0.7232 -1.5319
15809TIP3   OH268841   5.098   4.266  14.149 -0.2537 -0.3691  0.4703
15809TIP3    H168842   5.063   4.185  14.186  0.8227 -0.4205  1.4163
15809TIP3    H268843   5.138   4.240  14.067 -1.5216 -0.4717 -0.1405
15810TIP3   OH268844   6.812   5.730  14.592  0.4077 -0.5704 -0.1916
15810TIP3    H168845   6.787   5.647  14.553  0.5620 -0.3317 -0.8062
15810TIP3    H268846   6.731   5.764  14.629 -0.4370  0.5373 -2.8044
15811TIP3   OH268847   2.099   1.034  14.396  0.0769  0.4278  0.3944
15811TIP3    H168848   2.168   1.051  14.461  0.4330  0.3522  0.0437
15811TIP3    H268849   2.063   0.949  14.420  1.3562 -0.3985 -0.4819
15812TIP3   OH268850   5.178   6.464   4.806 -0.4775 -0.2601  0.2986
15812TIP3    H168851   5.147   6.380   4.838 -1.5916 -0.1125 -0.3235
15812TIP3    H268852   5.161   6.461   4.711  2.1116 -0.4393 -0.2265
15813TIP3   OH268853   1.930   5.842  11.660  0.7863 -0.3528 -0.5309
15813TIP3    H168854   1.965   5.818  11.574  0.4328  1.1853 -1.1304
15813TIP3    H268855   1.940   5.937  11.664  0.3654 -0.3520  0.9499
15814TIP3   OH268856   0.029   1.572   0.250  0.3176  0.7018 -0.7197
15814TIP3    H168857   0.084   1.594   0.325 -1.1885 -0.3020  0.7373
15814TIP3    H268858  -0.060   1.588   0.280 -0.3780 -0.5826 -1.9807
15815TIP3   OH268859   3.112   3.941   1.079  0.6897  0.6644  0.3109
15815TIP3    H168860   3.191   3.964   1.129  1.1351  2.7297 -1.2177
15815TIP3    H268861   3.145   3.899   1.000  0.1960  0.6444  0.1143
15816TIP3   OH268862   1.340   6.006  12.645  0.1546  0.1295 -0.1701
15816TIP3    H168863   1.385   6.090  12.655 -0.8490  0.7653 -0.7192
15816TIP3    H268864   1.316   6.003  12.552 -0.5809 -0.3485  0.0254
15817TIP3   OH268865   3.285   4.375  12.282  0.4012 -0.1446  0.1209
15817TIP3    H168866   3.201   4.367  12.329 -0.3046 -4.3826 -1.3883
15817TIP3    H268867   3.260   4.404  12.195  1.0965  2.4564  0.7115
15818TIP3   OH268868   1.528   1.855  14.173  0.1667  0.0009  0.2472
15818TIP3    H168869   1.530   1.767  14.210 -0.2066 -0.2309 -0.2609
15818TIP3    H268870   1.619   1.886  14.180  0.7924 -1.2379 -1.4425
15819TIP3   OH268871   0.866   3.769  15.720  0.5820  0.5778 -0.3738
15819TIP3    H168872   0.880   3.696  15.659 -0.9586 -0.2427  0.2127
15819TIP3    H268873   0.953   3.806  15.732  1.1993 -0.3242 -1.7212
15820TIP3   OH268874   0.548   0.997  14.546  1.3325 -0.0541  0.2668
15820TIP3    H168875   0.597   1.005  14.463 -0.1262  2.4041 -0.4476
15820TIP3    H268876   0.457   1.007  14.521  0.5533 -2.3363  1.8695
15821TIP3   OH268877   4.362   0.288   3.529 -0.1398 -0.9007  0.1179
15821TIP3    H168878   4.291   0.297   3.465  1.2857  0.5897 -1.3319
15821TIP3    H268879   4.429   0.237   3.484  1.3040  1.0261 -0.0037
15822TIP3   OH268880   6.048   3.194  11.385 -0.1772 -0.5876  0.4892
15822TIP3    H168881   6.045   3.289  11.375 -0.1445 -0.6826 -0.5568
15822TIP3    H268882   6.036   3.179  11.479 -2.0309  0.3572  0.4422
15823TIP3   OH268883   0.203   3.148  11.434 -0.5289  0.3337 -0.0079
15823TIP3    H168884   0.134   3.084  11.415 -0.0216 -0.5362  0.9893
15823TIP3    H268885   0.224   3.187  11.349 -0.6861 -0.9993 -0.6752
15824TIP3   OH268886   0.257   0.333  13.226  0.7956  0.1278 -0.0881
15824TIP3    H168887   0.178   0.279  13.231  1.9716 -1.9084 -1.8415
15824TIP3    H268888   0.228   0.421  13.252 -1.5173 -1.0069  1.4932
15825TIP3   OH268889   4.530   4.894  11.807  0.3104  0.2716 -0.1335
15825TIP3    H168890   4.482   4.976  11.819 -0.0813  0.1895 -1.0892
15825TIP3    H268891   4.622   4.920  11.800  0.0926  0.7510 -1.4814
15826TIP3   OH268892   0.086   5.364   0.996 -0.2983 -0.8652 -0.0605
15826TIP3    H168893   0.146   5.301   1.035  2.8619  2.3908  0.8771
15826TIP3    H268894   0.091   5.346   0.902 -0.6255 -2.8205  0.2398
15827TIP3   OH268895   1.789   0.622  12.730 -0.1857 -0.2375 -0.3594
15827TIP3    H168896   1.752   0.636  12.817 -0.2935  0.2556 -0.4792
15827TIP3    H268897   1.846   0.698  12.717 -0.2732 -0.2416 -0.7711
15828TIP3   OH268898   3.144   4.625  13.948 -0.1384  0.1070  0.0745
15828TIP3    H168899   3.134   4.617  14.043  0.5358 -3.3391 -0.0084
15828TIP3    H268900   3.078   4.566  13.912  0.3310  0.5388 -1.5819
15829TIP3   OH268901   3.171   1.223  16.403  0.0765  0.2243 -0.1877
15829TIP3    H168902   3.232   1.220  16.330  0.1825  0.7277 -0.1207
15829TIP3    H268903   3.190   1.306  16.447 -0.2408  0.0997  0.1901
15830TIP3   OH268904   5.783   3.459   4.523  0.3211  0.0673  0.3310
15830TIP3    H168905   5.771   3.370   4.557 -1.1580  0.3559  0.6203
15830TIP3    H268906   5.759   3.516   4.596  0.5959  0.7069 -0.0714
15831TIP3   OH268907   2.705   3.032  10.454 -0.1200  0.4219  0.2341
15831TIP3    H168908   2.681   3.123  10.442  0.5163  0.5151 -0.4140
15831TIP3    H268909   2.627   2.983  10.430 -0.0869  0.7610 -0.6097
15832TIP3   OH268910   5.469   0.860  12.205  0.7499  0.5384  0.2379
15832TIP3    H168911   5.534   0.886  12.270  1.1204  1.2111 -0.3918
15832TIP3    H268912   5.517   0.860  12.122  0.0602  0.5939 -0.1680
15833TIP3   OH268913   0.453   5.152  13.675 -0.1063 -0.0456  0.3097
15833TIP3    H168914   0.542   5.162  13.640 -0.2701 -1.0141 -0.4167
15833TIP3    H268915   0.416   5.241  13.673  1.0881  0.5099  1.3318
15834TIP3   OH268916   5.588   1.511   6.356 -0.6080  0.6455 -0.0645
15834TIP3    H168917   5.512   1.527   6.300 -1.1889  1.4834  0.9340
15834TIP3    H268918   5.556   1.452   6.424 -0.2794  0.7386  0.1771
15835TIP3   OH268919   0.419   6.074   5.406  0.2840 -0.2508  0.7172
15835TIP3    H168920   0.453   5.985   5.402  0.7494 -0.0428 -0.4114
15835TIP3    H268921   0.397   6.088   5.498  0.5747 -1.3871  0.9686
15836TIP3   OH268922   2.826   5.794   3.129  0.1344  0.5285 -0.4915
15836TIP3    H168923   2.914   5.831   3.138  0.2856 -0.0355  0.4566
15836TIP3    H268924   2.808   5.753   3.214 -1.2390  1.0445 -0.5108
15837TIP3   OH268925   3.727   3.087   3.890  0.2790  0.5684  0.4726
15837TIP3    H168926   3.817   3.065   3.913  0.5798  0.4752 -0.7313
15837TIP3    H268927   3.710   3.169   3.936  1.1186  0.8045  0.3747
15838TIP3   OH268928   5.071   4.590   3.315  0.3802 -0.3905  0.3475
15838TIP3    H168929   5.047   4.623   3.228 -0.7290 -0.6836  0.5283
15838TIP3    H268930   5.006   4.628   3.374 -0.1640 -1.8922  0.7503
15839TIP3   OH268931   1.369   1.297  13.815  0.1314 -0.5116 -0.4681
15839TIP3    H168932   1.385   1.233  13.746  0.4878 -0.7609 -0.1574
15839TIP3    H268933   1.454   1.337  13.832  0.0405 -0.4325 -0.1874
15840TIP3   OH268934   3.366   2.463   0.820  0.0886  0.8547 -0.5823
15840TIP3    H168935   3.393   2.536   0.875 -0.8004  0.5525  0.2674
15840TIP3    H268936   3.442   2.405   0.819  0.6382  1.5561 -0.8950
15841TIP3   OH268937   2.958   3.234  14.514 -0.1637 -0.2209 -0.1111
15841TIP3    H168938   2.960   3.139  14.510 -1.1916 -0.2256 -1.8301
15841TIP3    H268939   3.049   3.261  14.522  0.0962 -1.3441  0.8827
15842TIP3   OH268940   5.035   2.587  14.933 -0.1206  0.1390  0.2142
15842TIP3    H168941   4.992   2.503  14.948  0.5522 -0.6341 -1.8649
15842TIP3    H268942   5.127   2.564  14.916  0.7581  1.5807  2.4545
15843TIP3   OH268943   4.299   1.535   4.811  0.4383 -0.0029 -0.0201
15843TIP3    H168944   4.238   1.461   4.805  0.3419  0.0705  0.0676
15843TIP3    H268945   4.354   1.515   4.887 -0.4068  0.6384  0.7649
15844TIP3   OH268946   5.386   4.084   4.066 -0.5672 -1.0125 -0.1886
15844TIP3    H168947   5.332   4.157   4.036  1.0785  0.3274 -0.0718
15844TIP3    H268948   5.345   4.055   4.147 -1.1290 -0.0526 -0.1073
15845TIP3   OH268949   2.523   4.092   1.265  0.1799 -0.7888  0.2396
15845TIP3    H168950   2.570   4.082   1.348  0.9000 -1.0646 -0.1925
15845TIP3    H268951   2.534   4.007   1.221 -0.8438 -0.9071  0.1857
15846TIP3   OH268952   0.001   6.272   5.744 -0.4237 -0.2240  0.0144
15846TIP3    H168953  -0.094   6.256   5.741 -0.2561 -1.2958 -0.0864
15846TIP3    H268954   0.017   6.303   5.833 -1.0088  1.0339 -0.2923
15847TIP3   OH268955   2.090   1.794  11.780  0.0872  0.3145  0.1041
15847TIP3    H168956   2.123   1.763  11.865 -0.1647 -0.1577  0.0329
15847TIP3    H268957   2.068   1.886  11.795 -0.0937  0.1951  0.5948
15848TIP3   OH268958   1.260   3.587   5.366 -0.6304  0.4442 -0.1471
15848TIP3    H168959   1.328   3.653   5.376 -0.6366  0.2962  0.9823
15848TIP3    H268960   1.187   3.620   5.418 -0.8763 -0.1309 -0.1206
15849TIP3   OH268961   1.983   5.189   5.169  0.2388  0.1922  0.8166
15849TIP3    H168962   1.968   5.241   5.090 -0.9753  1.9757  2.1078
15849TIP3    H268963   1.940   5.106   5.152  0.9738  0.1027 -0.7906
15850TIP3   OH268964   4.219   2.209   1.123  0.9007  0.1950  0.2332
15850TIP3    H168965   4.196   2.215   1.216  0.3320 -0.6433  0.1544
15850TIP3    H268966   4.140   2.178   1.081  1.2916  0.1533 -0.4795
15851TIP3   OH268967   3.860   6.657  13.786  0.1602  0.1051  0.6617
15851TIP3    H168968   3.844   6.644  13.880  0.4968  0.4686  0.7737
15851TIP3    H268969   3.894   6.573  13.755 -2.6930 -1.0100  0.2266
15852TIP3   OH268970   4.070   5.196   1.858  0.1397  0.5955 -0.3536
15852TIP3    H168971   3.982   5.204   1.896 -0.1084  0.5668 -0.9216
15852TIP3    H268972   4.067   5.247   1.778  0.5859  0.4314 -0.4800
15853TIP3   OH268973   3.470   3.412  14.971  0.0996  0.7969  0.0527
15853TIP3    H168974   3.478   3.316  14.967 -1.0750  0.6966 -0.3324
15853TIP3    H268975   3.537   3.439  15.034 -0.8205 -0.4741  1.6787
15854TIP3   OH268976   4.920   0.332  12.254 -0.0270 -0.1035  0.2083
15854TIP3    H168977   5.003   0.312  12.211 -0.6400  0.5993 -1.3671
15854TIP3    H268978   4.893   0.415  12.215 -1.9866 -0.8561 -0.1164
15855TIP3   OH268979   0.272   3.742  13.209  0.0508  0.1935  0.3009
15855TIP3    H168980   0.283   3.677  13.278  1.5349  1.2714  1.1400
15855TIP3    H268981   0.210   3.806  13.245  1.3613  1.1292  0.9618
15856TIP3   OH268982   5.336   5.096  14.739  0.4103  0.1528  0.2513
15856TIP3    H168983   5.260   5.152  14.721 -0.1080 -1.1090 -1.9153
15856TIP3    H268984   5.303   5.026  14.795 -0.0793 -0.3827 -0.6729
15857TIP3   OH268985   3.295   0.785  15.424  0.7518  0.2244 -0.0309
15857TIP3    H168986   3.357   0.833  15.369  1.9706 -1.5640 -0.2693
15857TIP3    H268987   3.241   0.734  15.363 -0.4972  1.1669  0.2281
15858TIP3   OH268988   4.075   3.740   4.749  0.2259  0.7023  0.0981
15858TIP3    H168989   4.064   3.785   4.833  0.6466 -0.1807  0.6489
15858TIP3    H268990   4.035   3.799   4.684 -0.1471  1.3774  0.9192
15859TIP3   OH268991   1.240   3.611   6.430 -0.2964  0.3051 -0.1499
15859TIP3    H168992   1.308   3.553   6.465 -0.8623  0.1007  0.6460
15859TIP3    H268993   1.287   3.684   6.390  0.3965 -0.1308 -0.1315
15860TIP3   OH268994   1.362   0.071  10.851 -0.2063  0.4064  0.0945
15860TIP3    H168995   1.415   0.115  10.785 -0.0176  0.1970  0.1049
15860TIP3    H268996   1.289   0.032  10.802  0.6504 -0.8945 -0.1916
15861TIP3   OH268997   4.645   2.064   5.434  0.3359  0.1994  0.0042
15861TIP3    H168998   4.671   2.071   5.342 -0.3621  1.8145 -0.1029
15861TIP3    H268999   4.707   2.119   5.481 -1.2655  2.0648  0.0553
15862TIP3   OH269000   5.087   5.957   3.096  0.0465 -0.5780  0.1144
15862TIP3    H169001   5.042   5.875   3.076 -1.0048 -0.1518  0.6843
15862TIP3    H269002   5.047   5.988   3.177 -0.1747  0.9350 -0.5399
15863TIP3   OH269003   2.482   5.588   2.263 -0.2881  0.4075 -0.0658
15863TIP3    H169004   2.433   5.671   2.265 -2.8143 -0.9509 -0.8473
15863TIP3    H269005   2.429   5.528   2.314  0.6040 -1.1720 -0.9259
15864TIP3   OH269006   1.690   3.784   1.727  0.1008 -0.2650  0.1451
15864TIP3    H169007   1.658   3.728   1.797 -2.2845 -0.4162 -0.9552
15864TIP3    H269008   1.757   3.839   1.768 -0.7003 -0.8270  2.3345
15865TIP3   OH269009   5.842   4.477   4.948 -0.5069 -0.3044 -0.0405
15865TIP3    H169010   5.888   4.490   5.031 -0.6243  0.1028 -0.0351
15865TIP3    H269011   5.887   4.536   4.887 -0.7635 -0.2038 -0.1332
15866TIP3   OH269012   1.223   4.340   1.802 -0.3041 -0.2704  0.3858
15866TIP3    H169013   1.231   4.343   1.897 -0.5223  0.2063  0.3920
15866TIP3    H269014   1.261   4.422   1.772  0.9109 -0.9474 -0.0362
15867TIP3   OH269015   6.755   1.738  11.607 -0.1767  0.2519  0.0014
15867TIP3    H169016   6.706   1.788  11.673  1.4930 -0.2050  1.6427
15867TIP3    H269017   6.711   1.653  11.604 -1.3393  0.8498 -0.8102
15868TIP3   OH269018   0.327   1.581   0.934 -0.0649 -0.2052 -0.2474
15868TIP3    H169019   0.339   1.539   1.019 -0.4138 -1.3246 -0.7277
15868TIP3    H269020   0.252   1.639   0.946  1.7319  2.0322  1.0261
15869TIP3   OH269021   5.710   3.190   1.071  0.7310  0.0262  0.1442
15869TIP3    H169022   5.666   3.117   1.114  3.1065 -1.6200 -0.0777
15869TIP3    H269023   5.719   3.161   0.980  0.0800  1.4225 -0.3975
15870TIP3   OH269024   0.733   5.008   0.525 -0.0208  0.9460  0.3835
15870TIP3    H169025   0.719   4.938   0.461  1.0800  0.2088  0.9110
15870TIP3    H269026   0.661   5.069   0.511 -0.6965 -0.0243 -0.4585
15871TIP3   OH269027   2.596   3.836  10.801  1.0981  0.1574 -0.0946
15871TIP3    H169028   2.680   3.791  10.813  1.1602  0.4457  0.5567
15871TIP3    H269029   2.540   3.800  10.869  0.9906  0.6873  0.0986
15872TIP3   OH269030   6.558   2.699  13.914 -0.0898  0.1998  0.0835
15872TIP3    H169031   6.641   2.724  13.872 -0.7917 -1.1238 -2.2588
15872TIP3    H269032   6.491   2.732  13.855 -1.3273  1.5846  2.1358
15873TIP3   OH269033   5.690   5.029   5.540 -0.6149 -0.3792 -0.1347
15873TIP3    H169034   5.624   4.962   5.559 -1.6158 -0.3260 -2.9662
15873TIP3    H269035   5.645   5.112   5.555 -0.0727 -0.3082  1.2166
15874TIP3   OH269036   5.719   0.675   6.593 -0.3968  0.4633  0.1074
15874TIP3    H169037   5.647   0.612   6.592  0.4618 -0.5443 -0.0183
15874TIP3    H269038   5.794   0.626   6.560  0.6932  1.0550  1.6055
15875TIP3   OH269039   2.870   1.802  14.633 -0.8021 -0.0136 -0.1174
15875TIP3    H169040   2.839   1.890  14.612  1.4206  1.0227  0.6210
15875TIP3    H269041   2.920   1.812  14.714 -0.4409 -1.9436 -0.0396
15876TIP3   OH269042   5.673   1.015  13.580 -0.0054 -0.1885 -0.6301
15876TIP3    H169043   5.702   0.985  13.494  0.4211 -0.4909 -0.3828
15876TIP3    H269044   5.692   0.942  13.639 -0.2827  0.0214 -0.2729
15877TIP3   OH269045   3.537   6.711  14.588 -0.2187 -0.1992 -0.7108
15877TIP3    H169046   3.594   6.763  14.644  1.4370 -0.7459 -1.7845
15877TIP3    H269047   3.590   6.634  14.565 -1.7696 -1.2359 -0.9653
15878TIP3   OH269048   6.718   0.384  11.385 -0.1257  0.2450 -0.5935
15878TIP3    H169049   6.808   0.353  11.396 -0.4797 -0.1857  1.6655
15878TIP3    H269050   6.724   0.455  11.322  1.9537  0.7979  0.1643
15879TIP3   OH269051   5.289   4.609   3.025 -0.0055 -0.2188  0.4463
15879TIP3    H169052   5.302   4.701   3.046 -0.2892  0.1051 -0.7618
15879TIP3    H269053   5.194   4.600   3.014  0.0733 -0.5199 -0.0293
15880TIP3   OH269054   0.330   2.878   1.135  0.5321 -0.2283 -0.0406
15880TIP3    H169055   0.286   2.838   1.210  0.6938  0.4038  0.3897
15880TIP3    H269056   0.416   2.836   1.132  0.2951 -0.7133 -0.2630
15881TIP3   OH269057   0.344   3.769   4.360 -0.2036  0.5853  0.3513
15881TIP3    H169058   0.268   3.827   4.360  0.7468  1.9050 -0.8850
15881TIP3    H269059   0.389   3.787   4.277  1.6871  0.1751  1.2120
15882TIP3   OH269060   5.145   1.651   3.794 -0.1400 -0.3870  0.5350
15882TIP3    H169061   5.113   1.662   3.884 -1.2825 -1.9281  0.3606
15882TIP3    H269062   5.066   1.637   3.742  0.2898  2.5918 -1.1335
15883TIP3   OH269063   6.741   0.671   2.728 -0.2498 -0.5969 -0.1634
15883TIP3    H169064   6.684   0.741   2.761  0.5061  1.2859 -2.5457
15883TIP3    H269065   6.684   0.594   2.725 -2.3828  0.9052 -1.2631
15884TIP3   OH269066   5.629   5.571   1.466  0.0721  0.4504  0.0819
15884TIP3    H169067   5.592   5.635   1.406  3.3765  1.5573 -0.9849
15884TIP3    H269068   5.649   5.620   1.545  0.1127  0.1199  0.2801
15885TIP3   OH269069   3.885   0.083  12.395 -0.3818 -0.3809  0.2460
15885TIP3    H169070   3.875   0.172  12.430 -2.6014 -0.5427  0.1884
15885TIP3    H269071   3.798   0.061  12.360  0.4811 -2.0710 -0.9747
15886TIP3   OH269072   6.621   5.187   3.988  0.2766  0.1832 -0.0478
15886TIP3    H169073   6.706   5.221   4.016 -0.9556  2.2069  1.5295
15886TIP3    H269074   6.583   5.147   4.066 -1.6732  2.5803  0.3677
15887TIP3   OH269075   0.672   5.502  15.001 -0.4377  0.0367  0.4419
15887TIP3    H169076   0.732   5.558  15.050  0.2729 -1.4704  1.3709
15887TIP3    H269077   0.703   5.509  14.910  0.2780  0.3535  0.6967
15888TIP3   OH269078   4.878   0.535   2.398 -0.0189  0.1412  0.2813
15888TIP3    H169079   4.886   0.612   2.455  0.6020  0.2148  0.0985
15888TIP3    H269080   4.866   0.571   2.310 -2.5429  0.0485  0.5153
15889TIP3   OH269081   0.013   1.125  16.848 -0.7242  0.1569  0.4033
15889TIP3    H169082   0.069   1.083  16.783  0.3032  1.7105  0.2257
15889TIP3    H269083   0.028   1.076  16.929 -0.4221 -0.5003 -0.0483
15890TIP3   OH269084   0.558   1.068  11.486 -0.0565  0.1316  0.1913
15890TIP3    H169085   0.528   1.158  11.478  0.9456  0.4690  0.0830
15890TIP3    H269086   0.481   1.020  11.517 -1.0316  0.7357 -1.1539
15891TIP3   OH269087   3.511   5.133   5.096  0.3797  0.1998  0.1274
15891TIP3    H169088   3.436   5.105   5.150 -0.1301 -1.7327 -1.4750
15891TIP3    H269089   3.575   5.165   5.160 -0.8619 -0.3485  1.7430
15892TIP3   OH269090   4.184   3.370  11.299  0.0809  0.4200 -0.7275
15892TIP3    H169091   4.176   3.281  11.333  0.2615  0.8115  0.3554
15892TIP3    H269092   4.094   3.401  11.290  0.0582  0.7133  0.4662
15893TIP3   OH269093   6.141   5.689  11.204  0.3425 -0.2082 -0.0835
15893TIP3    H169094   6.157   5.690  11.110 -0.8039 -0.3062 -0.2965
15893TIP3    H269095   6.221   5.724  11.243  1.5415 -1.8129 -0.9781
15894TIP3   OH269096   5.095   2.628   4.393 -0.7411  0.4810  0.0319
15894TIP3    H169097   5.109   2.635   4.487  0.1257 -2.5838  0.2422
15894TIP3    H269098   5.016   2.576   4.384  0.5285 -1.4128 -0.8260
15895TIP3   OH269099   2.323   3.778   2.541 -0.6027  0.0970 -0.3705
15895TIP3    H169100   2.349   3.839   2.471  1.1046  1.1075  1.0682
15895TIP3    H269101   2.294   3.835   2.612 -1.5485 -0.8897  0.0570
15896TIP3   OH269102   0.296   4.364  11.944 -0.5760 -0.2701  0.0579
15896TIP3    H169103   0.374   4.350  11.891 -0.1417 -2.1219  1.0991
15896TIP3    H269104   0.250   4.436  11.900  0.7929 -0.3315 -1.5932
15897TIP3   OH269105   2.158   1.573   3.650  0.3081  0.1256  0.3172
15897TIP3    H169106   2.223   1.598   3.584  0.9542 -0.6980  0.6254
15897TIP3    H269107   2.098   1.647   3.653  1.7769  1.3406  0.7079
15898TIP3   OH269108   4.427   3.481  14.713 -0.0554 -0.2553 -0.2621
15898TIP3    H169109   4.493   3.541  14.679 -0.6675 -0.2571 -1.5053
15898TIP3    H269110   4.458   3.459  14.801  1.4328 -0.0223 -0.6944
15899TIP3   OH269111   0.718   3.598   4.303 -0.5201 -0.4251 -0.3520
15899TIP3    H169112   0.633   3.565   4.273 -1.1928  0.3168  0.6888
15899TIP3    H269113   0.698   3.679   4.348  0.8007 -0.0507 -0.4006
15900TIP3   OH269114   3.635   6.171   4.253  0.2156  0.1586 -0.3981
15900TIP3    H169115   3.622   6.110   4.180  0.6789 -0.6246  0.1589
15900TIP3    H269116   3.605   6.255   4.219  1.4966  0.0708 -1.9063
15901TIP3   OH269117   3.194   0.513  12.483  0.1144  0.1475  0.3810
15901TIP3    H169118   3.138   0.513  12.561  0.0331  0.7969  0.3264
15901TIP3    H269119   3.238   0.428  12.486  0.0904  0.1537  1.1212
15902TIP3   OH269120   4.442   0.838  15.267  0.4547  0.6971  0.7089
15902TIP3    H169121   4.355   0.802  15.247  0.3438  0.7140  1.1645
15902TIP3    H269122   4.467   0.797  15.349  1.3214 -0.0817  0.0850
15903TIP3   OH269123   4.791   2.265   5.559 -0.4254 -0.3327  0.0487
15903TIP3    H169124   4.830   2.328   5.620 -0.5517 -1.7566  1.6713
15903TIP3    H269125   4.866   2.216   5.524 -0.2631  1.0774 -1.7204
15904TIP3   OH269126   2.392   0.264  14.926  0.3795  0.3881 -0.2108
15904TIP3    H169127   2.409   0.172  14.904  1.1106 -0.0081  1.8242
15904TIP3    H269128   2.302   0.264  14.959 -0.2167  0.7347 -1.7547
15905TIP3   OH269129   3.318   5.794   6.364 -0.5635 -0.3701  0.1255
15905TIP3    H169130   3.412   5.777   6.354 -0.6280 -1.2412  0.9111
15905TIP3    H269131   3.304   5.797   6.458 -1.2163  0.4705  0.0137
15906TIP3   OH269132   0.730   0.662   4.750 -0.7367  0.2962 -0.5324
15906TIP3    H169133   0.762   0.700   4.669 -2.2287  0.6264 -1.0027
15906TIP3    H269134   0.804   0.612   4.784 -0.1462 -0.0402 -2.2150
15907TIP3   OH269135   1.113   5.372  12.560  0.1067 -0.1107  0.2485
15907TIP3    H169136   1.046   5.365  12.628  0.9437  0.0080  1.1127
15907TIP3    H269137   1.140   5.464  12.561 -0.2220  0.0020 -0.5947
15908TIP3   OH269138   5.779   2.496  15.282  0.4505 -0.1313  0.2541
15908TIP3    H169139   5.824   2.434  15.225  2.1402 -1.2795  2.6581
15908TIP3    H269140   5.850   2.536  15.333 -0.9907  0.5691  1.7870
15909TIP3   OH269141   4.076   1.253   3.583  0.3745 -0.2216 -0.3679
15909TIP3    H169142   4.114   1.313   3.646 -0.6599  0.5412 -0.4498
15909TIP3    H269143   4.131   1.262   3.505  0.2675  0.5875 -0.3596
15910TIP3   OH269144   4.304   3.561   3.354 -0.0025 -0.3729 -0.0398
15910TIP3    H169145   4.294   3.467   3.335  0.7836 -0.5654  0.4512
15910TIP3    H269146   4.396   3.579   3.335  0.1235  0.0464  0.9308
15911TIP3   OH269147   1.675   1.709   6.114 -0.2740 -0.0536 -0.5378
15911TIP3    H169148   1.725   1.638   6.074 -0.3740 -1.3195  1.4482
15911TIP3    H269149   1.735   1.783   6.114 -0.1237 -0.1211 -2.5354
15912TIP3   OH269150   5.593   1.423   2.782 -0.0282  0.0558  0.0778
15912TIP3    H169151   5.516   1.468   2.747  0.9717  1.4757 -0.4106
15912TIP3    H269152   5.574   1.410   2.875 -1.1280 -0.2459 -0.1793
15913TIP3   OH269153   4.189   3.470  14.589 -0.2855  0.5257  0.6355
15913TIP3    H169154   4.264   3.485  14.646 -0.9780 -1.7257  2.2843
15913TIP3    H269155   4.202   3.381  14.554 -1.6808  0.4527  0.2060
15914TIP3   OH269156   1.166   1.747   1.668 -0.7413  0.2449  0.2342
15914TIP3    H169157   1.142   1.775   1.756 -1.4795 -0.9269  0.4257
15914TIP3    H269158   1.176   1.652   1.674  0.3675  0.2679 -0.6869
15915TIP3   OH269159   4.723   0.115  14.610 -0.6028  0.1113  0.3276
15915TIP3    H169160   4.777   0.141  14.535 -0.6354 -0.5099  0.0755
15915TIP3    H269161   4.748   0.175  14.680  2.0016 -1.4242  0.8721
15916TIP3   OH269162   2.445   1.803  16.007  0.1905 -0.2694 -0.1509
15916TIP3    H169163   2.474   1.859  16.079  2.3481 -0.8265 -0.5013
15916TIP3    H269164   2.510   1.733  16.004 -1.9745 -2.3968 -0.2289
15917TIP3   OH269165   0.252   1.904   0.083 -0.2497 -0.7698 -0.1026
15917TIP3    H169166   0.238   1.999   0.078  0.2613 -0.7457 -2.3646
15917TIP3    H269167   0.336   1.895   0.128 -0.5905 -0.1984  0.6719
15918TIP3   OH269168   1.963   3.459   1.578 -0.7012 -0.9603 -0.4873
15918TIP3    H169169   1.994   3.369   1.568  1.1045 -0.6878  1.7638
15918TIP3    H269170   1.947   3.469   1.672  0.4310  1.4343 -0.4657
15919TIP3   OH269171   0.390   0.711   2.801 -0.0234  0.2486  0.2605
15919TIP3    H169172   0.360   0.620   2.803  0.0521  0.2081 -0.2520
15919TIP3    H269173   0.340   0.754   2.870  1.1295 -0.5391  1.6411
15920TIP3   OH269174   3.225   4.890  15.107 -0.4982  0.4825  0.6760
15920TIP3    H169175   3.306   4.847  15.134 -1.6203 -1.6535  0.8614
15920TIP3    H269176   3.173   4.898  15.187 -0.8885  0.8950  0.3902
15921TIP3   OH269177   6.354   0.830   3.875  0.3322  0.2957  0.3282
15921TIP3    H169178   6.351   0.925   3.869  1.2197  0.3117 -0.1372
15921TIP3    H269179   6.354   0.811   3.969  0.8713  0.7928  0.4317
15922TIP3   OH269180   4.844   1.563   4.995  0.3698  0.2532  0.1399
15922TIP3    H169181   4.937   1.556   5.014  0.0922 -1.4270  1.0521
15922TIP3    H269182   4.826   1.489   4.936 -0.3448  0.7162 -0.2388
15923TIP3   OH269183   6.409   0.651  11.742  0.3712 -0.5048  0.2133
15923TIP3    H169184   6.469   0.604  11.684 -0.1167  3.2811 -3.9094
15923TIP3    H269185   6.326   0.603  11.734  1.2259 -2.2151  0.9928
15924TIP3   OH269186   0.508   4.102  15.981 -0.0935  0.8649  0.0521
15924TIP3    H169187   0.474   4.118  15.893  1.7972  3.5917 -0.3243
15924TIP3    H269188   0.560   4.022  15.973 -3.1686 -1.2504 -0.2174
15925TIP3   OH269189   3.353   4.077  13.776 -0.0520  0.5138  0.5281
15925TIP3    H169190   3.312   4.009  13.723  0.8145  0.2302  0.2100
15925TIP3    H269191   3.284   4.143  13.787 -1.1203 -0.6896  1.4047
15926TIP3   OH269192   1.191   3.003  16.338 -0.5011 -0.6732  0.0107
15926TIP3    H169193   1.180   3.053  16.258 -1.0578 -1.0678 -0.1663
15926TIP3    H269194   1.106   2.962  16.353 -0.6463  0.0515  1.2526
15927TIP3   OH269195   6.614   1.800  16.652 -0.0743 -0.1049 -0.5440
15927TIP3    H169196   6.526   1.790  16.616  0.0681 -1.3655 -0.5743
15927TIP3    H269197   6.652   1.872  16.602 -1.2783  0.8726 -0.1181
15928TIP3   OH269198   5.125   4.833   3.532 -0.0069  0.0557  0.1924
15928TIP3    H169199   5.048   4.778   3.547 -0.2102  0.4766  0.6995
15928TIP3    H269200   5.197   4.771   3.524 -0.6454 -0.5084 -2.2964
15929TIP3   OH269201   0.612   2.762  11.863 -0.5811  0.4262 -0.5035
15929TIP3    H169202   0.668   2.836  11.842  0.7549 -0.9350 -2.0771
15929TIP3    H269203   0.531   2.778  11.814  0.0233  0.4509 -1.5093
15930TIP3   OH269204   0.468   0.716  15.824  0.2292  0.0313 -0.0650
15930TIP3    H169205   0.506   0.797  15.859  1.3369  0.0759 -1.2912
15930TIP3    H269206   0.469   0.656  15.898  0.6439  0.7328  0.5188
15931TIP3   OH269207   0.096   2.151  16.855  0.0553 -0.0006 -0.0462
15931TIP3    H169208   0.147   2.073  16.834 -1.8187 -0.8676 -1.6356
15931TIP3    H269209   0.010   2.118  16.883 -0.5271  1.4745  0.0350
15932TIP3   OH269210   2.739   5.389   5.987 -1.0156 -0.6506 -0.5241
15932TIP3    H169211   2.730   5.472   6.033 -0.8125 -0.5400 -0.6794
15932TIP3    H269212   2.744   5.324   6.056  0.2605 -0.3945 -0.3401
15933TIP3   OH269213   5.869   5.429   4.310  0.5038  0.6917  0.2075
15933TIP3    H169214   5.844   5.347   4.353 -1.5115  1.8146  1.3343
15933TIP3    H269215   5.960   5.416   4.284  0.9292 -1.1240  2.2976
15934TIP3   OH269216   2.086   1.294  15.287  0.0008  0.5282 -0.3125
15934TIP3    H169217   2.171   1.253  15.303  0.7707  1.5154 -1.6547
15934TIP3    H269218   2.107   1.382  15.255 -1.5414  0.9167 -0.3540
15935TIP3   OH269219   1.651   3.681   3.455  0.3892  0.3553 -0.6771
15935TIP3    H169220   1.685   3.677   3.365 -1.5610 -1.5017 -1.4238
15935TIP3    H269221   1.720   3.725   3.505  3.1124 -1.6702 -2.3860
15936TIP3   OH269222   5.373   2.552   0.787 -0.3115  0.0927 -0.9234
15936TIP3    H169223   5.444   2.579   0.728 -0.1672  2.5769  0.2351
15936TIP3    H269224   5.396   2.463   0.814  0.7971 -0.2529 -2.8254
15937TIP3   OH269225   2.655   2.694  11.062 -0.0822  0.0500  0.4314
15937TIP3    H169226   2.621   2.782  11.076  0.6411  0.3416  0.4106
15937TIP3    H269227   2.587   2.636  11.097 -1.4304  0.5246 -1.2516
15938TIP3   OH269228   0.676   4.706  14.454 -0.9538  0.2177 -0.6072
15938TIP3    H169229   0.601   4.759  14.480 -2.5211 -1.9464 -0.4418
15938TIP3    H269230   0.724   4.689  14.535 -0.0290  1.8535 -0.7565
15939TIP3   OH269231   0.649   2.522   0.396  0.0811  0.5491 -0.0461
15939TIP3    H169232   0.571   2.471   0.378  0.3208  0.4536 -0.8671
15939TIP3    H269233   0.670   2.564   0.313 -0.0218  1.8674  0.5729
15940TIP3   OH269234   1.245   0.073   5.697  0.2107  0.0756  0.4302
15940TIP3    H169235   1.229   0.072   5.603 -0.1529 -0.9081  0.4930
15940TIP3    H269236   1.340   0.060   5.705  0.0053 -1.8853  0.2204
15941TIP3   OH269237   3.474   5.057  13.685  0.2321  0.0120 -0.0131
15941TIP3    H169238   3.516   4.986  13.735 -0.5213 -0.1318  0.4344
15941TIP3    H269239   3.392   5.019  13.653 -0.6272  0.9360  1.0004
15942TIP3   OH269240   0.032   4.708  11.330 -0.6421  0.2392 -0.2391
15942TIP3    H169241   0.074   4.687  11.413  1.6002  2.4774 -0.7036
15942TIP3    H269242  -0.018   4.788  11.348 -1.4520 -0.1491 -0.6913
15943TIP3   OH269243   2.671   3.350   2.540 -0.0445  0.1397  0.0422
15943TIP3    H169244   2.760   3.385   2.539  0.1715 -0.3806 -1.6641
15943TIP3    H269245   2.658   3.312   2.453 -2.7965  2.3643 -0.6784
15944TIP3   OH269246   0.141   5.639   5.192  0.1974 -0.8731 -0.2410
15944TIP3    H169247   0.052   5.673   5.191  0.3293 -0.4550  0.6844
15944TIP3    H269248   0.196   5.714   5.170  0.4302 -0.6587  0.9765
15945TIP3   OH269249   1.357   5.424  13.309  1.1064  0.1185 -0.6300
15945TIP3    H169250   1.289   5.385  13.254  0.4803 -0.5341  0.5648
15945TIP3    H269251   1.433   5.367  13.298  1.2128  0.3810 -1.3281
15946TIP3   OH269252   2.999   0.200  14.201  0.6052 -0.5496  0.2620
15946TIP3    H169253   3.009   0.253  14.280  2.5483 -0.0463 -0.2764
15946TIP3    H269254   2.936   0.249  14.147 -0.0580 -0.4561  1.1085
15947TIP3   OH269255   5.735   6.809  16.663 -0.2077 -0.1012 -0.1117
15947TIP3    H169256   5.755   6.894  16.703  0.2872  0.7816 -2.1149
15947TIP3    H269257   5.800   6.799  16.594 -0.7261 -1.7832 -0.3891
15948TIP3   OH269258   1.170   1.317  12.406 -0.0446 -0.1715  0.7657
15948TIP3    H169259   1.228   1.316  12.331  0.3037  1.7789  0.9583
15948TIP3    H269260   1.083   1.334  12.369 -0.0177 -0.0983  0.7368
15949TIP3   OH269261   2.414   3.652   5.300  0.0067 -0.2977  0.3473
15949TIP3    H169262   2.325   3.634   5.332  0.1931  0.3354  1.2938
15949TIP3    H269263   2.470   3.594   5.352  0.0547 -1.7201 -1.2275
15950TIP3   OH269264   2.999   3.389   2.986 -0.0972 -0.2169  0.0875
15950TIP3    H169265   2.913   3.420   2.957 -0.3186 -0.6339  0.2889
15950TIP3    H269266   3.030   3.335   2.913 -0.6448 -1.2484  0.5888
15951TIP3   OH269267   0.563   5.958   2.786 -0.3775 -0.6094  0.1589
15951TIP3    H169268   0.504   6.029   2.809  1.3235  0.6110  0.9273
15951TIP3    H269269   0.649   5.986   2.817  0.8151 -1.9008 -1.7134
15952TIP3   OH269270   3.509   5.911  13.331 -0.1793 -0.5240  0.1664
15952TIP3    H169271   3.420   5.942  13.318 -0.4513 -0.6490  1.6099
15952TIP3    H269272   3.564   5.975  13.285 -0.7177  2.1882  2.9772
15953TIP3   OH269273   3.441   5.275  13.854 -0.4742 -0.2921  0.5338
15953TIP3    H169274   3.460   5.200  13.797 -0.0680  0.1323  0.0980
15953TIP3    H269275   3.369   5.245  13.909 -0.6836 -0.8173 -0.0052
15954TIP3   OH269276   1.053   4.670   2.172 -0.5928 -0.2198 -0.4146
15954TIP3    H169277   1.085   4.658   2.083 -1.4993 -0.7746 -0.6798
15954TIP3    H269278   1.097   4.749   2.203  1.5489 -1.3031 -0.4956
15955TIP3   OH269279   3.543   4.652  15.448 -0.6122 -0.0623 -0.1157
15955TIP3    H169280   3.466   4.612  15.487 -0.4651 -1.7150 -1.3876
15955TIP3    H269281   3.599   4.675  15.522 -1.9874  0.4544  0.7783
15956TIP3   OH269282   6.788   2.243  15.019 -0.4729 -0.0929  0.4972
15956TIP3    H169283   6.873   2.229  15.060 -0.3632 -2.3676 -0.3122
15956TIP3    H269284   6.724   2.230  15.089 -0.1907  1.9909  1.1902
15957TIP3   OH269285   2.175   0.832   0.185 -0.0628 -0.3516 -0.4261
15957TIP3    H169286   2.176   0.772   0.111 -0.3336  0.0287 -0.7378
15957TIP3    H269287   2.085   0.865   0.190 -0.5679 -1.8184  1.2524
15958TIP3   OH269288   3.081   3.231   2.767 -0.2661  0.5088  0.4089
15958TIP3    H169289   3.125   3.249   2.684  0.9706  1.2793  1.1936
15958TIP3    H269290   3.143   3.176   2.815 -1.1206 -0.2184  0.6932
15959TIP3   OH269291   1.757   4.602   4.786 -0.2059  0.7574  0.0270
15959TIP3    H169292   1.763   4.654   4.705  0.2361 -0.1590 -0.5406
15959TIP3    H269293   1.678   4.549   4.774  0.3812 -0.0849 -0.2462
15960TIP3   OH269294   2.736   1.454  16.581  0.3310 -0.1377 -0.3448
15960TIP3    H169295   2.677   1.515  16.625  0.4473 -0.5186  0.3484
15960TIP3    H269296   2.793   1.420  16.650  1.9545  0.8640 -1.1393
15961TIP3   OH269297   2.586   3.096   4.739 -0.0037 -0.7062  0.0801
15961TIP3    H169298   2.591   3.127   4.830 -3.7769 -3.7254  1.6381
15961TIP3    H269299   2.561   3.173   4.689 -0.1728  0.5890  2.0266
15962TIP3   OH269300   2.281   2.118   1.062 -0.1814 -0.1606 -0.2479
15962TIP3    H169301   2.324   2.062   1.126 -0.4136 -0.9817 -0.7871
15962TIP3    H269302   2.344   2.188   1.044  0.6190 -0.9290 -0.4749
15963TIP3   OH269303   4.689   4.374  16.761 -0.1151  0.2438  0.0426
15963TIP3    H169304   4.696   4.449  16.819 -1.5887  0.2395  0.2693
15963TIP3    H269305   4.680   4.298  16.819 -0.1441  0.0654 -0.1892
15964TIP3   OH269306   1.351   5.567   2.232  0.3782 -0.5833 -0.1658
15964TIP3    H169307   1.377   5.657   2.257 -1.8855  0.8446 -2.5422
15964TIP3    H269308   1.285   5.543   2.297  1.1967 -0.7242  0.6552
15965TIP3   OH269309   6.290   5.762   0.476  0.2132  0.3404 -0.1121
15965TIP3    H169310   6.274   5.736   0.566  2.3218  0.0028  0.2169
15965TIP3    H269311   6.299   5.679   0.428  2.0904  0.4378 -0.0053
15966TIP3   OH269312   6.634   5.172  17.010  0.4142 -0.4521 -0.1647
15966TIP3    H169313   6.638   5.077  17.005  0.8244 -0.5720  1.6441
15966TIP3    H269314   6.553   5.195  16.965 -0.6993 -1.8375  1.0132
15967TIP3   OH269315   2.073   5.729  10.783 -0.6573 -0.4539 -0.0550
15967TIP3    H169316   1.998   5.669  10.780 -0.7980 -0.2278 -1.3871
15967TIP3    H269317   2.109   5.727  10.695  1.1879 -0.8839  0.6591
15968TIP3   OH269318   2.176   0.465  13.086  0.1011 -0.4228  1.2525
15968TIP3    H169319   2.224   0.395  13.042  1.6208  0.9376  0.6660
15968TIP3    H269320   2.240   0.505  13.146 -0.0108  1.8756 -0.0467
15969TIP3   OH269321   1.437   6.398   2.388 -0.3212 -0.0608 -0.1871
15969TIP3    H169322   1.488   6.444   2.322  0.7603  1.9674  1.8970
15969TIP3    H269323   1.452   6.305   2.369 -0.2700  0.4135 -2.8516
15970TIP3   OH269324   2.729   0.942   2.377 -0.4801  0.7274  0.4860
15970TIP3    H169325   2.703   0.905   2.462 -0.1892 -1.3898 -0.2683
15970TIP3    H269326   2.819   0.970   2.390 -0.3186  0.0941  0.8139
15971TIP3   OH269327   4.731   1.702  14.290  0.0648  0.3798  0.4539
15971TIP3    H169328   4.795   1.761  14.250  0.8910 -0.1099  1.0157
15971TIP3    H269329   4.652   1.755  14.298  0.6504  1.2761  0.5406
15972TIP3   OH269330   6.372   2.038  11.506 -0.2020 -0.1508 -0.5668
15972TIP3    H169331   6.330   2.084  11.434 -2.3280  0.5236  0.9947
15972TIP3    H269332   6.385   1.949  11.474  1.4977  0.7744 -2.7008
15973TIP3   OH269333   6.601   2.224   4.747  0.2232  0.1471 -0.9228
15973TIP3    H169334   6.548   2.159   4.793 -0.1731  0.4684 -0.9188
15973TIP3    H269335   6.673   2.173   4.709  1.9069  0.1915  1.9931
15974TIP3   OH269336   6.644   1.783  12.682 -0.0956  0.2739 -0.0532
15974TIP3    H169337   6.624   1.708  12.626 -1.1030  0.0998  0.5187
15974TIP3    H269338   6.660   1.746  12.768  0.1172  0.6571  0.0732
15975TIP3   OH269339   2.254   5.977  13.035  0.3749 -0.5387  0.4809
15975TIP3    H169340   2.184   5.955  13.097  0.6855 -1.0301  0.6621
15975TIP3    H269341   2.211   5.977  12.950  0.1221 -0.7039  0.6065
15976TIP3   OH269342   3.527   1.741   5.850 -0.9551 -0.3649  0.5222
15976TIP3    H169343   3.511   1.685   5.926 -1.9674  0.0584  0.6311
15976TIP3    H269344   3.545   1.828   5.888  0.2138 -0.4983  0.3368
15977TIP3   OH269345   2.098   5.796   0.730 -0.5027 -0.8580 -0.0865
15977TIP3    H169346   2.075   5.756   0.814 -1.5722  0.0138  0.0569
15977TIP3    H269347   2.156   5.868   0.753 -1.1819 -0.3170 -0.0351
15978TIP3   OH269348   4.895   2.382   1.208 -0.5901 -0.3466 -0.0798
15978TIP3    H169349   4.849   2.426   1.136  1.0188 -1.4681 -1.8790
15978TIP3    H269350   4.960   2.446   1.238 -0.0235 -0.5454 -0.8854
15979TIP3   OH269351   4.801   2.612   0.162 -0.2575 -0.0074  0.4080
15979TIP3    H169352   4.806   2.523   0.127  1.2363  0.4482 -0.6266
15979TIP3    H269353   4.838   2.667   0.093 -2.4980  1.6252  0.4200
15980TIP3   OH269354   1.965   6.665  10.283 -0.4129 -0.9249 -0.7465
15980TIP3    H169355   2.026   6.594  10.259  0.0116 -0.6210 -0.5758
15980TIP3    H269356   2.010   6.713  10.352 -0.7578 -0.5654 -0.7694
15981TIP3   OH269357   0.585   5.838   2.272 -0.1293 -0.1401  0.4586
15981TIP3    H169358   0.642   5.840   2.195  1.3459 -3.4294  1.2577
15981TIP3    H269359   0.532   5.759   2.260  0.6654 -1.1685  3.0614
15982TIP3   OH269360   2.312   4.221  10.741 -0.5815  0.0434  0.1350
15982TIP3    H169361   2.391   4.170  10.726  0.1352  1.0129  0.4892
15982TIP3    H269362   2.242   4.156  10.747  0.2285 -0.8528  0.1301
15983TIP3   OH269363   0.284   5.261   0.797  0.4680  0.1031 -0.1558
15983TIP3    H169364   0.208   5.203   0.803  0.4015  0.3027  1.0246
15983TIP3    H269365   0.331   5.248   0.879  0.8543  1.1631 -0.2018
15984TIP3   OH269366   3.625   1.887  15.426 -0.2989 -0.3821  0.0399
15984TIP3    H169367   3.679   1.866  15.350 -0.2076  0.7671 -0.2396
15984TIP3    H269368   3.652   1.825  15.493  2.1049  0.7593  0.2297
15985TIP3   OH269369   1.617   2.921   4.681 -0.4223 -0.1104  0.5008
15985TIP3    H169370   1.599   2.920   4.775 -0.3446  0.0218  0.5179
15985TIP3    H269371   1.712   2.931   4.675 -0.3813 -0.5418  0.4117
15986TIP3   OH269372   4.910   4.744  12.220  0.4853  0.5868  0.4400
15986TIP3    H169373   4.823   4.724  12.255  0.1762  0.8057 -0.1984
15986TIP3    H269374   4.970   4.696  12.277 -0.0093  0.9642  1.3000
15987TIP3   OH269375   5.277   5.903   1.239  0.4802  0.0399 -0.3741
15987TIP3    H169376   5.314   5.990   1.224 -1.7213  1.1890  0.4334
15987TIP3    H269377   5.188   5.919   1.272  0.3392 -2.4968  0.7870
15988TIP3   OH269378   4.298   1.242  13.748  0.5410 -0.8224 -0.0575
15988TIP3    H169379   4.338   1.293  13.819 -0.8951 -2.8981  2.4212
15988TIP3    H269380   4.236   1.302  13.707  1.9001  0.6444 -0.0503
15989TIP3   OH269381   4.073   2.869  13.616 -0.2629  0.3092 -0.5474
15989TIP3    H169382   4.118   2.836  13.538 -2.0003 -0.6588 -1.2192
15989TIP3    H269383   4.142   2.903  13.672  1.1183  0.2731 -2.1566
15990TIP3   OH269384   6.441   4.290   5.769 -0.1359  0.0696 -0.0236
15990TIP3    H169385   6.517   4.325   5.722 -1.3661  4.0350  0.6272
15990TIP3    H269386   6.408   4.221   5.711  0.5019  2.2805 -3.3039
15991TIP3   OH269387   4.792   5.154  12.112  0.1894 -0.3096  0.2392
15991TIP3    H169388   4.752   5.074  12.148  0.2169 -0.1612  0.6084
15991TIP3    H269389   4.848   5.123  12.041 -1.4405 -0.4168 -1.0550
15992TIP3   OH269390   4.112   4.982  15.561  0.3087 -0.1328  0.1089
15992TIP3    H169391   4.113   4.983  15.465 -0.7070  0.0905  0.0943
15992TIP3    H269392   4.141   5.070  15.586 -1.0455  0.3716 -0.0265
15993TIP3   OH269393   6.721   5.867  14.030  0.0421 -0.6625  0.4347
15993TIP3    H169394   6.757   5.809  14.097 -2.0540 -0.7120  1.5918
15993TIP3    H269395   6.701   5.948  14.076 -1.8756 -0.8640  0.0206
15994TIP3   OH269396   3.651   1.483   5.745 -0.1407 -0.3136  0.1045
15994TIP3    H169397   3.556   1.489   5.736 -0.0422 -1.1828 -2.0626
15994TIP3    H269398   3.671   1.392   5.728  1.1417 -0.0417  0.0582
15995TIP3   OH269399   3.998   6.648   0.347  0.2678 -0.2784 -0.3194
15995TIP3    H169400   4.078   6.671   0.300 -0.1798 -0.2429 -1.0838
15995TIP3    H269401   3.979   6.558   0.322 -0.4903  0.0484 -0.9755
15996TIP3   OH269402   5.423   5.698  11.236 -0.0753 -0.5719 -0.4035
15996TIP3    H169403   5.348   5.716  11.179 -0.4123  0.9273  0.4442
15996TIP3    H269404   5.492   5.756  11.204 -0.2236  0.1869  0.5855
15997TIP3   OH269405   3.483   4.056   4.568 -0.1239 -0.4992  0.2053
15997TIP3    H169406   3.451   4.006   4.492  0.7182 -0.9666  0.1463
15997TIP3    H269407   3.506   4.142   4.533  2.6395 -1.4716 -0.6379
15998TIP3   OH269408   2.871   2.039   2.952  0.1541 -0.0603  0.3473
15998TIP3    H169409   2.944   2.098   2.969  1.8892 -2.1938  0.8237
15998TIP3    H269410   2.838   2.065   2.866  0.5189  1.8533  0.7445
15999TIP3   OH269411   6.678   2.203   2.777 -0.2875  0.3581 -0.0137
15999TIP3    H169412   6.633   2.240   2.854  1.0173  0.8973  0.5205
15999TIP3    H269413   6.688   2.278   2.718  1.1568  0.5927  0.4903
16000TIP3   OH269414   6.507   3.533   0.143 -0.1965 -0.4002 -0.2216
16000TIP3    H169415   6.520   3.570   0.230 -0.0715 -1.4269  0.2149
16000TIP3    H269416   6.431   3.578   0.108  0.0380  0.3527  0.2278
16001TIP3   OH269417   2.454   4.100  14.890 -0.1900  0.2240  0.4640
16001TIP3    H169418   2.500   4.028  14.933 -2.2298  0.2296  2.9089
16001TIP3    H269419   2.463   4.173  14.952  2.2752  2.3756 -2.1533
16002TIP3   OH269420   1.812   6.010   4.604  0.0487  0.1828  0.1227
16002TIP3    H169421   1.881   5.999   4.670  1.5740 -0.4550 -1.4976
16002TIP3    H269422   1.830   6.095   4.564 -0.6776  0.4279  0.3062
16003TIP3   OH269423   0.339   4.808  15.702 -0.2151 -0.3620  0.2063
16003TIP3    H169424   0.423   4.834  15.741 -0.0066  1.0339 -1.0915
16003TIP3    H269425   0.291   4.889  15.693 -0.8714 -0.8662 -0.9978
16004TIP3   OH269426   4.956   1.466   6.515 -0.1857 -0.0477 -0.2405
16004TIP3    H169427   4.956   1.409   6.437 -0.7199  0.3879 -0.5679
16004TIP3    H269428   4.876   1.518   6.506 -1.5020 -1.5839  1.7831
16005TIP3   OH269429   0.535   0.209   5.696  0.1606 -0.0085 -0.0396
16005TIP3    H169430   0.514   0.299   5.721  0.9273  0.5961 -1.4530
16005TIP3    H269431   0.579   0.173   5.773 -1.3883  0.3428  1.0582
16006TIP3   OH269432   5.654   0.223   4.055 -0.2943  0.0900  0.3107
16006TIP3    H169433   5.634   0.159   4.122  1.1787  0.7525  1.4314
16006TIP3    H269434   5.690   0.172   3.982 -0.9959 -0.5304  0.3870
16007TIP3   OH269435   2.571   0.753  13.993  0.3771 -0.3438 -0.4297
16007TIP3    H169436   2.658   0.769  13.956 -0.8265 -1.1975 -4.0472
16007TIP3    H269437   2.526   0.837  13.987  0.9057  0.1031  1.4599
16008TIP3   OH269438   0.212   2.726   5.247  0.5386  0.1447 -0.1610
16008TIP3    H169439   0.139   2.768   5.202  0.4399  0.8557  0.6239
16008TIP3    H269440   0.175   2.693   5.329  0.8148 -0.6931 -0.3679
16009TIP3   OH269441   0.024   0.669   0.781 -0.3055 -0.1241  0.5491
16009TIP3    H169442   0.014   0.578   0.754  0.5234  0.0399 -0.3671
16009TIP3    H269443   0.116   0.690   0.762 -0.5917  1.0332  0.3444
16010TIP3   OH269444   2.523   6.091  12.993 -0.0124  0.3418 -0.4186
16010TIP3    H169445   2.464   6.019  13.014  0.5440  0.4574  1.8904
16010TIP3    H269446   2.604   6.048  12.964  0.1352  0.0143  0.4331
16011TIP3   OH269447   6.548   2.965  16.423  0.2814 -0.2758  0.3998
16011TIP3    H169448   6.488   2.902  16.384  0.4555 -0.9382  1.1609
16011TIP3    H269449   6.492   3.025  16.472  0.0941  0.3320 -0.5400
16012TIP3   OH269450   0.283   4.691   0.296 -0.3059  0.3531  0.4000
16012TIP3    H169451   0.232   4.747   0.237 -0.9757 -0.4997  0.1609
16012TIP3    H269452   0.224   4.675   0.370  0.0578  0.3285  0.6908
16013TIP3   OH269453   5.555   4.667  15.406 -0.3795 -0.5827  0.5065
16013TIP3    H169454   5.514   4.641  15.324  1.8518  1.5566 -1.4581
16013TIP3    H269455   5.498   4.735  15.442 -1.1210 -1.1897  0.4860
16014TIP3   OH269456   5.188   0.179  10.566  0.0139  0.1201  0.4577
16014TIP3    H169457   5.264   0.186  10.624 -0.8374  1.2575  1.4772
16014TIP3    H269458   5.194   0.256  10.510  0.9398 -1.0682 -1.1828
16015TIP3   OH269459   5.828   1.512   5.640  0.5165 -0.2486  0.4013
16015TIP3    H169460   5.883   1.544   5.711  0.3978  1.2010 -0.1314
16015TIP3    H269461   5.814   1.588   5.584 -2.3827 -0.4356  0.7171
16016TIP3   OH269462   1.709   6.802  11.341  0.0916 -0.5095 -0.0083
16016TIP3    H169463   1.715   6.890  11.379  1.8701 -0.2725 -0.7095
16016TIP3    H269464   1.701   6.744  11.416  0.2668  0.1698  0.5523
16017TIP3   OH269465   0.145   3.432   2.248  0.2446  0.4982  0.3658
16017TIP3    H169466   0.237   3.429   2.221  0.7154 -0.7996  1.9186
16017TIP3    H269467   0.111   3.345   2.230 -0.3099  0.5774  0.9784
16018TIP3   OH269468   5.177   2.121   0.281 -0.4060  0.0724  0.4083
16018TIP3    H169469   5.266   2.155   0.272 -0.3888 -0.1723 -0.4772
16018TIP3    H269470   5.122   2.186   0.237 -0.4441 -0.6951 -0.7274
16019TIP3   OH269471   3.058   6.237   1.133 -0.1858  0.0039  0.7297
16019TIP3    H169472   3.121   6.308   1.147 -0.4088  0.2342  0.5908
16019TIP3    H269473   3.074   6.209   1.043 -1.6980  1.5107 -0.0686
16020TIP3   OH269474   5.904   6.505   3.311 -0.4562 -0.5232 -0.6203
16020TIP3    H169475   5.983   6.480   3.359 -0.1782  1.3916 -0.0128
16020TIP3    H269476   5.936   6.547   3.231 -0.8533 -0.0996 -0.5653
16021TIP3   OH269477   6.021   1.556   5.832 -0.2914  0.1857  0.1240
16021TIP3    H169478   6.006   1.603   5.914 -2.0159 -1.1009  0.6269
16021TIP3    H269479   6.083   1.487   5.854  0.9964  1.1844 -0.2367
16022TIP3   OH269480   5.942   5.891   3.979 -0.1962  0.0324 -0.1276
16022TIP3    H169481   6.011   5.954   3.958 -0.6243  0.9172  1.0373
16022TIP3    H269482   5.935   5.836   3.900  2.1368 -0.3834 -0.1276
16023TIP3   OH269483   0.004   4.798   0.887  0.1799  0.1148 -0.4127
16023TIP3    H169484   0.036   4.832   0.971  1.7753 -2.0114 -0.0775
16023TIP3    H269485   0.054   4.846   0.821  1.3699 -0.5475 -0.0124
16024TIP3   OH269486   1.429   1.341  11.165 -0.9560 -0.3963 -0.4152
16024TIP3    H169487   1.522   1.319  11.169 -0.8938 -0.2704 -1.1166
16024TIP3    H269488   1.426   1.434  11.191 -0.9731 -0.5937  0.3201
16025TIP3   OH269489   3.511   2.000   4.667 -0.4039  0.0266 -0.1711
16025TIP3    H169490   3.509   1.951   4.749  0.4195 -0.9799 -0.7282
16025TIP3    H269491   3.464   1.945   4.605  0.8708 -0.2738 -0.8994
16026TIP3   OH269492   6.694   5.326   3.086  0.0602  0.1177 -1.0351
16026TIP3    H169493   6.646   5.296   3.164  1.3718  0.4072 -0.0918
16026TIP3    H269494   6.653   5.279   3.014 -0.2295 -1.2791 -0.0026
16027TIP3   OH269495   1.924   3.374  13.591 -0.0761 -0.0010  0.0751
16027TIP3    H169496   1.924   3.396  13.685  0.4129 -0.0865  0.0978
16027TIP3    H269497   1.868   3.296  13.585 -1.2559  0.8154  0.0931
16028TIP3   OH269498   1.557   3.532  13.066 -0.7567  0.3337  0.2010
16028TIP3    H169499   1.556   3.545  13.161 -0.6095 -3.2963  0.8357
16028TIP3    H269500   1.464   3.536  13.041 -1.0151 -0.7547  0.9068
16029TIP3   OH269501   5.301   4.999   3.698  0.0642  0.8262 -0.0279
16029TIP3    H169502   5.313   4.945   3.775 -1.4518  2.6103  1.5646
16029TIP3    H269503   5.222   4.964   3.656  1.1623 -0.4506 -1.0998
16030TIP3   OH269504   4.970   3.576  11.323 -0.2780  0.0488 -0.5025
16030TIP3    H169505   4.952   3.505  11.385  0.8427 -1.0243 -1.3507
16030TIP3    H269506   4.956   3.537  11.237 -0.1605  1.0216 -0.9769
16031TIP3   OH269507   2.852   0.426  10.589  0.0762 -0.3025  0.4767
16031TIP3    H169508   2.933   0.473  10.611  1.0832 -2.6306  2.3154
16031TIP3    H269509   2.877   0.369  10.516  0.0203 -0.7405  0.7928
16032TIP3   OH269510   0.445   4.140  16.438  0.6041 -0.1515 -0.2868
16032TIP3    H169511   0.398   4.203  16.384  0.4281  1.1409  1.3076
16032TIP3    H269512   0.434   4.056  16.393 -2.7847  0.1698 -0.2671
16033TIP3   OH269513   5.495   4.934   4.615 -0.1696  0.3124 -0.4590
16033TIP3    H169514   5.537   4.947   4.700  2.3028  0.3065 -1.5906
16033TIP3    H269515   5.411   4.894   4.636  0.0535  0.9578  2.0087
16034TIP3   OH269516   6.147   4.103  14.868  0.2426 -0.8453  0.2851
16034TIP3    H169517   6.105   4.181  14.903 -0.8406 -2.3842  2.7308
16034TIP3    H269518   6.078   4.036  14.869  0.7297 -1.5514 -3.0727
16035TIP3   OH269519   6.609   0.589   3.998 -0.1284 -0.1035 -0.0850
16035TIP3    H169520   6.593   0.572   4.091  1.8678 -0.1660  0.2945
16035TIP3    H269521   6.663   0.668   3.998 -0.5354  0.1845 -1.2321
16036TIP3   OH269522   0.471   1.554   4.464  0.3293 -0.0088  0.0413
16036TIP3    H169523   0.554   1.519   4.498 -0.4602 -0.9969  1.0520
16036TIP3    H269524   0.446   1.493   4.395  1.8177  1.8758 -2.2928
16037TIP3   OH269525   0.150   6.810   4.711  0.2170  0.4512 -0.2546
16037TIP3    H169526   0.181   6.899   4.730 -0.6436  0.8508 -0.6490
16037TIP3    H269527   0.086   6.792   4.780  1.9419 -0.7391  1.1191
16038TIP3   OH269528   6.450   2.710   1.192  0.2721  0.1710  0.2746
16038TIP3    H169529   6.484   2.681   1.107  0.5226 -1.4619  0.9016
16038TIP3    H269530   6.362   2.673   1.196 -0.1093  1.0533  0.3481
16039TIP3   OH269531   3.822   1.851  15.246  0.0913  0.8790  0.1461
16039TIP3    H169532   3.870   1.786  15.195  0.3538  0.4452  0.9268
16039TIP3    H269533   3.890   1.908  15.282 -0.1168  1.4106 -0.2844
16040TIP3   OH269534   6.329   2.510  11.369  0.1389 -0.4696 -0.4195
16040TIP3    H169535   6.241   2.530  11.403  0.1548 -1.0864 -0.0025
16040TIP3    H269536   6.325   2.535  11.277  0.2703  1.7738  0.1399
16041TIP3   OH269537   2.860   0.906  16.545  0.2687 -0.3874  0.5035
16041TIP3    H169538   2.918   0.849  16.495 -0.0501 -0.1826 -0.1158
16041TIP3    H269539   2.906   0.922  16.627  0.6340 -1.0313  0.4233
16042TIP3   OH269540   3.500   5.604  14.162 -0.1502 -0.4690 -0.1475
16042TIP3    H169541   3.465   5.679  14.113 -0.6609 -0.3453  0.3917
16042TIP3    H269542   3.435   5.535  14.148 -0.8060 -0.1437  1.1181
16043TIP3   OH269543   3.574   6.670   2.693 -0.0499  0.4407 -0.3872
16043TIP3    H169544   3.550   6.732   2.624  0.5516 -0.3688 -1.3512
16043TIP3    H269545   3.497   6.613   2.701  0.8849 -1.2169 -2.4163
16044TIP3   OH269546   1.532   5.777   2.277 -0.0320  0.0657 -0.2042
16044TIP3    H169547   1.601   5.842   2.291  2.0287 -2.0684  0.2562
16044TIP3    H269548   1.524   5.772   2.181  1.3872 -0.5031 -0.3274
16045TIP3   OH269549   4.479   3.323   4.936 -0.1633  0.9656  0.1296
16045TIP3    H169550   4.520   3.326   4.850  0.6749 -0.5097  0.4282
16045TIP3    H269551   4.506   3.404   4.979  0.6561  1.0282 -0.4775
16046TIP3   OH269552   2.667   6.411  13.389  0.2990  0.4483 -0.4515
16046TIP3    H169553   2.736   6.348  13.409 -0.0912  0.4817  1.1443
16046TIP3    H269554   2.674   6.426  13.295  2.8289  0.8708 -0.2643
16047TIP3   OH269555   5.467   5.541  16.868  0.2326 -0.2746 -0.0583
16047TIP3    H169556   5.444   5.448  16.868 -1.5060  0.0827 -1.9487
16047TIP3    H269557   5.547   5.547  16.815 -0.3743 -0.5758 -1.0280
16048TIP3   OH269558   6.353   0.833  16.526  0.7991  0.2541  0.0520
16048TIP3    H169559   6.321   0.743  16.522  1.7009 -0.0240 -2.3947
16048TIP3    H269560   6.335   0.869  16.439  0.1833  2.5832  1.0486
16049TIP3   OH269561   3.276   1.831   5.312  0.1400 -0.4731  0.1020
16049TIP3    H169562   3.247   1.879   5.235 -1.1060 -0.8267  0.3242
16049TIP3    H269563   3.327   1.894   5.363  1.1043 -0.2850 -1.0720
16050TIP3   OH269564   5.619   3.543   2.264 -0.0251  0.0197 -0.5173
16050TIP3    H169565   5.606   3.470   2.324  0.8067  1.3340  1.3381
16050TIP3    H269566   5.711   3.535   2.237  0.0925  0.4455 -0.2360
16051TIP3   OH269567   4.875   6.704  16.177  0.0834  0.3403  0.0371
16051TIP3    H169568   4.789   6.739  16.201  0.1591 -0.4873  1.6612
16051TIP3    H269569   4.913   6.769  16.119 -2.0329  0.2864 -1.5297
16052TIP3   OH269570   0.163   6.082   2.184  0.6186 -0.7034  0.2000
16052TIP3    H169571   0.076   6.095   2.221  0.4164  0.6816 -0.6574
16052TIP3    H269572   0.202   6.012   2.236 -1.5083 -2.3553 -0.2885
16053TIP3   OH269573   1.457   2.121  16.830  0.2270 -0.1205  0.0964
16053TIP3    H169574   1.380   2.145  16.778 -0.7826 -0.5289  1.3526
16053TIP3    H269575   1.453   2.026  16.835 -0.5902 -0.0268  2.1736
16054TIP3   OH269576   5.052   4.218  12.674  0.3641 -0.2452 -0.0737
16054TIP3    H169577   4.973   4.243  12.723  0.6396 -0.5125  0.5170
16054TIP3    H269578   5.124   4.254  12.724  0.6592 -0.6354 -0.2103
16055TIP3   OH269579   1.755   2.807  13.672 -0.4428 -0.2843  0.2100
16055TIP3    H169580   1.802   2.815  13.755 -1.6174  1.2414  0.7744
16055TIP3    H269581   1.718   2.719  13.673  1.0086 -0.9209  0.4768
16056TIP3   OH269582   2.655   6.678   0.331 -0.0300  0.4679 -0.2049
16056TIP3    H169583   2.650   6.622   0.409 -1.3495  0.7459 -0.0609
16056TIP3    H269584   2.712   6.751   0.357  1.1140 -0.4174 -0.1594
16057TIP3   OH269585   4.243   4.436   0.764  0.3309  0.1580 -0.3796
16057TIP3    H169586   4.223   4.478   0.680  0.0227 -0.9026 -0.8422
16057TIP3    H269587   4.267   4.347   0.742 -0.7601 -0.4381  0.7379
16058TIP3   OH269588   1.001   5.167  15.503 -0.5917 -0.5808 -0.5843
16058TIP3    H169589   0.961   5.247  15.468 -0.1483  0.5117  1.2712
16058TIP3    H269590   1.083   5.158  15.453  0.8930  1.9216  1.1372
16059TIP3   OH269591   3.105   0.721   5.257  0.1731 -0.8234 -0.4761
16059TIP3    H169592   3.159   0.651   5.220 -0.2127 -0.6930 -1.3055
16059TIP3    H269593   3.019   0.681   5.269  0.2804 -0.8468  0.2405
16060TIP3   OH269594   4.257   3.124   1.077  0.0351  0.4843  0.0288
16060TIP3    H169595   4.313   3.070   1.021  0.1201  1.3701 -0.7707
16060TIP3    H269596   4.174   3.078   1.079  0.1583  0.2313 -0.5030
16061TIP3   OH269597   0.877   6.640   4.153  0.1268 -0.5815 -0.4868
16061TIP3    H169598   0.900   6.688   4.233  1.2980  1.1170 -1.7459
16061TIP3    H269599   0.957   6.643   4.099 -1.4885  1.2272 -3.0407
16062TIP3   OH269600   2.215   5.638  12.263 -0.0403  0.4019 -0.0173
16062TIP3    H169601   2.290   5.653  12.321 -0.1794  0.1251  0.2341
16062TIP3    H269602   2.140   5.673  12.311  0.1957  2.6893 -1.1569
16063TIP3   OH269603   0.078   4.051   3.387 -0.2159 -0.7720  0.4689
16063TIP3    H169604   0.167   4.014   3.391  0.1671  0.1004  0.3705
16063TIP3    H269605   0.069   4.099   3.469  1.0765  2.7377 -1.2398
16064TIP3   OH269606   1.862   5.862  16.293 -0.0739 -0.0343 -0.3921
16064TIP3    H169607   1.926   5.927  16.263 -1.9247  2.3172  0.4750
16064TIP3    H269608   1.867   5.866  16.388 -0.5564 -0.8690 -0.3231
16065TIP3   OH269609   3.922   2.403  16.176 -0.3270 -0.0335  0.1030
16065TIP3    H169610   3.904   2.433  16.265 -1.6357  1.2803 -0.5676
16065TIP3    H269611   3.921   2.307  16.183 -1.7344  0.0360  1.2549
16066TIP3   OH269612   0.429   2.451  11.033  0.1442  0.3816 -0.3081
16066TIP3    H169613   0.382   2.403  10.966  1.2640 -0.8103 -0.2800
16066TIP3    H269614   0.368   2.520  11.061 -1.1669 -0.4823 -0.9512
16067TIP3   OH269615   2.861   6.165   0.270 -0.1485  0.5091  0.1686
16067TIP3    H169616   2.889   6.166   0.178  0.7231  2.8812  0.3706
16067TIP3    H269617   2.941   6.183   0.319 -0.5659 -0.9722  1.4541
16068TIP3   OH269618   2.118   2.403   2.302  0.0102  0.6242  0.4759
16068TIP3    H169619   2.094   2.495   2.314  0.3654  0.6497  1.0600
16068TIP3    H269620   2.039   2.362   2.266  0.1236  1.3200 -0.6036
16069TIP3   OH269621   4.057   1.032   0.268  0.0439 -0.7179 -0.5389
16069TIP3    H169622   3.980   0.983   0.239 -1.2727  0.7058  0.3731
16069TIP3    H269623   4.117   0.966   0.301 -1.7349 -1.7430  0.8027
16070TIP3   OH269624   1.316   3.870   1.190 -0.4643  0.6681  0.2551
16070TIP3    H169625   1.336   3.847   1.280  2.2530  4.9463  1.0470
16070TIP3    H269626   1.253   3.942   1.196  1.1543  2.3013 -1.0139
16071TIP3   OH269627   3.516   5.810   2.688  0.0957 -0.1783  0.1063
16071TIP3    H169628   3.584   5.745   2.669 -0.1925 -0.3266 -0.4327
16071TIP3    H269629   3.538   5.843   2.775  0.0533 -1.2435  0.5334
16072TIP3   OH269630   3.831   1.706  16.234 -0.1438 -0.2955  0.3493
16072TIP3    H169631   3.756   1.735  16.182  1.7709  1.5517 -1.6018
16072TIP3    H269632   3.850   1.618  16.202 -1.0769 -0.5329  0.4218
16073TIP3   OH269633   0.494   3.023   5.597  0.4959 -0.4732 -0.0059
16073TIP3    H169634   0.586   3.040   5.576  0.8876 -0.9347  1.2438
16073TIP3    H269635   0.472   2.945   5.546  0.4321  0.2837 -1.1920
16074TIP3   OH269636   3.962   0.490  13.898  0.0274 -0.6254 -0.1145
16074TIP3    H169637   3.929   0.488  13.988  1.1335  0.0116  0.3302
16074TIP3    H269638   4.053   0.520  13.907 -0.0485  0.0843 -1.5150
16075TIP3   OH269639   6.129   2.086   5.964 -0.0862  0.6014 -0.2059
16075TIP3    H169640   6.070   2.161   5.956 -0.4630  0.3293 -0.0151
16075TIP3    H269641   6.136   2.071   6.059  0.8670  1.0783 -0.1885
16076TIP3   OH269642   0.381   3.243   3.502  0.2124  0.0801 -0.0580
16076TIP3    H169643   0.374   3.329   3.462 -0.2440 -0.0325 -0.2302
16076TIP3    H269644   0.322   3.246   3.577  1.6906  0.5696  1.1459
16077TIP3   OH269645   5.226   4.963   4.139 -0.1659 -0.4159  0.3091
16077TIP3    H169646   5.162   4.908   4.094 -0.3502  0.7247 -0.8897
16077TIP3    H269647   5.239   4.921   4.224 -3.5030 -0.0182  1.1737
16078TIP3   OH269648   2.264   2.327   4.123  0.8689 -0.4274 -0.0187
16078TIP3    H169649   2.287   2.254   4.181  2.8333  0.3517  0.2662
16078TIP3    H269650   2.319   2.314   4.045 -0.3476 -0.4046 -0.9213
16079TIP3   OH269651   6.457   3.528  16.757  0.1713 -0.1911  0.2864
16079TIP3    H169652   6.533   3.534  16.814  0.9086 -0.8586 -0.6159
16079TIP3    H269653   6.400   3.464  16.800  1.0279 -1.2060 -0.0457
16080TIP3   OH269654   2.138   6.649   4.160  0.0509 -0.0065 -0.0593
16080TIP3    H169655   2.227   6.644   4.126 -0.3898 -1.2267 -1.1120
16080TIP3    H269656   2.084   6.612   4.090 -1.1161 -0.6892  1.1684
16081TIP3   OH269657   0.259   2.401  12.374 -0.3375 -0.6431  0.5338
16081TIP3    H169658   0.191   2.372  12.435 -2.0683  0.4079 -0.8340
16081TIP3    H269659   0.341   2.386  12.422 -1.5675 -0.7461  2.7411
16082TIP3   OH269660   3.385   2.667   2.660  0.7963 -0.8009 -0.1723
16082TIP3    H169661   3.363   2.587   2.709 -1.4023  0.2087  0.6053
16082TIP3    H269662   3.416   2.635   2.575 -1.1377 -2.4864 -0.3185
16083TIP3   OH269663   0.960   5.604   0.872 -0.4704  0.3406 -0.2220
16083TIP3    H169664   1.001   5.621   0.787 -2.1967 -0.8262 -1.3479
16083TIP3    H269665   0.894   5.673   0.881 -2.3400 -1.2379 -1.2831
16084TIP3   OH269666   0.935   1.457  14.893 -0.2622 -0.0264 -0.4815
16084TIP3    H169667   0.913   1.525  14.829  0.2206  0.1679 -0.4448
16084TIP3    H269668   1.019   1.484  14.928  0.0903 -0.8176 -0.7052
16085TIP3   OH269669   0.588   2.674   4.009 -0.4374  0.7083  0.0593
16085TIP3    H169670   0.547   2.757   3.984 -0.4687  0.4518 -0.7712
16085TIP3    H269671   0.623   2.639   3.927 -2.5199 -1.2685 -0.0867
16086TIP3   OH269672   0.845   1.587  13.942 -0.0083 -0.4850  0.2846
16086TIP3    H169673   0.890   1.504  13.958  0.4561 -0.9879 -2.9434
16086TIP3    H269674   0.753   1.567  13.958  0.1819 -1.4370  0.2775
16087TIP3   OH269675   2.049   4.854   4.345 -0.3043 -0.1109 -0.4128
16087TIP3    H169676   1.987   4.913   4.302  0.3409 -0.8597 -2.4689
16087TIP3    H269677   2.008   4.834   4.429 -1.9337  0.9300 -0.9147
16088TIP3   OH269678   6.472   2.839  14.572  0.5400 -0.3566  0.1339
16088TIP3    H169679   6.549   2.864  14.520  1.6168  1.1873  2.2800
16088TIP3    H269680   6.505   2.773  14.633  0.3549  0.6711  1.4026
16089TIP3   OH269681   4.897   0.437  10.796  0.1873  0.1506  0.7197
16089TIP3    H169682   4.844   0.381  10.739  0.0817 -0.1180  1.0768
16089TIP3    H269683   4.833   0.477  10.855  0.2379  0.8268  0.3142
16090TIP3   OH269684   5.859   1.268   5.082 -0.0891 -0.3178 -0.9155
16090TIP3    H169685   5.931   1.298   5.026  0.0797  1.9335  0.4004
16090TIP3    H269686   5.800   1.343   5.087 -1.9760 -1.7292 -1.0129
16091TIP3   OH269687   5.809   5.641  15.869  0.4071 -0.1914  0.6989
16091TIP3    H169688   5.884   5.638  15.809 -0.3651 -1.5827 -0.2567
16091TIP3    H269689   5.826   5.718  15.924  2.0433  0.0898 -0.1155
16092TIP3   OH269690   1.782   6.127  10.979 -0.1280 -0.1163 -0.0369
16092TIP3    H169691   1.838   6.148  10.905  0.1289  3.8965  1.0874
16092TIP3    H269692   1.700   6.098  10.940  0.4287  0.6265 -1.8383
16093TIP3   OH269693   6.547   2.642  16.536 -0.4180  0.0053 -0.0631
16093TIP3    H169694   6.589   2.577  16.593  0.7349  0.0432 -0.8212
16093TIP3    H269695   6.608   2.651  16.462 -1.1730  1.0249 -0.5834
16094TIP3   OH269696   2.135   0.228   2.737  0.4987  0.2550  0.2824
16094TIP3    H169697   2.212   0.281   2.721  0.1230  0.1788 -2.1989
16094TIP3    H269698   2.158   0.141   2.702 -1.3171  0.7653 -2.5487
16095TIP3   OH269699   1.732   5.590  14.896  0.4069 -0.4186  0.0651
16095TIP3    H169700   1.747   5.500  14.867  1.9369 -0.4057  0.6993
16095TIP3    H269701   1.652   5.585  14.948  0.3628 -1.3908 -0.0760
16096TIP3   OH269702   4.562   6.192  12.192  0.5818  0.1916  0.0868
16096TIP3    H169703   4.587   6.278  12.157 -1.5216  1.2258  0.9639
16096TIP3    H269704   4.506   6.212  12.267 -0.3186 -1.9489  0.0563
16097TIP3   OH269705   3.399   4.049  14.245  0.6872 -0.2988 -0.2954
16097TIP3    H169706   3.395   3.967  14.294  0.6829  0.5147  1.1484
16097TIP3    H269707   3.492   4.072  14.245  0.5497  0.3054  0.4175
16098TIP3   OH269708   4.483   2.472   4.547 -0.0472 -0.3117  0.8643
16098TIP3    H169709   4.574   2.500   4.561 -0.1112 -0.1826  1.0350
16098TIP3    H269710   4.445   2.473   4.635 -0.5061  0.6814  0.6718
16099TIP3   OH269711   5.286   0.855  16.789  0.2167 -0.5385  0.0413
16099TIP3    H169712   5.358   0.833  16.847  0.1842  1.3515  0.8771
16099TIP3    H269713   5.327   0.869  16.703  0.8613  0.4416  0.4917
16100TIP3   OH269714   1.290   3.362   2.090 -0.0354  0.4324 -0.0690
16100TIP3    H169715   1.278   3.360   2.185 -1.1949  0.7478 -0.1950
16100TIP3    H269716   1.330   3.278   2.070  1.8446  1.0389  0.8779
16101TIP3   OH269717   1.095   2.283   0.908  0.1002  1.1413  0.0076
16101TIP3    H169718   1.104   2.188   0.901  0.2944  1.2113 -0.8250
16101TIP3    H269719   1.032   2.296   0.979 -0.4165  0.3620 -0.2887
16102TIP3   OH269720   1.323   3.899  15.879 -0.3639  0.8201  0.0499
16102TIP3    H169721   1.263   3.974  15.871  1.7093  2.5055 -0.6906
16102TIP3    H269722   1.393   3.931  15.936  1.6497  0.2427 -1.9668
16103TIP3   OH269723   4.032   3.953  13.003 -0.1733 -0.0753  0.0156
16103TIP3    H169724   4.096   4.022  12.989 -0.1925 -0.4203 -2.1585
16103TIP3    H269725   4.083   3.872  13.001 -0.5857 -0.3234 -1.2569
16104TIP3   OH269726   5.631   5.048   3.564 -0.0958  0.9586 -0.2000
16104TIP3    H169727   5.584   4.969   3.537 -0.4483  0.5630  1.4708
16104TIP3    H269728   5.565   5.117   3.566 -0.6299  0.4493  1.9389
16105TIP3   OH269729   0.317   2.806  11.848 -0.1527  0.9240 -0.4950
16105TIP3    H169730   0.223   2.792  11.837 -0.2750  0.5603  0.8523
16105TIP3    H269731   0.347   2.731  11.899  1.0352  0.6241 -1.5882
16106TIP3   OH269732   3.998   1.485  13.185  0.1900  0.1772 -0.2938
16106TIP3    H169733   4.023   1.399  13.154 -0.9989 -0.7696  1.2283
16106TIP3    H269734   4.070   1.513  13.241 -0.3059 -0.7372  0.8215
16107TIP3   OH269735   1.263   2.043   2.660 -0.0452  0.1722  0.0849
16107TIP3    H169736   1.294   2.091   2.737  0.0284 -1.3049  1.0146
16107TIP3    H269737   1.184   2.091   2.633 -0.1204  0.6697  1.1271
16108TIP3   OH269738   5.920   0.962   6.312 -0.4881 -0.5423  0.0867
16108TIP3    H169739   5.824   0.967   6.310 -0.4913 -0.5057 -1.7308
16108TIP3    H269740   5.947   1.037   6.365 -1.4494 -0.0637 -0.0797
16109TIP3   OH269741   2.227   2.863  11.199 -0.4974 -0.1170  0.4764
16109TIP3    H169742   2.185   2.809  11.133 -0.7576  0.5916  0.0467
16109TIP3    H269743   2.206   2.820  11.282  2.2511 -2.6815  0.0298
16110TIP3   OH269744   1.068   0.406   5.110 -0.2183  0.2427  0.2750
16110TIP3    H169745   1.034   0.354   5.183  0.1324 -1.6475 -0.8355
16110TIP3    H269746   1.163   0.400   5.119 -0.1403  1.8140  0.8437
16111TIP3   OH269747   1.477   2.327  15.885  0.0499 -0.6678  0.0008
16111TIP3    H169748   1.553   2.382  15.903 -0.0210 -1.1408  2.0608
16111TIP3    H269749   1.434   2.318  15.970 -2.3467 -0.3893 -1.1086
16112TIP3   OH269750   6.469   2.540   2.521 -0.2427  0.6046  0.5316
16112TIP3    H169751   6.436   2.571   2.437  0.5256  3.0029  1.0487
16112TIP3    H269752   6.405   2.571   2.585  0.6707  1.4134  1.0880
16113TIP3   OH269753   5.831   5.010   5.306 -1.1270 -0.3409  0.1612
16113TIP3    H169754   5.779   5.032   5.384 -1.4677 -0.4481 -0.0313
16113TIP3    H269755   5.765   4.985   5.241 -0.9344  0.9445 -0.5580
16114TIP3   OH269756   2.309   2.034   4.567 -0.0858 -0.3832 -0.2339
16114TIP3    H169757   2.395   2.062   4.598 -0.8711 -0.6392  2.4451
16114TIP3    H269758   2.323   1.948   4.529  0.6374 -1.1829  1.7356
16115TIP3   OH269759   3.680   3.869   4.564  0.0251  0.3880 -0.1478
16115TIP3    H169760   3.690   3.803   4.496 -0.1876 -0.9813  1.1054
16115TIP3    H269761   3.601   3.918   4.538  0.6779  0.7562 -1.5437
16116TIP3   OH269762   3.803   4.272  12.267  0.0490  0.2440 -0.6236
16116TIP3    H169763   3.854   4.225  12.332  0.4372 -2.0098 -2.4254
16116TIP3    H269764   3.719   4.288  12.310 -0.6031 -3.3564 -0.2494
16117TIP3   OH269765   0.837   0.698   0.087 -0.3022  0.2075  0.3192
16117TIP3    H169766   0.816   0.719  -0.004  1.0432  0.7509  0.1004
16117TIP3    H269767   0.930   0.673   0.084 -0.4698 -0.6027  1.4122
16118TIP3   OH269768   1.916   4.269   1.272  0.0060  0.1392  1.0207
16118TIP3    H169769   1.933   4.207   1.344  0.7312  1.0176  1.6366
16118TIP3    H269770   1.821   4.265   1.260  0.1180 -1.8306  0.3406
16119TIP3   OH269771   1.335   5.563  11.946 -0.0733  0.8937  0.0373
16119TIP3    H169772   1.313   5.588  12.036  1.9658  0.9579  0.5552
16119TIP3    H269773   1.345   5.468  11.949  1.7948  1.0629  0.3489
16120TIP3   OH269774   1.477   4.823   2.694 -0.9780  0.0140 -0.0020
16120TIP3    H169775   1.447   4.769   2.621  0.5228 -0.7566 -0.0999
16120TIP3    H269776   1.444   4.911   2.674 -1.4205 -0.3842 -1.0961
16121TIP3   OH269777   2.805   2.749  16.427 -0.0235 -0.0311  0.5428
16121TIP3    H169778   2.743   2.734  16.498  1.3639 -0.6219  1.6539
16121TIP3    H269779   2.821   2.662  16.390 -1.0011  0.3089 -0.7657
16122TIP3   OH269780   2.290   0.752   4.092  0.0910 -0.0801 -0.2723
16122TIP3    H169781   2.337   0.755   4.175 -0.8491  1.5326  0.2302
16122TIP3    H269782   2.307   0.664   4.059  1.3561 -0.3977  1.0992
16123TIP3   OH269783   3.329   1.391  13.803  0.1048 -0.4540  0.0655
16123TIP3    H169784   3.357   1.310  13.844  1.0862  0.6423  1.6582
16123TIP3    H269785   3.324   1.454  13.875 -1.6708  0.6483 -0.9599
16124TIP3   OH269786   2.455   0.355  11.806 -0.3856 -0.0351 -0.1758
16124TIP3    H169787   2.528   0.293  11.811  0.1911  0.5820 -0.7550
16124TIP3    H269788   2.425   0.364  11.897 -1.3299 -2.1285 -0.2204
16125TIP3   OH269789   3.672   2.967   2.664  0.3985  0.5573 -0.2833
16125TIP3    H169790   3.600   2.927   2.615  0.6338  0.6113 -0.6840
16125TIP3    H269791   3.670   3.059   2.637 -0.5961  0.9930  1.1829
16126TIP3   OH269792   1.281   6.584  11.565 -0.3871  0.4307 -0.1206
16126TIP3    H169793   1.336   6.505  11.561  0.2926  0.9052 -0.3762
16126TIP3    H269794   1.191   6.551  11.559 -0.1252 -0.3490  0.1042
16127TIP3   OH269795   6.574   5.629   1.747  0.2672 -0.6503  0.7383
16127TIP3    H169796   6.513   5.558   1.769 -0.2589 -0.5385 -0.2712
16127TIP3    H269797   6.626   5.593   1.674  0.4109 -0.2175  0.6265
16128TIP3   OH269798   0.152   3.029   0.574  0.0760 -0.1210 -0.3423
16128TIP3    H169799   0.228   2.978   0.601 -0.0559  0.2007  0.6883
16128TIP3    H269800   0.079   2.991   0.624 -0.4352 -0.3783 -1.2615
16129TIP3   OH269801   0.149   6.789  15.349  0.5392 -0.6121  0.2284
16129TIP3    H169802   0.124   6.864  15.295  1.2982  0.2950  1.0979
16129TIP3    H269803   0.144   6.714  15.290 -0.7737  0.0276 -0.5224
16130TIP3   OH269804   3.875   4.557  12.311  0.1274 -0.1013  0.6528
16130TIP3    H169805   3.830   4.490  12.260  0.5685  1.1756 -1.5504
16130TIP3    H269806   3.909   4.511  12.387  0.3572 -2.3725 -0.7376
16131TIP3   OH269807   6.200   2.873   5.218  0.0727  0.0635 -0.1027
16131TIP3    H169808   6.291   2.903   5.224  0.0735 -0.0335  0.3970
16131TIP3    H269809   6.151   2.933   5.274  0.0492 -0.7381  0.7604
16132TIP3   OH269810   4.484   1.557  12.783 -0.5800  0.2176  0.1665
16132TIP3    H169811   4.400   1.542  12.827 -0.7852  0.5679 -0.1015
16132TIP3    H269812   4.540   1.487  12.815 -1.3516 -0.7874 -0.6190
16133TIP3   OH269813   5.376   1.692  12.327  0.5165  0.0805  0.3263
16133TIP3    H169814   5.349   1.647  12.247  1.4883  0.2328 -0.1055
16133TIP3    H269815   5.472   1.689  12.325  0.5676  0.7585  1.0973
16134TIP3   OH269816   5.013   4.708  15.064  0.0078  0.7237  0.2134
16134TIP3    H169817   4.980   4.619  15.060  0.9517  0.3849 -2.4269
16134TIP3    H269818   4.957   4.757  15.004  1.6044  1.0496 -1.1057
16135TIP3   OH269819   6.540   1.185   3.893  0.3931  0.7905  0.1607
16135TIP3    H169820   6.631   1.160   3.876  0.2940 -0.1175  0.8714
16135TIP3    H269821   6.535   1.276   3.865  1.1529  0.4506 -1.1804
16136TIP3   OH269822   3.978   0.250   4.984 -0.1056 -0.4205  0.0696
16136TIP3    H169823   3.887   0.269   4.961 -1.4523 -5.0026  0.6956
16136TIP3    H269824   3.976   0.231   5.078  1.6245 -0.1452  0.1987
16137TIP3   OH269825   5.569   4.534   4.977  0.2080  0.4538 -0.4653
16137TIP3    H169826   5.602   4.616   5.014  0.8171  0.2524 -0.5617
16137TIP3    H269827   5.647   4.485   4.952  0.0300 -1.6060  2.5440
16138TIP3   OH269828   3.323   6.714   1.652  0.1949  0.9942  0.3854
16138TIP3    H169829   3.321   6.634   1.704  0.6737 -0.2204 -1.4045
16138TIP3    H269830   3.231   6.735   1.636  0.0077 -1.4818 -2.4502
16139TIP3   OH269831   0.655   2.570   0.820  0.1184 -0.8047 -0.8869
16139TIP3    H169832   0.668   2.555   0.913  1.2983 -0.8650 -1.0458
16139TIP3    H269833   0.738   2.605   0.789  0.4181 -2.5807 -2.2772
16140TIP3   OH269834   2.099   3.523   2.780  0.3830  0.1413 -0.4364
16140TIP3    H169835   2.125   3.578   2.853  2.3052 -0.2375 -0.7991
16140TIP3    H269836   2.114   3.433   2.810 -3.0369 -0.3441  0.2830
16141TIP3   OH269837   0.877   3.810  16.092  0.6734 -0.2264 -0.1538
16141TIP3    H169838   0.934   3.733  16.097  3.3024  1.6786  2.0131
16141TIP3    H269839   0.817   3.800  16.166 -1.5968 -1.8863 -2.0390
16142TIP3   OH269840   5.332   5.725   3.138 -0.4409 -0.0543  0.0910
16142TIP3    H169841   5.282   5.728   3.219 -2.5016  0.8631 -1.1472
16142TIP3    H269842   5.268   5.701   3.071  1.3555 -1.5827 -1.1977
16143TIP3   OH269843   0.381   1.994  13.999 -0.3117 -0.1584  0.3474
16143TIP3    H169844   0.381   2.043  14.081  0.9206 -0.7894  0.7406
16143TIP3    H269845   0.292   2.007  13.964 -0.5690  0.8666  1.3097
16144TIP3   OH269846   4.876   4.608  15.374 -0.1349  0.3605  0.0523
16144TIP3    H169847   4.870   4.703  15.362  1.2420  0.6049  1.0619
16144TIP3    H269848   4.840   4.572  15.293 -1.7168  1.7025  0.0856
16145TIP3   OH269849   3.225   0.589  15.205  0.9238  0.1100 -0.1471
16145TIP3    H169850   3.236   0.582  15.110 -0.2104  1.8570 -0.4682
16145TIP3    H269851   3.130   0.586  15.218  1.1057 -1.9529  1.1652
16146TIP3   OH269852   5.839   4.825  12.902 -0.4068  0.0686 -0.2364
16146TIP3    H169853   5.920   4.789  12.940 -1.7220 -1.4135  1.2983
16146TIP3    H269854   5.788   4.854  12.977 -1.7145  0.1302 -1.1160
16147TIP3   OH269855   3.327   3.660   2.929  0.1580  0.3556 -0.2199
16147TIP3    H169856   3.415   3.627   2.948  0.5704  0.7229 -1.3851
16147TIP3    H269857   3.270   3.584   2.941  0.6676  0.0425  0.2834
16148TIP3   OH269858   3.561   1.929  11.700  0.3617  0.0945  0.1559
16148TIP3    H169859   3.551   1.955  11.608 -0.3828  0.2847  0.2804
16148TIP3    H269860   3.576   1.835  11.697  3.3780  0.4821 -0.3281
16149TIP3   OH269861   3.121   3.806   1.659  0.2718  0.4078 -0.2848
16149TIP3    H169862   3.054   3.861   1.618  0.6683  0.5742 -0.7260
16149TIP3    H269863   3.079   3.721   1.672 -0.5573  0.9837  0.9928
16150TIP3   OH269864   2.047   0.694   1.054  0.1674  0.4145  0.3522
16150TIP3    H169865   2.084   0.776   1.021 -1.3306  2.1179  2.5981
16150TIP3    H269866   2.038   0.708   1.148 -2.0677 -1.5349  0.5181
16151TIP3   OH269867   0.788   2.252   4.968 -0.2183  0.4130 -0.3713
16151TIP3    H169868   0.860   2.276   5.026  0.2975  1.0635 -1.2540
16151TIP3    H269869   0.812   2.290   4.884 -0.6636 -1.0334 -1.1691
16152TIP3   OH269870   2.957   6.603   4.056 -0.4041 -0.9407 -0.3543
16152TIP3    H169871   2.898   6.656   4.001  1.4382  2.7694  0.9326
16152TIP3    H269872   3.043   6.615   4.017  0.4331 -1.0225  1.3863
16153TIP3   OH269873   1.686   4.447   5.560 -0.2733  0.1275  0.1378
16153TIP3    H169874   1.725   4.496   5.489 -1.4476  1.0731  0.1095
16153TIP3    H269875   1.591   4.454   5.545 -0.5107 -0.5589  1.1858
16154TIP3   OH269876   3.741   0.814   5.311 -0.7315 -0.0925 -0.0472
16154TIP3    H169877   3.777   0.803   5.223 -1.1463 -1.2737 -0.0950
16154TIP3    H269878   3.810   0.857   5.360 -0.7416  1.1894 -1.1073
16155TIP3   OH269879   4.141   1.935   0.853  0.4347 -0.7866 -0.3809
16155TIP3    H169880   4.057   1.965   0.886  0.0143 -0.3441 -1.7812
16155TIP3    H269881   4.142   1.962   0.761  2.8920  0.8950  0.0362
16156TIP3   OH269882   1.215   2.693  14.000  0.4575 -0.0984 -0.2713
16156TIP3    H169883   1.204   2.695  14.095 -0.3042 -0.1655 -0.3540
16156TIP3    H269884   1.126   2.701  13.966  0.6903 -0.4799 -0.9728
16157TIP3   OH269885   5.255   5.389   2.665  0.2311 -0.6079  0.4395
16157TIP3    H169886   5.236   5.304   2.626  0.7850 -0.0733 -1.0441
16157TIP3    H269887   5.345   5.408   2.640 -0.8471  1.8335 -2.0645
16158TIP3   OH269888   4.137   6.552   2.589 -0.0441 -0.2589 -0.0842
16158TIP3    H169889   4.225   6.583   2.610  0.0094 -0.5273  0.0928
16158TIP3    H269890   4.098   6.623   2.538  0.3417 -0.2197 -0.3273
16159TIP3   OH269891   4.634   4.442   2.866  0.0809 -0.2372  0.3128
16159TIP3    H169892   4.700   4.460   2.798 -1.2651  0.4472 -0.8735
16159TIP3    H269893   4.681   4.452   2.948  1.4111  0.4567 -0.4914
16160TIP3   OH269894   2.521   5.443   5.799  0.5181 -0.2289 -0.5502
16160TIP3    H169895   2.584   5.448   5.871 -0.1411  1.7284 -0.0516
16160TIP3    H269896   2.461   5.373   5.825  0.9801 -0.3599  0.2014
16161TIP3   OH269897   2.320   3.519  14.186 -0.5147  0.3094 -0.0291
16161TIP3    H169898   2.298   3.456  14.117  2.6735 -0.5760 -0.4201
16161TIP3    H269899   2.400   3.561  14.155 -0.3775  1.7223  2.0246
16162TIP3   OH269900   1.891   5.084   2.373 -0.0334  0.3380  0.4434
16162TIP3    H169901   1.916   5.164   2.326 -1.6236  0.9488  0.5800
16162TIP3    H269902   1.907   5.014   2.310  4.3228  0.2922  1.3145
16163TIP3   OH269903   1.920   2.808   4.389  0.4336 -0.2882 -0.5515
16163TIP3    H169904   2.008   2.820   4.353  0.5455  0.7900  0.0330
16163TIP3    H269905   1.920   2.859   4.470 -0.7258 -0.2903 -0.5342
16164TIP3   OH269906   1.299   3.575   3.915  0.3312  0.0362  0.0253
16164TIP3    H169907   1.319   3.601   3.825  1.0805 -0.2133  0.1110
16164TIP3    H269908   1.260   3.488   3.907 -1.1464  0.6911 -0.1752
16165TIP3   OH269909   0.536   5.584   4.361 -0.0013 -0.0870 -0.0582
16165TIP3    H169910   0.487   5.502   4.363 -1.3141  0.6770  1.2473
16165TIP3    H269911   0.622   5.562   4.396 -0.8606 -0.6182  1.8121
16166TIP3   OH269912   4.471   1.063  15.413 -0.4392 -0.3793  0.5306
16166TIP3    H169913   4.548   1.045  15.467  0.0955 -1.9258 -0.6707
16166TIP3    H269914   4.466   0.989  15.353 -1.4660  0.8910 -1.0343
16167TIP3   OH269915   5.779   6.430   1.952 -0.3884 -0.6933 -0.0545
16167TIP3    H169916   5.811   6.499   1.895  0.2922 -0.2450  0.8454
16167TIP3    H269917   5.712   6.472   2.006 -0.5938 -0.9657 -0.0887
16168TIP3   OH269918   6.336   5.922   4.071  0.4664 -0.0002 -0.0930
16168TIP3    H169919   6.318   5.959   3.985  1.2156 -0.0308 -0.2704
16168TIP3    H269920   6.299   5.985   4.132  0.1109  0.1243 -0.4303
16169TIP3   OH269921   2.002   5.492   0.319  0.3132  1.1286  0.3441
16169TIP3    H169922   1.978   5.414   0.269 -0.2935  0.1344  2.1122
16169TIP3    H269923   2.041   5.551   0.254  0.1300 -0.3425 -1.1651
16170TIP3   OH269924   6.526   0.147  12.156 -0.2271  0.5465 -0.5883
16170TIP3    H169925   6.471   0.151  12.078 -2.4414  1.5380  0.9343
16170TIP3    H269926   6.556   0.237  12.169 -0.8403  0.6246  0.3409
16171TIP3   OH269927   3.282   4.038  15.937  0.1151  0.1341  0.3878
16171TIP3    H169928   3.281   3.954  15.892 -0.9223  1.2579 -1.9186
16171TIP3    H269929   3.196   4.076  15.918 -0.3817  0.7468  3.4256
16172TIP3   OH269930   6.603   6.707  12.230  0.3815 -0.3791 -0.3810
16172TIP3    H169931   6.576   6.797  12.212  1.0109 -0.4362 -1.7483
16172TIP3    H269932   6.578   6.659  12.151 -0.5018 -1.5532  0.5751
16173TIP3   OH269933   4.148   0.090  14.226 -0.2225 -0.9797  0.6815
16173TIP3    H169934   4.208   0.055  14.292 -0.7685  0.4081  1.9700
16173TIP3    H269935   4.089   0.147  14.275 -0.0411  0.8763 -1.1290
16174TIP3   OH269936   5.377   1.166   4.040  0.2589 -0.5221  0.5639
16174TIP3    H169937   5.291   1.192   4.009 -0.1167 -0.2108  1.8122
16174TIP3    H269938   5.420   1.128   3.963 -1.7018 -2.5138  0.3598
16175TIP3   OH269939   3.803   1.306  16.927  0.1718 -0.1391 -0.5157
16175TIP3    H169940   3.764   1.388  16.896  1.3080 -0.0655 -1.8347
16175TIP3    H269941   3.791   1.246  16.854  1.1443 -0.5601 -0.3339
16176TIP3   OH269942   5.871   2.860  11.628  0.6590  0.3926  0.2101
16176TIP3    H169943   5.870   2.955  11.639 -0.5665  0.3783  0.3627
16176TIP3    H269944   5.956   2.833  11.663  0.6873  1.3522  0.9241
16177TIP3   OH269945   5.433   3.708   0.180 -1.0631  0.3187  0.3778
16177TIP3    H169946   5.390   3.622   0.188 -3.1857  1.3009  0.2505
16177TIP3    H269947   5.442   3.721   0.086  2.5194 -1.2018  0.3718
16178TIP3   OH269948   5.092   1.323  16.422 -0.4787  0.0509 -0.0261
16178TIP3    H169949   5.068   1.361  16.338  1.1764 -0.1305 -0.6258
16178TIP3    H269950   5.011   1.288  16.457 -1.2344  0.3070 -1.4578
16179TIP3   OH269951   3.847   4.066   0.549  0.4885  0.1244 -0.4882
16179TIP3    H169952   3.836   4.107   0.634 -1.5689  0.4713 -0.8716
16179TIP3    H269953   3.883   4.134   0.493 -0.6824  0.7092 -0.5415
16180TIP3   OH269954   3.625   6.111  15.934  0.9419  0.1670  0.7088
16180TIP3    H169955   3.606   6.104  16.028 -2.0445  0.5628  0.2594
16180TIP3    H269956   3.719   6.128  15.929  0.9616  1.5710  3.7071
16181TIP3   OH269957   6.599   2.074   3.933  0.3410 -0.2050 -0.1350
16181TIP3    H169958   6.568   2.158   3.967 -1.1381  0.2510 -2.3473
16181TIP3    H269959   6.573   2.010   3.999  0.8098  0.9835  1.2327
16182TIP3   OH269960   4.336   0.144   2.256 -0.1044  0.1271 -0.0878
16182TIP3    H169961   4.347   0.112   2.345 -0.9433 -0.5481 -0.2142
16182TIP3    H269962   4.398   0.093   2.204 -0.3787 -0.2431 -0.0552
16183TIP3   OH269963   4.455   1.806  15.483  0.1183 -0.2803  0.4946
16183TIP3    H169964   4.425   1.721  15.516 -1.4389 -0.5151 -1.3618
16183TIP3    H269965   4.535   1.786  15.434  0.0831 -0.5800  0.5602
16184TIP3   OH269966   3.076   2.306   4.650 -0.0880 -0.3076  0.2608
16184TIP3    H169967   3.076   2.283   4.557  0.7321  0.1194  0.1406
16184TIP3    H269968   3.092   2.223   4.695  1.6037 -0.2211 -0.1039
16185TIP3   OH269969   2.227   5.196  14.148 -0.0435  0.5261  0.3781
16185TIP3    H169970   2.208   5.103  14.138  3.9110 -0.2711 -2.1319
16185TIP3    H269971   2.204   5.235  14.063 -0.8845  1.6934  1.1120
16186TIP3   OH269972   3.272   3.892  11.779  0.1023  0.9381 -0.4857
16186TIP3    H169973   3.299   3.922  11.866  0.0889 -1.5012  0.4163
16186TIP3    H269974   3.210   3.959  11.749 -1.3191  0.9343  2.1810
16187TIP3   OH269975   2.369   4.666  15.295  0.1259  0.1904  0.4414
16187TIP3    H169976   2.400   4.704  15.213 -0.8128  1.7497  0.7666
16187TIP3    H269977   2.323   4.738  15.338  1.9325 -0.1279  3.0815
16188TIP3   OH269978   0.786   0.289  10.311 -0.2502  0.3484  0.2313
16188TIP3    H169979   0.767   0.321  10.399 -1.4964 -1.0949  0.5431
16188TIP3    H269980   0.707   0.308  10.261 -0.1964 -0.3270 -0.1250
16189TIP3   OH269981   1.459   6.548   3.138 -0.0088  0.0296  0.2906
16189TIP3    H169982   1.419   6.463   3.157  0.2695  0.1435  1.4593
16189TIP3    H269983   1.524   6.528   3.069 -0.9560 -0.4208 -0.5019
16190TIP3   OH269984   2.304   2.827  16.166  0.3904  0.3152 -0.2167
16190TIP3    H169985   2.344   2.835  16.080 -0.9175  1.6742 -0.7417
16190TIP3    H269986   2.259   2.910  16.179 -0.0679 -0.1585  1.4652
16191TIP3   OH269987   1.441   5.280   0.928 -0.0267 -0.0012  0.1794
16191TIP3    H169988   1.415   5.245   1.013 -0.0573 -2.1485 -0.6463
16191TIP3    H269989   1.377   5.347   0.908 -0.8111 -0.4091  1.2544
16192TIP3   OH269990   3.450   2.550   3.437 -0.2081 -0.2239 -0.3038
16192TIP3    H169991   3.509   2.617   3.402  1.0764 -0.7414  0.8228
16192TIP3    H269992   3.501   2.469   3.433 -0.5897 -0.5627  1.2965
16193TIP3   OH269993   6.818   4.098  10.763 -0.1703 -0.8695  0.1407
16193TIP3    H169994   6.823   4.108  10.668  0.0685  0.3266  0.2663
16193TIP3    H269995   6.758   4.167  10.792  0.9419 -0.2243  1.0044
16194TIP3   OH269996   1.997   6.029   3.188  0.6268 -0.7132 -0.2291
16194TIP3    H169997   1.937   6.103   3.178  0.6652 -0.5752  0.5129
16194TIP3    H269998   1.996   5.986   3.103  1.1518  0.5464 -0.9065
16195TIP3   OH269999   5.703   2.998  15.779  0.3505  0.3541 -0.1262
16195TIP3    H170000   5.719   2.976  15.687 -2.4403  1.9598 -1.1205
16195TIP3    H270001   5.693   3.093  15.780 -1.3749  0.2164  1.4900
16196TIP3   OH270002   0.890   0.196   5.367 -0.7035  0.3431  0.3172
16196TIP3    H170003   0.952   0.136   5.327 -0.0466  0.3971  1.2196
16196TIP3    H270004   0.881   0.165   5.457 -0.6126  1.3755  0.7049
16197TIP3   OH270005   6.754   2.893   3.157 -0.1244 -0.1909 -0.0871
16197TIP3    H170006   6.774   2.799   3.154  0.3633 -0.1109 -3.0065
16197TIP3    H270007   6.825   2.931   3.208 -0.2173 -1.3772  0.9673
16198TIP3   OH270008   6.395   6.644  16.495  0.1335 -0.5316 -0.4202
16198TIP3    H170009   6.446   6.589  16.436  0.2616  0.9196 -1.7142
16198TIP3    H270010   6.306   6.640  16.461  0.2907  0.6627 -0.9968
16199TIP3   OH270011   4.624   3.441   4.010 -0.4787  0.9152 -0.0883
16199TIP3    H170012   4.590   3.420   4.097  0.9444 -0.9668  0.1055
16199TIP3    H270013   4.554   3.416   3.950  0.2355 -2.6220  0.3064
16200TIP3   OH270014   2.090   5.270  14.756  0.0547 -0.0483  0.0180
16200TIP3    H170015   2.092   5.201  14.823  0.0278  0.2657  0.3426
16200TIP3    H270016   2.120   5.348  14.801 -2.9444  0.9297  0.5702
16201TIP3   OH270017   5.068   2.826  13.436 -0.0030 -0.7074  0.4634
16201TIP3    H170018   5.130   2.779  13.381 -0.5673 -1.1043  0.1449
16201TIP3    H270019   5.045   2.763  13.505  1.4995  0.1428  1.8007
16202TIP3   OH270020   0.752   0.392  15.734 -0.1099 -0.2799  0.3158
16202TIP3    H170021   0.684   0.443  15.691  0.7019  1.3719  0.9209
16202TIP3    H270022   0.816   0.374  15.666 -1.6173 -2.8701 -0.5606
16203TIP3   OH270023   1.490   2.764  15.737 -1.0447  0.2129 -0.0600
16203TIP3    H170024   1.411   2.803  15.699 -0.7328 -0.0534 -0.9955
16203TIP3    H270025   1.457   2.709  15.808 -1.6750  0.3588 -0.2272
16204TIP3   OH270026   6.155   3.758  11.522 -0.9564 -0.7042 -0.0147
16204TIP3    H170027   6.117   3.696  11.460  1.3911 -3.0541  0.6934
16204TIP3    H270028   6.137   3.720  11.608 -0.7375  0.4069  0.5465
16205TIP3   OH270029   5.229   1.671   1.026  0.1466  0.6024  0.1150
16205TIP3    H170030   5.323   1.669   1.040  0.0601 -1.3395  0.8322
16205TIP3    H270031   5.217   1.644   0.935  0.2584 -0.1038  0.3069
16206TIP3   OH270032   4.519   3.417   1.685  0.4644 -0.7476 -0.0220
16206TIP3    H170033   4.501   3.354   1.615  0.9353  0.6490 -1.4540
16206TIP3    H270034   4.590   3.471   1.651 -0.3375  0.9563  0.9058
16207TIP3   OH270035   6.336   6.187   0.116  0.1440 -0.3818  0.0719
16207TIP3    H170036   6.416   6.225   0.153  2.2338 -3.3831 -0.9865
16207TIP3    H270037   6.326   6.104   0.161 -0.5641 -1.4897 -2.0047
16208TIP3   OH270038   0.399   2.459   4.184  0.0451  0.5936  1.3888
16208TIP3    H170039   0.454   2.529   4.148 -0.4462  0.9704  1.3547
16208TIP3    H270040   0.324   2.505   4.223 -0.5491  0.0566  0.9020
16209TIP3   OH270041   1.876   6.664  12.930 -0.0351 -0.1653  0.0311
16209TIP3    H170042   1.906   6.753  12.949 -0.9642  0.3112 -0.5889
16209TIP3    H270043   1.843   6.631  13.014 -0.1244  0.2641  0.1684
16210TIP3   OH270044   5.835   5.680   2.935 -0.5929 -0.2520 -0.0991
16210TIP3    H170045   5.753   5.729   2.935 -0.0632  0.6624  0.0240
16210TIP3    H270046   5.879   5.707   3.016 -0.1092 -0.6181 -0.2319
16211TIP3   OH270047   0.503   6.116   3.297 -0.1782  0.3866 -0.4260
16211TIP3    H170048   0.515   6.191   3.356 -0.0829 -0.1156  0.1968
16211TIP3    H270049   0.544   6.144   3.215  2.7335 -0.1583  0.7280
16212TIP3   OH270050   6.276   6.722   1.361  0.6798 -0.2337  0.5215
16212TIP3    H170051   6.351   6.662   1.368 -0.9358 -2.6274 -1.1724
16212TIP3    H270052   6.207   6.680   1.412  0.0570  1.2789  0.9848
16213TIP3   OH270053   5.448   4.239   1.884  0.7142 -0.5097  0.0741
16213TIP3    H170054   5.403   4.275   1.807  1.1344 -0.4003 -0.1229
16213TIP3    H270055   5.540   4.236   1.858  0.7908 -0.9495  0.3915
16214TIP3   OH270056   2.576   2.958  15.832  0.0427  0.2392  0.1717
16214TIP3    H170057   2.638   2.976  15.903 -0.4593  0.9626  0.4333
16214TIP3    H270058   2.494   2.999  15.860 -0.4469 -0.3624 -0.3568
16215TIP3   OH270059   4.275   2.923  14.893  0.3434  0.1726 -0.3299
16215TIP3    H170060   4.258   2.866  14.819 -0.9085  0.5428 -0.3437
16215TIP3    H270061   4.370   2.917  14.907  0.5108 -0.3148 -1.6013
16216TIP3   OH270062   1.162   1.733   4.084  0.1626  0.4371  0.2265
16216TIP3    H170063   1.240   1.787   4.077  0.3658 -0.0277 -1.7328
16216TIP3    H270064   1.175   1.682   4.164  0.4287  2.4964  1.5753
16217TIP3   OH270065   4.267   4.304  11.558 -0.0782 -0.0789  0.4911
16217TIP3    H170066   4.226   4.389  11.544  2.0791  0.6766 -1.9953
16217TIP3    H270067   4.231   4.248  11.490  0.3322 -0.4512  0.5740
16218TIP3   OH270068   6.341   1.902   0.938 -0.4264 -0.6407 -0.2056
16218TIP3    H170069   6.409   1.845   0.974  0.2584  0.5529  0.4511
16218TIP3    H270070   6.386   1.985   0.921 -0.8087 -0.9721 -3.4418
16219TIP3   OH270071   2.099   6.413   4.305 -0.4141  0.6337  0.4234
16219TIP3    H170072   2.187   6.447   4.289 -0.9689  1.3448 -1.3501
16219TIP3    H270073   2.067   6.387   4.219 -2.0477  0.6151  0.9960
16220TIP3   OH270074   6.413   0.056  15.129  0.3585 -0.1859 -0.0846
16220TIP3    H170075   6.461  -0.026  15.138  2.0046  0.6543 -0.8096
16220TIP3    H270076   6.461   0.118  15.184  1.9337  1.3965 -3.0107
16221TIP3   OH270077   0.517   4.833  15.939  0.3335 -0.1376 -0.1231
16221TIP3    H170078   0.482   4.850  16.027  1.3243  0.9513  0.0926
16221TIP3    H270079   0.534   4.739  15.939  0.2721 -0.1665  0.8430
16222TIP3   OH270080   4.594   2.368   4.314  0.6069 -0.4892 -0.1864
16222TIP3    H170081   4.568   2.358   4.406 -0.4976  1.2576 -0.2765
16222TIP3    H270082   4.513   2.392   4.269  1.7577  2.1970 -0.9818
16223TIP3   OH270083   6.750   1.701   3.538  0.1649 -0.1938  0.5473
16223TIP3    H170084   6.775   1.770   3.477 -3.4818  2.5551  1.7961
16223TIP3    H270085   6.665   1.670   3.507  1.2192 -3.6286  0.5973
16224TIP3   OH270086   6.637   5.364   0.192  0.2052 -0.7882  0.2153
16224TIP3    H170087   6.604   5.296   0.132  1.7489 -1.0226 -0.4162
16224TIP3    H270088   6.669   5.433   0.134  0.8323 -0.5887  0.7990
16225TIP3   OH270089   3.654   2.310  14.525 -0.3902  0.3205 -0.0295
16225TIP3    H170090   3.607   2.238  14.566 -0.2412 -0.2554 -0.8567
16225TIP3    H270091   3.585   2.370  14.496 -0.5100  0.5634  0.7464
16226TIP3   OH270092   6.289   1.514   1.285  0.4007  0.4010  0.1981
16226TIP3    H170093   6.247   1.498   1.200  0.7127  0.3181  0.0582
16226TIP3    H270094   6.219   1.501   1.349  0.2286  0.1943 -0.0299
16227TIP3   OH270095   4.656   0.247  15.264 -0.3025  0.4107  0.1878
16227TIP3    H170096   4.689   0.337  15.265  0.9827 -0.0004 -1.1292
16227TIP3    H270097   4.733   0.194  15.286 -1.1859 -0.3511  1.5296
16228TIP3   OH270098   6.569   0.707   0.440 -0.1369 -0.2579  0.0698
16228TIP3    H170099   6.564   0.716   0.345  0.0039 -1.0857 -0.0229
16228TIP3    H270100   6.511   0.775   0.474  1.0276  1.0928 -0.5666
16229TIP3   OH270101   2.810   0.650  14.909 -0.3988  0.3520  0.3791
16229TIP3    H170102   2.771   0.652  14.996  1.3349 -1.7133  1.2896
16229TIP3    H270103   2.894   0.695  14.920  0.4142 -1.0624  0.1358
16230TIP3   OH270104   5.791   0.051   4.383  0.2038  1.0586 -0.8645
16230TIP3    H170105   5.813  -0.019   4.322 -1.0446 -0.7097  0.5878
16230TIP3    H270106   5.698   0.068   4.367 -0.2524  0.2880  0.7095
16231TIP3   OH270107   0.318   4.756   4.984 -0.3355  0.6004  0.6147
16231TIP3    H170108   0.260   4.775   5.058 -0.9990  0.2977  0.1856
16231TIP3    H270109   0.263   4.767   4.907  0.4563  1.2927  0.1374
16232TIP3   OH270110   0.975   1.836  12.596 -0.3232 -0.8814  0.9584
16232TIP3    H170111   1.059   1.870  12.563 -0.2726 -0.6495  1.3179
16232TIP3    H270112   0.930   1.913  12.628 -0.7163 -0.9961  0.6861
16233TIP3   OH270113   3.999   0.001  14.929 -0.2499 -0.5484 -0.1104
16233TIP3    H170114   3.925  -0.059  14.938 -2.7783  2.0408 -1.7008
16233TIP3    H270115   4.072  -0.054  14.902 -1.5037 -3.2716  1.6380
16234TIP3   OH270116   4.083   5.142  14.187 -0.1915 -0.5673  0.8140
16234TIP3    H170117   4.035   5.077  14.137 -0.8447 -1.1035  2.0928
16234TIP3    H270118   4.072   5.116  14.279  1.2050  0.2007  1.2484
16235TIP3   OH270119   5.330   4.260   6.401 -0.5049  0.1208 -0.0853
16235TIP3    H170120   5.383   4.239   6.478 -2.4705 -0.9688  1.0441
16235TIP3    H270121   5.245   4.283   6.435 -0.9689  1.2700 -1.8843
16236TIP3   OH270122   2.680   4.538  11.631  0.2194 -0.3885 -0.5084
16236TIP3    H170123   2.671   4.561  11.538  0.6561 -0.2251 -0.5115
16236TIP3    H270124   2.602   4.574  11.672  0.9307  1.2054 -0.4858
16237TIP3   OH270125   5.600   2.314   4.154  0.0038  0.0320  0.7631
16237TIP3    H170126   5.677   2.268   4.119 -0.8964 -1.7590  1.0005
16237TIP3    H270127   5.630   2.403   4.169  1.9623 -0.5437  0.5781
16238TIP3   OH270128   1.815   4.480  10.350  0.1187  0.2293 -0.4224
16238TIP3    H170129   1.880   4.549  10.337  0.1428  0.4868  0.9557
16238TIP3    H270130   1.866   4.403  10.375 -0.0567  0.2190 -0.1027
16239TIP3   OH270131   5.700   5.974   0.907 -0.5171 -0.9740  0.1744
16239TIP3    H170132   5.629   6.035   0.888 -0.4052 -0.3704  1.5479
16239TIP3    H270133   5.662   5.887   0.895 -0.8944 -0.6640 -1.0652
16240TIP3   OH270134   3.584   0.259  14.532 -0.7057  0.0008 -0.3321
16240TIP3    H170135   3.554   0.191  14.473 -0.7965 -0.2875  0.0404
16240TIP3    H270136   3.505   0.285  14.581 -0.5811  0.0530 -0.1566
16241TIP3   OH270137   4.039   4.077   2.570 -0.1544  0.5438  0.5593
16241TIP3    H170138   4.068   4.014   2.504  0.6587  0.3152  1.1064
16241TIP3    H270139   3.965   4.122   2.531 -0.8094 -0.8192  0.1908
16242TIP3   OH270140   3.237   6.014  11.807 -0.0182  0.0186 -0.7474
16242TIP3    H170141   3.306   6.028  11.871  0.4499  1.2199 -1.4920
16242TIP3    H270142   3.207   6.102  11.783 -3.3141 -0.4221  1.1080
16243TIP3   OH270143   3.726   5.228   5.227 -0.3834  0.7852  0.1052
16243TIP3    H170144   3.769   5.262   5.148  0.4211 -0.5443 -0.0558
16243TIP3    H270145   3.765   5.279   5.299 -0.3700  1.2888 -0.2528
16244TIP3   OH270146   5.977   2.643   1.519 -0.5376 -0.1180 -0.1970
16244TIP3    H170147   5.922   2.640   1.597 -0.7591 -1.4423 -0.3778
16244TIP3    H270148   5.964   2.731   1.483 -2.2112 -0.2596 -0.0030
16245TIP3   OH270149   4.271   2.002  15.595  0.0598 -0.0631 -0.9175
16245TIP3    H170150   4.339   2.049  15.643 -0.4467 -0.9802  0.8030
16245TIP3    H270151   4.319   1.938  15.543  0.5625 -0.5566  0.1108
16246TIP3   OH270152   0.267   5.737   3.874  0.4474 -0.0890  0.0102
16246TIP3    H170153   0.266   5.781   3.789  1.4770 -0.1521 -0.0448
16246TIP3    H270154   0.249   5.806   3.938 -0.8129 -0.1241 -0.2765
16247TIP3   OH270155   3.069   1.664  10.490 -0.0966  0.8117 -0.4619
16247TIP3    H170156   3.133   1.615  10.439  0.8823  1.1973  0.3583
16247TIP3    H270157   3.089   1.641  10.581 -0.1420  2.0952 -0.1106
16248TIP3   OH270158   0.533   5.447  12.504 -0.9359 -0.1903  0.1698
16248TIP3    H170159   0.589   5.385  12.457  0.6862  1.5376 -0.3077
16248TIP3    H270160   0.513   5.515  12.440 -1.8602  0.2928  0.9431
16249TIP3   OH270161   5.461   5.615   3.968  0.0730 -0.9574 -0.3071
16249TIP3    H170162   5.383   5.640   3.918  0.5804 -2.1165 -1.7522
16249TIP3    H270163   5.432   5.540   4.020 -0.1436 -0.4975  0.2384
16250TIP3   OH270164   2.114   0.354  10.978  0.2112  0.5496  0.0619
16250TIP3    H170165   2.201   0.392  10.965  0.7607 -0.5593  0.3709
16250TIP3    H270166   2.104   0.348  11.073  1.6189 -3.1596  0.1670
16251TIP3   OH270167   0.683   5.301   1.134  0.3804  0.2279 -0.2590
16251TIP3    H170168   0.722   5.226   1.180 -1.2316  0.2181  1.1688
16251TIP3    H270169   0.753   5.366   1.132  1.6239 -1.0819 -1.0041
16252TIP3   OH270170   6.084   4.592  15.156  0.3332  0.2312  0.1789
16252TIP3    H170171   6.050   4.518  15.106 -0.0587  0.5175  0.0134
16252TIP3    H270172   6.041   4.585  15.242 -0.9878  1.1866 -0.3692
16253TIP3   OH270173   1.017   2.726   1.510 -0.1595  0.0971  0.1615
16253TIP3    H170174   1.021   2.812   1.469  0.1037 -0.7913 -1.7862
16253TIP3    H270175   1.092   2.679   1.474 -0.0455 -0.8250  1.5266
16254TIP3   OH270176   1.301   2.733  13.731  0.4850  0.1111  1.0448
16254TIP3    H170177   1.270   2.734  13.821  0.0113  0.8776  0.8855
16254TIP3    H270178   1.245   2.797  13.686  0.2494 -0.7680  0.0579
16255TIP3   OH270179   3.555   1.734  12.703  0.7882  0.2348  0.0900
16255TIP3    H170180   3.537   1.822  12.735 -0.7178  0.4288 -1.1423
16255TIP3    H270181   3.517   1.732  12.615  0.8183 -1.6312  0.0649
16256TIP3   OH270182   1.839   4.793  16.363  0.3876 -0.3054  0.3288
16256TIP3    H170183   1.922   4.750  16.382  1.6660  1.8021 -0.1809
16256TIP3    H270184   1.844   4.816  16.270 -2.1203 -2.8201 -0.5850
16257TIP3   OH270185   3.670   5.317  15.835 -0.3234 -0.1932  0.1082
16257TIP3    H170186   3.762   5.300  15.815  0.1437  1.0550  1.0169
16257TIP3    H270187   3.627   5.323  15.750  0.4175 -0.8770 -0.3244
16258TIP3   OH270188   0.953   2.238  13.329 -0.2413  0.4169 -0.1050
16258TIP3    H170189   0.898   2.222  13.406 -1.4664  1.1182 -0.8106
16258TIP3    H270190   0.967   2.151  13.292  1.8325 -0.1648  1.8358
16259TIP3   OH270191   0.758   5.118  13.198  0.1977 -0.0670  0.0143
16259TIP3    H170192   0.845   5.079  13.193  1.0134  1.7345 -0.4294
16259TIP3    H270193   0.724   5.089  13.283  2.2522  1.2208  1.3492
16260TIP3   OH270194   3.701   3.858  14.477 -0.6454  0.5260 -0.2117
16260TIP3    H170195   3.696   3.802  14.400 -0.7474 -1.7155  1.3360
16260TIP3    H270196   3.792   3.890  14.478 -0.1928 -0.6977 -0.4451
16261TIP3   OH270197   6.058   3.020   4.812 -0.1427 -0.1590 -0.1562
16261TIP3    H170198   6.001   2.989   4.882  1.9818  0.2572  1.8830
16261TIP3    H270199   6.055   2.950   4.746  0.3385 -2.2186  1.8603
16262TIP3   OH270200   3.363   3.141  11.815 -0.0883  0.3341 -0.3141
16262TIP3    H170201   3.289   3.154  11.875 -0.1277 -0.6524 -0.1343
16262TIP3    H270202   3.353   3.210  11.750  0.3299  1.8654  1.1624
16263TIP3   OH270203   1.747   6.647   5.664 -0.0403  0.3394  0.5663
16263TIP3    H170204   1.792   6.565   5.644  0.1191  1.0484 -2.4088
16263TIP3    H270205   1.696   6.628   5.743 -0.5417 -2.8633 -0.3939
16264TIP3   OH270206   2.437   4.843   2.076 -0.1105  0.3292  0.3297
16264TIP3    H170207   2.489   4.920   2.098  0.8123  0.5590 -2.2365
16264TIP3    H270208   2.498   4.785   2.031 -1.5315 -0.4112 -0.7359
16265TIP3   OH270209   1.731   6.182  13.285 -0.3592 -0.0753 -0.9307
16265TIP3    H170210   1.764   6.246  13.348  0.1297  0.5633 -1.7988
16265TIP3    H270211   1.636   6.190  13.290 -0.3042  0.6010 -0.9060
16266TIP3   OH270212   6.107   2.540  11.916  0.1868 -0.3428 -0.1396
16266TIP3    H170213   6.021   2.539  11.873 -0.1145  0.5155  0.4392
16266TIP3    H270214   6.162   2.591  11.857 -0.2135  0.7923  0.4467
16267TIP3   OH270215   2.478   3.847   0.291  0.2781  0.1651 -0.4623
16267TIP3    H170216   2.462   3.790   0.366 -1.2953  1.0980 -0.0522
16267TIP3    H270217   2.420   3.814   0.222  1.0642 -0.1385 -1.0003
16268TIP3   OH270218   3.451   4.492   3.092 -0.5645  0.1745 -0.5478
16268TIP3    H170219   3.401   4.560   3.046 -0.8263  1.1680  1.1528
16268TIP3    H270220   3.526   4.538   3.129 -0.9392 -0.3856  0.9464
16269TIP3   OH270221   0.288   0.703   0.686 -0.0046  0.3294 -0.5177
16269TIP3    H170222   0.291   0.668   0.596  0.4657  1.8461 -1.1229
16269TIP3    H270223   0.363   0.762   0.691  0.2871 -0.1525  1.0766
16270TIP3   OH270224   3.517   3.137   5.657  0.0432  0.3494  0.4790
16270TIP3    H170225   3.568   3.107   5.733  0.2675  1.2004  0.6758
16270TIP3    H270226   3.507   3.059   5.603  0.6982 -0.0616  0.9285
16271TIP3   OH270227   1.607   0.334  10.960  0.2309 -0.8474  0.5239
16271TIP3    H170228   1.578   0.375  11.041 -2.1076 -2.8801  0.8476
16271TIP3    H270229   1.597   0.240  10.976  1.7621 -1.4002 -1.4090
16272TIP3   OH270230   5.059   2.392   0.481  0.0739 -0.2691  0.3185
16272TIP3    H170231   5.076   2.385   0.387  0.2265  0.2948  0.3019
16272TIP3    H270232   5.140   2.364   0.522  0.3072  0.3315  0.2691
16273TIP3   OH270233   6.727   3.950  15.573 -0.1378  0.3467 -0.3827
16273TIP3    H170234   6.733   3.894  15.496  1.7648  1.7195 -1.3222
16273TIP3    H270235   6.778   4.028  15.550 -0.7956  1.4738  1.7031
16274TIP3   OH270236   5.670   3.884   1.313 -0.4444 -0.1313 -0.4026
16274TIP3    H170237   5.622   3.961   1.286  0.2560 -0.5873 -3.2208
16274TIP3    H270238   5.753   3.889   1.266  1.0547 -0.9312  1.9514
16275TIP3   OH270239   0.369   5.397   4.711 -0.1622  0.0556  0.0264
16275TIP3    H170240   0.363   5.305   4.736 -0.3931 -0.1804 -0.8645
16275TIP3    H270241   0.447   5.401   4.655  1.0392  0.7969  1.6648
16276TIP3   OH270242   3.426   6.509  15.832 -0.2059 -0.1939  0.3379
16276TIP3    H170243   3.489   6.510  15.759  1.6518  1.5595  1.8302
16276TIP3    H270244   3.401   6.601  15.843 -1.1161 -0.5408  1.3663
16277TIP3   OH270245   2.204   1.520   1.210  0.0746  0.2079  0.1454
16277TIP3    H170246   2.194   1.551   1.119 -1.1643  0.2677  0.2810
16277TIP3    H270247   2.179   1.596   1.263  1.0680  0.2617  0.5527
16278TIP3   OH270248   2.172   4.844   3.441 -0.1894  0.4612 -0.4132
16278TIP3    H170249   2.261   4.868   3.467 -0.1010 -0.2648 -0.0245
16278TIP3    H270250   2.117   4.877   3.512 -0.0864 -0.2939  0.0282
16279TIP3   OH270251   4.596   5.109  13.373 -0.3950  0.1471 -0.0593
16279TIP3    H170252   4.656   5.058  13.318 -0.7761 -0.4795  0.0896
16279TIP3    H270253   4.574   5.186  13.321  0.9009  0.6232  0.0740
16280TIP3   OH270254   6.745   4.846  15.445 -0.1287  0.1448 -0.2092
16280TIP3    H170255   6.838   4.828  15.433  0.0677  0.3669  0.8759
16280TIP3    H270256   6.741   4.904  15.522 -1.2652 -1.2586  0.8532
16281TIP3   OH270257   3.094   5.803  11.854  0.3493  0.0249  0.3931
16281TIP3    H170258   3.148   5.881  11.866  0.7187 -0.1565 -0.0440
16281TIP3    H270259   3.157   5.735  11.827  0.0461 -0.4417  0.8457
16282TIP3   OH270260   4.214   5.994  11.908  0.0463 -0.5033  0.1298
16282TIP3    H170261   4.294   6.042  11.928  1.0405 -1.1685 -1.9949
16282TIP3    H270262   4.232   5.905  11.938  0.9199 -1.1158 -2.0220
16283TIP3   OH270263   2.152   5.798   2.842  0.4801  0.9766  0.2018
16283TIP3    H170264   2.145   5.768   2.932  0.5923  2.4969  0.7439
16283TIP3    H270265   2.110   5.884   2.841 -2.8532 -0.4486 -2.0194
16284TIP3   OH270266   6.396   5.780   4.303 -0.0550 -0.5367  0.1469
16284TIP3    H170267   6.394   5.826   4.219 -1.0019  1.3690  1.1485
16284TIP3    H270268   6.489   5.769   4.322  0.1689 -0.7672 -1.0134
16285TIP3   OH270269   2.810   5.588  14.235 -0.0097  0.3228  0.2015
16285TIP3    H170270   2.877   5.554  14.176  1.2230 -0.2928  1.8829
16285TIP3    H270271   2.750   5.514  14.249 -0.5641  0.6041 -0.5867
16286TIP3   OH270272   0.562   6.785   4.876  0.0132  0.3017  0.0501
16286TIP3    H170273   0.551   6.836   4.796 -1.8431  1.6971  1.1180
16286TIP3    H270274   0.648   6.810   4.909  0.6976 -0.1079 -1.3454
16287TIP3   OH270275   2.843   0.414  10.909  0.1671  1.1560  0.4253
16287TIP3    H170276   2.934   0.398  10.885 -0.0895  0.3495 -0.0768
16287TIP3    H270277   2.841   0.408  11.004  0.3457 -0.6454  0.3615
16288TIP3   OH270278   0.242   0.890   2.637  0.2865  0.1916 -0.5525
16288TIP3    H170279   0.281   0.834   2.704  1.6471  0.3309 -1.2044
16288TIP3    H270280   0.180   0.945   2.685  0.3837 -0.5056  0.3970
16289TIP3   OH270281   1.485   0.506   3.446 -0.3092 -0.3163  0.6922
16289TIP3    H170282   1.498   0.547   3.360 -0.0467  0.6114  1.1595
16289TIP3    H270283   1.551   0.437   3.450 -1.1861 -1.2443 -0.3759
16290TIP3   OH270284   6.378   2.370  16.697 -0.3129 -0.0424  0.4347
16290TIP3    H170285   6.370   2.297  16.635 -0.1089 -0.7105  1.1744
16290TIP3    H270286   6.457   2.417  16.668 -0.7255  0.1823 -0.3466
16291TIP3   OH270287   0.161   6.769  15.784 -0.0616 -0.1719  0.2046
16291TIP3    H170288   0.166   6.683  15.742 -0.9410 -0.5058  0.7629
16291TIP3    H270289   0.143   6.830  15.713  0.5066 -0.4516 -0.1876
16292TIP3   OH270290   5.121   1.775  12.857  0.8234  0.1796 -0.8127
16292TIP3    H170291   5.047   1.719  12.833  0.6576  0.4407 -0.9123
16292TIP3    H270292   5.122   1.843  12.790  0.9841  0.3338 -0.6525
16293TIP3   OH270293   6.145   0.997  11.651  0.0294  0.3287  0.0560
16293TIP3    H170294   6.187   0.958  11.728 -1.2291 -0.2332  0.4917
16293TIP3    H270295   6.198   0.968  11.577  0.8890  0.3412  0.6647
16294TIP3   OH270296   2.362   2.509   3.579 -0.5073  0.1233 -0.0443
16294TIP3    H170297   2.341   2.445   3.646  1.4253  0.7601  1.2686
16294TIP3    H270298   2.297   2.579   3.591  0.2035  0.5494  1.6916
16295TIP3   OH270299   1.354   1.654  12.104  0.6768 -0.0423 -0.8268
16295TIP3    H170300   1.286   1.635  12.170  0.0209  1.2133 -1.0984
16295TIP3    H270301   1.390   1.569  12.081 -0.3459 -0.6756 -0.1667
16296TIP3   OH270302   5.334   5.442   5.247  0.2569  0.5060 -0.8052
16296TIP3    H170303   5.266   5.485   5.196  0.8516  1.1343 -1.0893
16296TIP3    H270304   5.370   5.512   5.303  3.1500  1.1929 -3.2354
16297TIP3   OH270305   4.771   2.991  11.696 -0.2131  0.3839 -0.6174
16297TIP3    H170306   4.787   3.048  11.771 -2.0206 -0.1805  0.2661
16297TIP3    H270307   4.849   3.000  11.642  2.3265 -1.0313  2.4870
16298TIP3   OH270308   5.607   1.189  16.315 -0.4993 -0.3768  0.3066
16298TIP3    H170309   5.634   1.120  16.375 -0.8378 -0.8072 -0.0368
16298TIP3    H270310   5.675   1.256  16.324  0.4355 -1.2265 -0.1839
16299TIP3   OH270311   2.800   1.569   5.099  0.5986  0.8499  0.6989
16299TIP3    H170312   2.826   1.478   5.086  2.2829  1.5970 -2.1021
16299TIP3    H270313   2.874   1.609   5.144 -0.4085  0.7638  2.5168
16300TIP3   OH270314   6.556   6.159  12.793 -0.1619  0.4613  0.2823
16300TIP3    H170315   6.651   6.165  12.783 -0.0794  0.2446  0.9012
16300TIP3    H270316   6.529   6.093  12.730  0.1523  0.2111  0.4077
16301TIP3   OH270317   2.994   3.888  15.356  0.0250  0.2314 -0.0896
16301TIP3    H170318   3.086   3.900  15.382 -0.2866  0.9568  0.7040
16301TIP3    H270319   2.958   3.977  15.354 -0.6641 -0.0453 -0.4298
16302TIP3   OH270320   0.902   0.346   1.807  0.4478  0.2519  0.5893
16302TIP3    H170321   0.852   0.415   1.851  0.5098  0.0640  0.9618
16302TIP3    H270322   0.848   0.267   1.818  0.6297  0.1335  0.6276
16303TIP3   OH270323   5.915   5.697   0.474 -0.0009  0.0721  0.4601
16303TIP3    H170324   5.923   5.726   0.565  0.7810 -0.2487  0.4992
16303TIP3    H270325   5.824   5.715   0.451 -0.9273 -2.0775  2.1056
16304TIP3   OH270326   2.194   5.639   4.503 -0.1002  0.0905  0.6501
16304TIP3    H170327   2.199   5.689   4.584  2.7480  0.6135  0.2617
16304TIP3    H270328   2.166   5.703   4.437  0.3510  0.3700  0.7268
16305TIP3   OH270329   6.453   1.560   2.458 -0.5685 -0.2063 -0.1856
16305TIP3    H170330   6.527   1.559   2.398 -0.5301 -0.6220 -0.1299
16305TIP3    H270331   6.388   1.615   2.415 -0.2101  0.2097 -0.2101
16306TIP3   OH270332   6.792   1.411  11.292 -0.8583  0.3364 -0.6319
16306TIP3    H170333   6.699   1.406  11.269 -1.0340  1.5610 -0.2735
16306TIP3    H270334   6.819   1.499  11.267  0.6504 -0.5154 -2.2184
16307TIP3   OH270335   2.033   0.624   6.102  0.3966 -0.1862 -0.1868
16307TIP3    H170336   2.006   0.628   6.193 -1.4553  0.2630 -0.7256
16307TIP3    H270337   1.999   0.541   6.070  2.4703 -1.1455 -0.0890
16308TIP3   OH270338   6.250   6.772  16.753  0.4513  0.2394  0.0042
16308TIP3    H170339   6.259   6.720  16.673 -2.3498 -2.5088  1.2590
16308TIP3    H270340   6.332   6.757  16.801  1.4694  0.5662 -1.5630
16309TIP3   OH270341   1.687   0.896  13.553 -0.3222  0.3555 -0.1611
16309TIP3    H170342   1.677   0.950  13.474  1.0355 -0.5112 -0.9791
16309TIP3    H270343   1.598   0.882  13.584 -0.8284  1.5264 -0.9770
16310TIP3   OH270344   4.310   4.921  14.131  0.3507 -0.2246  0.5826
16310TIP3    H170345   4.261   4.846  14.167 -0.3385  0.6413  1.5031
16310TIP3    H270346   4.255   4.997  14.151  0.9639  0.5168 -0.4926
16311TIP3   OH270347   0.259   5.953   0.695  0.2403  0.2830 -0.0070
16311TIP3    H170348   0.231   5.879   0.641 -0.6327  0.1156  0.6507
16311TIP3    H270349   0.229   6.030   0.647  1.3528  0.2464 -0.8082
16312TIP3   OH270350   3.178   3.169  14.025 -0.5549 -0.3579  0.6494
16312TIP3    H170351   3.158   3.109  14.097 -1.9342 -0.3289  0.3165
16312TIP3    H270352   3.093   3.204  13.999 -0.0528 -0.2214 -0.8676
16313TIP3   OH270353   1.214   2.146  16.706 -0.1977 -0.5536 -0.1414
16313TIP3    H170354   1.180   2.226  16.746  1.1747 -0.6419  1.3109
16313TIP3    H270355   1.255   2.175  16.624 -0.4163  0.1096 -0.0144
16314TIP3   OH270356   1.997   2.723   0.791 -0.3060 -0.3383 -0.5737
16314TIP3    H170357   2.001   2.694   0.882 -2.3500  1.5769  0.2244
16314TIP3    H270358   1.917   2.685   0.757  0.2418 -0.7157 -1.4778
16315TIP3   OH270359   0.579   5.131  11.368 -0.0791 -0.1044  0.0599
16315TIP3    H170360   0.585   5.055  11.310 -1.0555 -0.7358  0.7606
16315TIP3    H270361   0.488   5.159  11.363 -0.3550 -0.5699  1.7458
16316TIP3   OH270362   1.742   6.264   3.197 -0.1995 -0.0027  0.3820
16316TIP3    H170363   1.662   6.234   3.155  0.1308 -0.3796  0.0104
16316TIP3    H270364   1.713   6.331   3.259 -0.7532  0.1422 -0.0262
16317TIP3   OH270365   3.679   3.492   4.553 -0.5221  0.1610 -0.2674
16317TIP3    H170366   3.684   3.398   4.540 -2.7866 -0.3922  2.0789
16317TIP3    H270367   3.758   3.514   4.601 -0.0295 -0.5543 -0.7360
16318TIP3   OH270368   1.486   4.274  16.625  0.2634 -0.1103  0.1839
16318TIP3    H170369   1.547   4.334  16.668 -0.2434 -0.6453  1.7277
16318TIP3    H270370   1.483   4.303  16.534  1.1067  1.3031  0.5840
16319TIP3   OH270371   2.037   0.950   2.171 -0.4337  0.4247  0.4827
16319TIP3    H170372   2.126   0.936   2.202 -0.7425  0.6157  1.4980
16319TIP3    H270373   2.042   1.030   2.117  0.2759 -0.4065 -0.7303
16320TIP3   OH270374   4.480   1.299  14.865 -0.2105  0.5017  0.3570
16320TIP3    H170375   4.407   1.259  14.913  0.2244  0.3231  0.8760
16320TIP3    H270376   4.449   1.387  14.844 -0.7116  0.3060  0.2661
16321TIP3   OH270377   0.271   3.640   3.131 -0.0759  0.0778  0.1334
16321TIP3    H170378   0.231   3.593   3.058 -1.5674 -0.7359  1.4172
16321TIP3    H270379   0.354   3.673   3.096 -0.8429 -0.0777 -1.9780
16322TIP3   OH270380   6.396   2.721   4.283 -0.2487  0.3550  0.1156
16322TIP3    H170381   6.355   2.660   4.222  0.9155  0.7912 -1.1364
16322TIP3    H270382   6.436   2.664   4.350 -0.4435 -0.1896 -0.2216
16323TIP3   OH270383   4.451   5.835   4.085 -0.0806 -0.0008  0.3908
16323TIP3    H170384   4.444   5.776   4.011 -1.0571  0.0993  0.3913
16323TIP3    H270385   4.367   5.881   4.088  0.4820  1.0519  0.6687
16324TIP3   OH270386   4.216   0.397   0.543  0.2052 -0.5781 -0.4930
16324TIP3    H170387   4.208   0.455   0.618  2.5480 -1.0372  0.1765
16324TIP3    H270388   4.207   0.454   0.467 -1.4644 -0.0021  0.0897
16325TIP3   OH270389   3.234   0.415  10.335  0.3056 -0.0770 -0.2215
16325TIP3    H170390   3.179   0.340  10.311 -0.3567 -0.0913  1.2212
16325TIP3    H270391   3.177   0.471  10.387  0.8097  1.4282 -1.1906
16326TIP3   OH270392   1.687   4.734   1.704 -0.0005  0.5980  0.0452
16326TIP3    H170393   1.653   4.685   1.779 -2.0635  2.7101  0.6356
16326TIP3    H270394   1.759   4.681   1.671 -0.7636 -1.7502  1.8468
16327TIP3   OH270395   3.040   3.858  12.868  0.0409 -1.0557  0.2857
16327TIP3    H170396   3.007   3.791  12.928  0.9931  0.4160  2.5859
16327TIP3    H270397   3.125   3.884  12.906  0.0275  0.9116 -0.9285
16328TIP3   OH270398   1.217   4.810  14.923  0.0485  0.3887  0.5319
16328TIP3    H170399   1.287   4.866  14.956 -0.4563  0.7716  0.9652
16328TIP3    H270400   1.205   4.744  14.992 -1.4767  1.5926  1.4810
16329TIP3   OH270401   1.981   2.057   1.025  0.1471  0.1522  0.0977
16329TIP3    H170402   1.943   2.098   0.947 -1.0586 -0.4362  0.3528
16329TIP3    H270403   2.065   2.102   1.038 -0.1646  1.0364 -0.8666
16330TIP3   OH270404   0.188   6.182   1.573 -0.0162  0.2147  0.0818
16330TIP3    H170405   0.155   6.109   1.626  0.9292 -0.4294 -0.1825
16330TIP3    H270406   0.111   6.236   1.556 -0.3951  0.3119  1.8996
16331TIP3   OH270407   1.251   4.291   1.543  0.4225 -0.2750  0.1391
16331TIP3    H170408   1.241   4.304   1.637  0.6667 -0.3372  0.1738
16331TIP3    H270409   1.335   4.247   1.534  1.0280  0.8928 -0.1994
16332TIP3   OH270410   4.262   3.146   4.874  0.4280  0.2939  0.5244
16332TIP3    H170411   4.323   3.211   4.909 -0.6052  0.5805  1.8612
16332TIP3    H270412   4.189   3.197   4.840 -0.4539 -0.1387  1.7044
16333TIP3   OH270413   0.659   4.494   5.397  0.0795  0.0145  0.1105
16333TIP3    H170414   0.598   4.421   5.408  0.8379 -0.7667 -0.7071
16333TIP3    H270415   0.711   4.470   5.320 -0.7408  2.1676 -1.2083
16334TIP3   OH270416   0.141   2.261   5.254  0.2631  0.7058 -0.3792
16334TIP3    H170417   0.123   2.335   5.196 -0.7425 -0.4192 -1.5591
16334TIP3    H270418   0.191   2.299   5.327 -2.6359  3.0776  0.5453
16335TIP3   OH270419   1.849   6.046   4.007 -0.3113  0.2905 -0.6019
16335TIP3    H170420   1.766   6.069   3.967 -0.5286  2.6241  1.0063
16335TIP3    H270421   1.915   6.074   3.944 -0.6993 -0.3945 -1.3257
16336TIP3   OH270422   1.995   5.240   0.703 -0.5001 -0.2809  0.1864
16336TIP3    H170423   2.014   5.308   0.768 -1.8980  1.2864 -0.9613
16336TIP3    H270424   1.979   5.288   0.622 -0.5708 -2.0693 -0.8983
16337TIP3   OH270425   4.840   5.256  15.110  0.1653  0.1809 -0.3524
16337TIP3    H170426   4.762   5.204  15.092 -0.5041  1.2975 -0.7208
16337TIP3    H270427   4.912   5.203  15.074 -0.5113 -0.4034 -0.8780
16338TIP3   OH270428   5.927   1.662  16.473  0.1155  0.2670 -0.5734
16338TIP3    H170429   5.884   1.684  16.391  0.2862 -0.8121 -0.9703
16338TIP3    H270430   6.011   1.624  16.447  0.6814  0.9677  0.1418
16339TIP3   OH270431   5.593   2.732  14.018 -0.9238 -0.3016 -0.5331
16339TIP3    H170432   5.658   2.696  13.958  0.4030 -0.0271  0.6773
16339TIP3    H270433   5.644   2.784  14.080 -2.0944 -1.4962  1.5372
16340TIP3   OH270434   5.051   3.369   0.401  0.6733  0.3447  0.6124
16340TIP3    H170435   5.116   3.322   0.454 -0.7626  0.0044  2.1629
16340TIP3    H270436   5.050   3.322   0.318 -0.1336 -1.9486  1.8246
16341TIP3   OH270437   2.769   5.234  10.969  0.5871  0.5307 -0.0973
16341TIP3    H170438   2.757   5.139  10.970  1.4481  0.3448 -2.0994
16341TIP3    H270439   2.857   5.247  10.933  0.0883  2.1062 -0.8491
16342TIP3   OH270440   5.587   4.709   2.004 -0.4791  0.8272  0.1482
16342TIP3    H170441   5.599   4.748   1.918 -1.4829  0.1533 -0.3142
16342TIP3    H270442   5.646   4.758   2.061  0.5413  0.9896 -0.9994
16343TIP3   OH270443   3.611   0.403   3.834 -0.8324  0.1471 -0.3731
16343TIP3    H170444   3.687   0.442   3.877 -0.6124 -0.5371 -0.1151
16343TIP3    H270445   3.649   0.347   3.766 -1.1198  0.1218 -0.5140
16344TIP3   OH270446   3.899   3.971   6.045  0.1438 -0.2534 -0.4334
16344TIP3    H170447   3.936   3.972   6.133  1.9112  0.9944 -1.1508
16344TIP3    H270448   3.852   4.054   6.038  0.9608  0.1731 -1.0278
16345TIP3   OH270449   2.872   4.959   5.139 -0.0744 -0.4196 -0.3584
16345TIP3    H170450   2.937   4.994   5.199 -1.0006  1.1458 -0.2140
16345TIP3    H270451   2.793   5.009   5.157 -0.6198 -0.4997 -2.2935
16346TIP3   OH270452   2.764   5.196  11.957 -0.5522 -0.2401  0.4682
16346TIP3    H170453   2.821   5.130  11.996  0.7358  1.4338  1.5750
16346TIP3    H270454   2.680   5.183  12.001 -0.4623 -1.4264  0.3207
16347TIP3   OH270455   3.955   1.807  15.695  0.4526  0.1575 -0.4365
16347TIP3    H170456   3.874   1.796  15.646  0.4149 -2.0898  0.0244
16347TIP3    H270457   3.931   1.786  15.786  1.6031 -0.8634 -0.3516
16348TIP3   OH270458   4.385   3.513  13.054 -0.0747  0.7036  0.2713
16348TIP3    H170459   4.433   3.538  12.974 -1.6479 -0.3214 -1.0582
16348TIP3    H270460   4.355   3.424  13.037 -0.5635  0.5134  1.9844
16349TIP3   OH270461   2.181   0.601   0.433 -0.2264  0.6226  0.0926
16349TIP3    H170462   2.179   0.505   0.422  0.2841  0.7219 -0.9712
16349TIP3    H270463   2.092   0.629   0.412  0.0584  0.5371 -1.3088
16350TIP3   OH270464   0.029   3.066  12.085  0.5392 -0.3421  0.6409
16350TIP3    H170465   0.031   3.149  12.132  0.9865  0.1854 -0.2876
16350TIP3    H270466   0.107   3.068  12.029 -1.1363  0.0392 -1.8184
16351TIP3   OH270467   4.110   3.353   1.603  0.4529  0.2355  0.0668
16351TIP3    H170468   4.015   3.345   1.614  0.2366  1.7285 -0.5588
16351TIP3    H270469   4.131   3.297   1.529  0.6163 -2.8194  2.2342
16352TIP3   OH270470   5.204   2.102  15.418 -0.5399 -0.6726 -0.1032
16352TIP3    H170471   5.197   2.010  15.442  0.9930 -0.0910  3.0864
16352TIP3    H270472   5.172   2.149  15.495  0.6942  1.4425 -0.8137
16353TIP3   OH270473   1.208   1.045   5.841  0.0062 -0.2746  0.4916
16353TIP3    H170474   1.148   0.982   5.880  0.1304 -0.0051  1.1189
16353TIP3    H270475   1.152   1.106   5.794 -0.2186  0.0268  1.1492
16354TIP3   OH270476   3.560   2.669  14.764  0.0520  0.0280 -0.1076
16354TIP3    H170477   3.648   2.689  14.733  0.5571 -1.8492 -0.0429
16354TIP3    H270478   3.574   2.608  14.837 -1.3211 -1.2290 -0.8495
16355TIP3   OH270479   0.332   6.439  14.012 -0.9442 -0.0190  0.6203
16355TIP3    H170480   0.320   6.495  14.089  1.0508  1.9644 -0.4098
16355TIP3    H270481   0.412   6.390  14.031 -0.1437  0.8712 -0.3767
16356TIP3   OH270482   6.485   6.692  11.502  0.0712  0.2513 -0.3594
16356TIP3    H170483   6.518   6.782  11.510 -1.3289  0.8436 -0.8601
16356TIP3    H270484   6.559   6.637  11.528  0.7845  1.5549  0.5129
16357TIP3   OH270485   0.131   1.855   0.429 -0.1739  0.0926  0.1312
16357TIP3    H170486   0.216   1.810   0.438  0.1205  0.2968 -1.3975
16357TIP3    H270487   0.103   1.870   0.519  0.8511 -1.0356  0.6759
16358TIP3   OH270488   1.671   4.564  10.576 -0.8879  0.0093 -0.0900
16358TIP3    H170489   1.590   4.606  10.547 -0.7040 -0.4617 -1.3394
16358TIP3    H270490   1.717   4.542  10.495 -0.2925 -1.2641  0.5633
16359TIP3   OH270491   5.806   2.994  14.771 -0.5691  0.3326  0.7971
16359TIP3    H170492   5.883   3.016  14.823 -1.1619 -1.1649  2.4117
16359TIP3    H270493   5.732   3.006  14.831 -1.3332 -1.0026  0.1771
16360TIP3   OH270494   5.176   3.752   4.394  0.2627 -0.0730 -0.2708
16360TIP3    H170495   5.138   3.704   4.468  0.4444  2.3540  1.5203
16360TIP3    H270496   5.122   3.728   4.319 -3.2444  1.1815  1.6140
16361TIP3   OH270497   3.884   2.506  15.927 -0.1829  0.2569 -0.4798
16361TIP3    H170498   3.807   2.554  15.956  2.1434  2.9248  1.8990
16361TIP3    H270499   3.899   2.440  15.995 -0.7324 -0.8266 -1.3628
16362TIP3   OH270500   2.829   4.269   0.902 -0.0791  0.5263 -0.1277
16362TIP3    H170501   2.839   4.364   0.896  0.2362  0.6155  1.4671
16362TIP3    H270502   2.802   4.243   0.814  0.2203  2.0349 -0.7066
16363TIP3   OH270503   0.226   5.883  11.367  0.7389 -0.1096 -0.3412
16363TIP3    H170504   0.208   5.790  11.382 -0.5598 -0.4936 -3.5270
16363TIP3    H270505   0.312   5.885  11.327  1.0899  0.1534  0.4146
16364TIP3   OH270506   6.634   2.232  16.974  0.4976  0.5276  0.0981
16364TIP3    H170507   6.608   2.220  17.065 -1.6373 -1.4465 -0.6846
16364TIP3    H270508   6.612   2.150  16.931  1.6507  1.3205 -2.1825
16365TIP3   OH270509   4.222   3.835  13.294 -0.0442  0.0767 -0.0936
16365TIP3    H170510   4.184   3.753  13.262  1.2165 -0.1894 -1.0199
16365TIP3    H270511   4.292   3.855  13.231  1.2152  0.6252  1.4055
16366TIP3   OH270512   6.546   4.648  11.204  0.6684 -0.0261 -0.3204
16366TIP3    H170513   6.516   4.630  11.293 -0.6205  2.1208 -0.2693
16366TIP3    H270514   6.605   4.723  11.213  3.5634 -2.0652 -0.8696
16367TIP3   OH270515   5.421   2.167  11.694  0.7563  0.2101 -0.1365
16367TIP3    H170516   5.355   2.212  11.642 -1.2964 -0.1835  1.9843
16367TIP3    H270517   5.407   2.197  11.783  1.9705 -1.6061  0.7373
16368TIP3   OH270518   0.394   5.938  15.544  0.2218  0.4172 -0.1983
16368TIP3    H170519   0.376   6.010  15.483  1.6113 -0.4500 -1.7203
16368TIP3    H270520   0.487   5.944  15.562 -0.0531  0.2993  1.4666
16369TIP3   OH270521   3.939   2.941   1.464 -0.0394 -0.2115  0.0400
16369TIP3    H170522   3.998   2.886   1.515  1.2341 -1.4264 -2.5679
16369TIP3    H270523   3.871   2.882   1.433 -1.5822  0.7861  1.3696
16370TIP3   OH270524   0.968   5.042  11.089  0.4796  0.3453  0.2293
16370TIP3    H170525   0.891   5.049  11.032  0.3777  0.5268  0.3892
16370TIP3    H270526   1.030   5.104  11.052  0.5294  0.2417  0.1355
16371TIP3   OH270527   4.142   6.481  13.148  0.1752  0.5886 -0.3413
16371TIP3    H170528   4.178   6.559  13.189  2.3008 -0.8568  0.6927
16371TIP3    H270529   4.054   6.473  13.186  1.0128  0.8863  1.7797
16372TIP3   OH270530   3.789   1.908  12.909 -0.1568  0.0465  0.0151
16372TIP3    H170531   3.723   1.858  12.958  2.0359 -2.3967  0.7039
16372TIP3    H270532   3.820   1.847  12.842  0.4065  1.6355 -1.2057
16373TIP3   OH270533   3.462   6.557   3.440 -0.0285 -0.2355 -0.5489
16373TIP3    H170534   3.537   6.616   3.437 -1.0951  1.3391  1.4663
16373TIP3    H270535   3.495   6.478   3.483  0.7618 -0.0868 -0.8665
16374TIP3   OH270536   5.318   1.616  11.158  0.2835  0.7507  0.5052
16374TIP3    H170537   5.264   1.631  11.080  0.6983  1.9166  0.4208
16374TIP3    H270538   5.282   1.536  11.197 -1.5208  1.4900  0.4550
16375TIP3   OH270539   2.164   3.680  11.992 -0.0870  0.6213  0.2993
16375TIP3    H170540   2.253   3.695  11.962 -0.0495  1.2716  0.6976
16375TIP3    H270541   2.165   3.704  12.085 -0.8184  1.2918  0.1522
16376TIP3   OH270542   4.784   1.910   4.763  0.1492 -0.2177  0.4153
16376TIP3    H170543   4.806   1.861   4.684 -0.6637  0.0482  0.0205
16376TIP3    H270544   4.701   1.873   4.792 -0.2017  0.5712  0.4156
16377TIP3   OH270545   6.015   3.115  10.641 -0.3379 -0.0338  0.6632
16377TIP3    H170546   5.938   3.058  10.641 -0.2395 -0.2086  2.1206
16377TIP3    H270547   6.078   3.070  10.698 -0.2620  1.5050  1.8584
16378TIP3   OH270548   2.830   5.466  11.811 -0.3714  0.3653 -0.3925
16378TIP3    H170549   2.883   5.496  11.885 -0.2991  0.2669 -0.4024
16378TIP3    H270550   2.826   5.371  11.822 -1.3068  0.4606  0.1039
16379TIP3   OH270551   4.097   1.867   3.277 -0.6097 -0.3758  0.5620
16379TIP3    H170552   4.033   1.907   3.219  2.1072 -1.5979 -3.7499
16379TIP3    H270553   4.182   1.897   3.245  1.2531 -3.7579  1.7417
16380TIP3   OH270554   5.400   6.503   4.609  0.1894 -0.5367  0.3211
16380TIP3    H170555   5.410   6.598   4.609 -0.5883 -0.4270 -0.9314
16380TIP3    H270556   5.413   6.477   4.700 -1.4184  0.9827  1.0347
16381TIP3   OH270557   4.883   5.035   5.307  0.0381 -0.2571 -0.1585
16381TIP3    H170558   4.846   5.021   5.394  0.9676  2.4343  0.7920
16381TIP3    H270559   4.975   5.009   5.316  0.5565  1.5367  0.2338
16382TIP3   OH270560   2.937   1.742  14.032  0.2590  0.1816  0.2738
16382TIP3    H170561   2.878   1.670  14.012 -0.6088  1.1671 -0.8500
16382TIP3    H270562   3.005   1.737  13.965  1.1733 -0.5962  1.2200
16383TIP3   OH270563   5.260   2.345   5.489  0.1027  0.4479 -0.4965
16383TIP3    H170564   5.337   2.376   5.441  0.9008  2.1792  1.7171
16383TIP3    H270565   5.212   2.426   5.511 -1.6604 -0.4993 -0.6834
16384TIP3   OH270566   2.702   0.220  11.787  0.3404 -0.2581 -0.4566
16384TIP3    H170567   2.750   0.281  11.843  0.8892 -1.4424  0.4184
16384TIP3    H270568   2.770   0.167  11.745 -0.1394 -0.8394 -0.5150
16385TIP3   OH270569   2.105   4.398  10.270  0.6020  0.6069  0.1752
16385TIP3    H170570   2.052   4.344  10.329  0.2965  0.8131  0.0898
16385TIP3    H270571   2.072   4.487  10.282  1.4126  0.8461  0.6520
16386TIP3   OH270572   4.561   5.091   0.735  0.0488  0.2120 -0.3220
16386TIP3    H170573   4.582   5.000   0.756  1.4179  0.8200  1.1836
16386TIP3    H270574   4.571   5.138   0.818  0.8786  1.9755 -1.3527
16387TIP3   OH270575   5.997   3.145   4.514 -0.1486 -0.1625 -0.4789
16387TIP3    H170576   6.075   3.142   4.568 -1.3811 -0.2029  1.3770
16387TIP3    H270577   6.028   3.173   4.428  1.9250 -0.4939  0.1214
16388TIP3   OH270578   5.086   2.333   4.543 -0.1577  0.4199  0.3438
16388TIP3    H170579   5.094   2.298   4.454 -0.0279  0.9871  0.1224
16388TIP3    H270580   5.026   2.408   4.533 -0.2585  0.3941  0.7591
16389TIP3   OH270581   5.200   3.233  12.514  0.0538  0.3112  0.8958
16389TIP3    H170582   5.195   3.323  12.548  1.0741  0.0785  1.7362
16389TIP3    H270583   5.283   3.200  12.548  1.0382 -0.0526 -1.6448
16390TIP3   OH270584   2.557   1.802  14.329 -0.0085  0.1218 -0.4857
16390TIP3    H170585   2.582   1.889  14.297 -1.0099  0.5696 -0.1094
16390TIP3    H270586   2.623   1.743  14.292  0.6471  1.0264 -0.8113
16391TIP3   OH270587   1.410   2.894  11.883 -0.1423 -0.2425 -0.4441
16391TIP3    H170588   1.339   2.952  11.854  0.5518  1.5810  1.2918
16391TIP3    H270589   1.475   2.953  11.921  0.7735 -2.1373  1.0892
16392TIP3   OH270590   3.878   5.502  14.154 -0.2476 -0.0579 -0.8244
16392TIP3    H170591   3.811   5.441  14.184  0.5254  0.2433  1.7593
16392TIP3    H270592   3.831   5.585  14.142 -0.8539 -0.5486 -2.0567
16393TIP3   OH270593   1.402   6.372  14.143 -0.4956  0.4008  0.5456
16393TIP3    H170594   1.462   6.299  14.147  0.3274  0.8905 -1.5772
16393TIP3    H270595   1.341   6.357  14.216 -1.4357 -3.3076 -0.7908
16394TIP3   OH270596   6.473   3.612   3.826 -0.2432 -0.2035  0.9458
16394TIP3    H170597   6.444   3.585   3.913  1.3632 -1.8197  1.0211
16394TIP3    H270598   6.539   3.548   3.801 -0.2375  0.5641 -1.2376
16395TIP3   OH270599   6.332   2.704   5.547 -0.0146 -0.3824 -0.0688
16395TIP3    H170600   6.292   2.791   5.539  0.0135 -0.3959 -0.3684
16395TIP3    H270601   6.303   2.672   5.632  1.0327  0.4601  0.6287
16396TIP3   OH270602   5.400   0.336   1.248 -0.2237  0.2208  0.6270
16396TIP3    H170603   5.487   0.362   1.219 -0.3627 -0.3079 -0.3077
16396TIP3    H270604   5.396   0.242   1.231 -1.3408  0.4199 -0.3221
16397TIP3   OH270605   1.156   6.537   0.151 -0.0202 -0.2802 -0.1800
16397TIP3    H170606   1.235   6.534   0.204  0.2335 -0.5476 -0.5677
16397TIP3    H270607   1.097   6.474   0.192  0.1476 -0.4325 -0.1731
16398TIP3   OH270608   4.238   3.862   0.300 -0.4284 -0.1400  0.2001
16398TIP3    H170609   4.248   3.800   0.373 -1.6066  0.6694  1.0722
16398TIP3    H270610   4.314   3.845   0.245  0.0907 -1.3036  1.2154
16399TIP3   OH270611   2.330   6.657   0.118 -0.0377  0.1020 -0.4469
16399TIP3    H170612   2.425   6.655   0.106  0.4826 -2.5344  2.8495
16399TIP3    H270613   2.313   6.744   0.154  1.2860  0.2691 -0.1512
16400TIP3   OH270614   3.212   6.299  15.753 -0.5929  0.0044  0.0859
16400TIP3    H170615   3.243   6.320  15.665 -2.7233  1.5442 -0.3803
16400TIP3    H270616   3.276   6.339  15.811 -1.3966  2.8767 -0.8361
16401TIP3   OH270617   6.224   0.365   2.802  0.4892 -0.0551  0.2274
16401TIP3    H170618   6.286   0.322   2.860  0.4912  1.6789  1.5999
16401TIP3    H270619   6.138   0.336   2.832  0.5145  0.3748  0.7295
16402TIP3   OH270620   3.519   3.854   5.977 -0.1217  0.4151 -0.4377
16402TIP3    H170621   3.524   3.949   5.985  2.6741  0.4652 -1.4847
16402TIP3    H270622   3.445   3.839   5.918 -1.2071  1.8298  0.4750
16403TIP3   OH270623   6.737   2.561  15.347  0.1683  0.0656 -0.1316
16403TIP3    H170624   6.769   2.472  15.359 -0.9752 -0.5838 -1.5773
16403TIP3    H270625   6.738   2.573  15.252  2.0982  2.2963  0.0762
16404TIP3   OH270626   3.526   2.278  16.809  0.3111 -0.6451  0.0204
16404TIP3    H170627   3.493   2.243  16.727 -1.5226 -1.0169  0.8581
16404TIP3    H270628   3.619   2.256  16.809  0.3258 -0.7577 -1.8604
16405TIP3   OH270629   0.812   4.229   2.985  0.2292  0.4836  0.0862
16405TIP3    H170630   0.878   4.286   3.025 -1.1771  2.0942  0.2470
16405TIP3    H270631   0.832   4.231   2.892  1.2197 -0.1892  0.2633
16406TIP3   OH270632   5.136   2.594   5.842 -0.2960 -0.0275 -0.0320
16406TIP3    H170633   5.152   2.683   5.876 -0.0589  0.8678 -2.3033
16406TIP3    H270634   5.172   2.536   5.909  0.4091  1.6184  1.0871
16407TIP3   OH270635   2.282   0.602   3.385  0.5323  0.4572 -0.1026
16407TIP3    H170636   2.248   0.544   3.453  1.4600  1.5194  1.3446
16407TIP3    H270637   2.240   0.687   3.404  0.8401  0.7764 -0.8249
16408TIP3   OH270638   4.237   6.518  12.235  0.2144  0.4186  0.1197
16408TIP3    H170639   4.164   6.552  12.184 -0.6475  1.6356  2.0374
16408TIP3    H270640   4.246   6.427  12.207 -4.4497 -0.9687  2.2382
16409TIP3   OH270641   1.153   5.476   2.401  1.0180 -0.6699 -0.6704
16409TIP3    H170642   1.071   5.525   2.392  1.7437  0.2024 -4.0440
16409TIP3    H270643   1.127   5.392   2.438 -1.4411 -0.4970 -1.8160
16410TIP3   OH270644   2.728   1.927  11.504  0.0697 -0.4858  0.2698
16410TIP3    H170645   2.737   1.988  11.577 -0.9074 -0.7982  0.6631
16410TIP3    H270646   2.812   1.932  11.458  1.0795 -1.0672  1.9961
16411TIP3   OH270647   5.880   1.169  14.101  0.1675 -0.3255 -0.5749
16411TIP3    H170648   5.912   1.209  14.020  3.1283  2.4324  1.6966
16411TIP3    H270649   5.805   1.224  14.126  0.2052 -0.2215 -0.6879
16412TIP3   OH270650   6.497   6.187   1.300  1.0951  0.3181 -0.4112
16412TIP3    H170651   6.572   6.182   1.240 -0.1165  1.3236 -2.0651
16412TIP3    H270652   6.442   6.113   1.274  1.1629 -0.0116  0.3538
16413TIP3   OH270653   0.885   6.504   5.500  0.6370 -0.0147  0.3530
16413TIP3    H170654   0.821   6.481   5.433  2.2088 -0.9854 -0.8897
16413TIP3    H270655   0.861   6.593   5.526  1.7184  1.7657 -3.8235
16414TIP3   OH270656   3.342   6.518   2.372 -0.4343 -0.2802 -0.5040
16414TIP3    H170657   3.263   6.551   2.329 -0.3706 -1.0020 -1.1777
16414TIP3    H270658   3.413   6.573   2.338 -0.3671 -0.9240 -1.4146
16415TIP3   OH270659   2.138   5.096   0.450  0.2709  0.2439  0.3067
16415TIP3    H170660   2.108   5.068   0.536  0.3580 -0.6511  0.0602
16415TIP3    H270661   2.213   5.040   0.432 -1.0175 -1.0765 -1.2485
16416TIP3   OH270662   3.534   4.733  16.016 -0.2502  0.1275 -0.2778
16416TIP3    H170663   3.563   4.659  15.963  1.3375 -0.6590  1.5979
16416TIP3    H270664   3.444   4.749  15.988  0.1929 -0.8893 -2.4623
16417TIP3   OH270665   3.518   0.423   2.256  0.0585 -0.4696 -0.0744
16417TIP3    H170666   3.429   0.458   2.256  0.6813  1.2147 -0.5394
16417TIP3    H270667   3.523   0.371   2.176 -0.8179 -1.4563  0.4975
16418TIP3   OH270668   2.784   1.471  16.853  0.2034  0.6586 -0.3431
16418TIP3    H170669   2.750   1.384  16.871  2.5557 -0.0712  1.0617
16418TIP3    H270670   2.742   1.527  16.919  0.8943 -0.0256  0.7201
16419TIP3   OH270671   0.889   1.767   0.505 -0.2498 -0.6158 -0.3179
16419TIP3    H170672   0.884   1.675   0.479  1.4683 -0.8202 -0.0670
16419TIP3    H270673   0.870   1.816   0.424 -1.0917 -1.1805 -0.4692
16420TIP3   OH270674   2.907   2.630   2.738  0.3507  0.2802 -0.9169
16420TIP3    H170675   2.921   2.536   2.731  1.9286  0.5540 -2.1190
16420TIP3    H270676   2.913   2.662   2.648 -0.4811  1.5054 -0.5646
16421TIP3   OH270677   6.557   3.992  15.783 -0.3245  0.0144  0.5726
16421TIP3    H170678   6.516   4.075  15.760 -0.3313 -0.1341  0.0326
16421TIP3    H270679   6.610   3.969  15.707  1.1236  0.4107  1.4197
16422TIP3   OH270680   2.413   0.654   2.260  0.0931  0.2680 -0.4203
16422TIP3    H170681   2.500   0.674   2.227  0.2836  0.2261  0.0506
16422TIP3    H270682   2.397   0.564   2.231 -0.0570  0.4961 -1.0526
16423TIP3   OH270683   0.381   2.762   3.378  0.4332  0.1711  0.5092
16423TIP3    H170684   0.307   2.749   3.437 -0.3694 -1.3395 -0.7543
16423TIP3    H270685   0.401   2.674   3.345  2.6503  0.5622  0.6107
16424TIP3   OH270686   3.043   0.410   2.085  0.4781 -0.1697 -0.4154
16424TIP3    H170687   2.977   0.342   2.072  0.7268 -0.3602 -0.7116
16424TIP3    H270688   3.004   0.489   2.047 -0.0370 -0.0114  0.4305
16425TIP3   OH270689   0.545   1.250  15.555 -0.4941  0.1067  0.2952
16425TIP3    H170690   0.552   1.169  15.504  0.1210 -0.6906  1.5870
16425TIP3    H270691   0.456   1.281  15.539 -0.8256 -0.9622 -0.0333
16426TIP3   OH270692   2.600   2.459   1.466 -0.4669  0.3856  0.2190
16426TIP3    H170693   2.639   2.460   1.379 -1.3113  0.3946 -0.1656
16426TIP3    H270694   2.577   2.551   1.483  0.2825  0.4910  0.7305
16427TIP3   OH270695   5.055   2.076  16.332 -0.3560 -0.3805 -0.3834
16427TIP3    H170696   5.089   2.125  16.407 -1.5151 -0.1890  0.0307
16427TIP3    H270697   5.112   1.999  16.326  0.9799  0.5763 -0.5485
16428TIP3   OH270698   0.086   3.240  14.865 -0.1378 -0.4968 -0.2806
16428TIP3    H170699   0.163   3.200  14.907  0.1176  1.5533  1.3636
16428TIP3    H270700   0.011   3.203  14.911  0.0955  0.7406  1.1828
16429TIP3   OH270701   1.891   6.232  15.522  0.1454  0.2599 -0.6540
16429TIP3    H170702   1.938   6.180  15.587 -0.6666  1.8891  1.3622
16429TIP3    H270703   1.946   6.310  15.509 -0.9980  1.2717  0.2813
16430TIP3   OH270704   0.462   4.840  15.304 -0.6214  0.1652 -0.4353
16430TIP3    H170705   0.417   4.909  15.256  0.3696  0.5105 -0.8886
16430TIP3    H270706   0.499   4.783  15.237  1.1736  0.9077 -0.1461
16431TIP3   OH270707   2.783   1.729   0.336  0.6505 -0.2142  0.1346
16431TIP3    H170708   2.704   1.697   0.380  0.8412 -0.3997  0.3482
16431TIP3    H270709   2.836   1.768   0.405  1.2275 -1.0528  0.1877
16432TIP3   OH270710   1.167   3.596  10.888  0.3371  0.0480 -0.8083
16432TIP3    H170711   1.223   3.549  10.826  0.8374 -0.1510 -0.2129
16432TIP3    H270712   1.196   3.687  10.883  0.0433  0.1241 -1.2203
16433TIP3   OH270713   1.309   4.318   2.064 -0.7782  0.2179  0.1436
16433TIP3    H170714   1.269   4.336   2.149  2.2201  0.9994  1.5130
16433TIP3    H270715   1.396   4.357   2.069  1.3147 -3.6523 -1.5347
16434TIP3   OH270716   3.890   4.383  14.913 -0.5527  0.1012 -0.1455
16434TIP3    H170717   3.931   4.351  14.993 -0.0973  1.8038  0.3469
16434TIP3    H270718   3.823   4.444  14.943  2.1787  3.8851 -0.9155
16435TIP3   OH270719   2.572   6.242  12.705 -0.2663  0.4182  0.0106
16435TIP3    H170720   2.488   6.198  12.697  0.7072 -1.2612 -2.0252
16435TIP3    H270721   2.601   6.222  12.794 -1.1095 -0.7590  0.0400
16436TIP3   OH270722   4.876   5.188   0.320 -0.2250 -0.4317 -0.1044
16436TIP3    H170723   4.815   5.254   0.287 -0.7831 -0.6183  0.5323
16436TIP3    H270724   4.824   5.136   0.381  0.2641 -1.3427 -0.4541
16437TIP3   OH270725   6.256   2.089  14.316  0.3313 -0.3524 -0.0427
16437TIP3    H170726   6.336   2.078  14.368 -0.1856  0.9795  1.0629
16437TIP3    H270727   6.288   2.109  14.228  1.2695  1.7038  0.7050
16438TIP3   OH270728   0.625   0.857   5.206 -0.1989  0.1401  0.2195
16438TIP3    H170729   0.669   0.845   5.122 -1.6488  0.3981 -0.6000
16438TIP3    H270730   0.696   0.854   5.271  1.3273  2.5179 -1.1996
16439TIP3   OH270731   0.481   2.948  14.347 -0.9541  0.0340  0.4931
16439TIP3    H170732   0.462   2.928  14.255  1.4488  0.0030 -0.0614
16439TIP3    H270733   0.551   2.888  14.371 -0.3409  1.2087  1.8093
16440TIP3   OH270734   2.930   6.377  15.304  0.1980 -0.8058 -0.2196
16440TIP3    H170735   2.877   6.419  15.372  2.1244  2.3592 -0.4776
16440TIP3    H270736   2.920   6.283  15.321  1.2009 -0.2919  5.0345
16441TIP3   OH270737   4.665   1.276   5.095  0.0406  0.4964 -0.0456
16441TIP3    H170738   4.708   1.211   5.151 -1.3705 -0.4052  0.0376
16441TIP3    H270739   4.614   1.224   5.033 -0.5183  1.5313 -0.4747
16442TIP3   OH270740   4.327   5.372   3.338  0.0109  0.1726 -0.2907
16442TIP3    H170741   4.295   5.282   3.347  0.8349 -0.1699 -0.7080
16442TIP3    H270742   4.356   5.378   3.247 -1.1677  1.2428 -0.6244
16443TIP3   OH270743   2.112   1.418  12.430  0.4587  0.1756 -0.7793
16443TIP3    H170744   2.143   1.444  12.517  1.2131 -0.5923 -0.8019
16443TIP3    H270745   2.186   1.436  12.372  0.8806 -1.5625 -0.8541
16444TIP3   OH270746   2.034   2.136   4.623 -0.1501  0.1300 -0.0682
16444TIP3    H170747   2.114   2.083   4.617  0.0589  0.4607 -0.2533
16444TIP3    H270748   1.973   2.082   4.672  0.1002 -0.2377 -0.1567
16445TIP3   OH270749   5.331   0.942   1.000  0.4965 -0.3993  0.3350
16445TIP3    H170750   5.336   0.868   1.062  0.2047 -1.0207 -0.3690
16445TIP3    H270751   5.319   1.019   1.056 -2.3440 -1.2009  0.9757
16446TIP3   OH270752   4.838   2.844  14.353 -0.1866 -0.0737 -0.2281
16446TIP3    H170753   4.848   2.757  14.315  2.0727  0.5738 -1.2657
16446TIP3    H270754   4.901   2.898  14.307  0.7336  1.4173  2.5321
16447TIP3   OH270755   4.672   0.097   1.598 -0.8233  0.3798 -0.2685
16447TIP3    H170756   4.692   0.055   1.515  0.5715 -0.6085  0.5249
16447TIP3    H270757   4.663   0.190   1.576  1.7201  0.4750 -1.2279
16448TIP3   OH270758   6.431   4.870   1.316 -0.1418  0.1037  0.1043
16448TIP3    H170759   6.416   4.893   1.407  0.5504  1.8830 -0.1912
16448TIP3    H270760   6.442   4.774   1.316 -1.1830 -0.0434  1.7069
16449TIP3   OH270761   2.071   6.108   2.875  0.0875 -0.1971  0.0017
16449TIP3    H170762   2.007   6.097   2.805 -0.5882  1.5263  0.2850
16449TIP3    H270763   2.039   6.184   2.924  1.8104  0.0751  0.7697
16450TIP3   OH270764   0.535   4.116  11.034 -0.2695 -0.5628 -0.2109
16450TIP3    H170765   0.552   4.036  10.984  0.1364 -0.4301 -0.2814
16450TIP3    H270766   0.521   4.085  11.123  0.9466 -0.6134 -0.0324
16451TIP3   OH270767   2.149   3.891   1.295  0.0693 -0.6233 -0.1525
16451TIP3    H170768   2.216   3.826   1.316  2.1418  0.8805 -1.6445
16451TIP3    H270769   2.193   3.975   1.305 -0.7907  0.3898 -3.4355
16452TIP3   OH270770   0.522   2.594   5.755 -0.7946  0.1128  0.3481
16452TIP3    H170771   0.550   2.521   5.700  0.8443 -1.1101  2.6000
16452TIP3    H270772   0.436   2.619   5.721 -0.8580 -2.0309 -1.2838
16453TIP3   OH270773   2.627   3.612  13.301 -0.1851 -0.3213  0.8068
16453TIP3    H170774   2.598   3.550  13.368 -0.6810  0.9237  1.7683
16453TIP3    H270775   2.587   3.580  13.220  0.6494 -1.9996  1.0193
16454TIP3   OH270776   4.151   2.893   4.112 -0.2521 -0.7238 -0.0126
16454TIP3    H170777   4.231   2.914   4.065  0.1863  1.6571  1.6452
16454TIP3    H270778   4.094   2.968   4.097 -0.4407 -0.3133  2.3964
16455TIP3   OH270779   0.512   6.773  11.453 -0.0524  0.0755  0.4162
16455TIP3    H170780   0.570   6.798  11.525 -0.0016 -0.5583  0.6018
16455TIP3    H270781   0.562   6.706  11.406 -0.4524 -0.1470  0.3120
16456TIP3   OH270782   4.255   3.722   1.593 -0.2947  0.7111 -0.0700
16456TIP3    H170783   4.199   3.761   1.526 -1.0267  0.0338  0.1285
16456TIP3    H270784   4.333   3.693   1.546 -0.9300 -0.0249 -0.6872
16457TIP3   OH270785   2.895   4.507  11.091 -0.5341 -0.3865  0.4689
16457TIP3    H170786   2.811   4.470  11.116 -1.0150 -0.9122 -1.7026
16457TIP3    H270787   2.875   4.593  11.055  0.0165  0.0052  1.0733
16458TIP3   OH270788   6.133   1.044  14.136 -0.6726  0.1239 -0.2364
16458TIP3    H170789   6.188   0.974  14.173 -1.9172 -1.2704 -0.9237
16458TIP3    H270790   6.195   1.099  14.088  0.1720 -1.3893 -0.9767
16459TIP3   OH270791   0.339   1.809   4.538  0.4876  0.0478  0.2951
16459TIP3    H170792   0.294   1.778   4.617 -1.2597 -3.1548 -1.7410
16459TIP3    H270793   0.380   1.731   4.501  0.0877  1.0879 -2.6420
16460TIP3   OH270794   0.697   1.100   6.234 -0.2779  0.3043  0.1923
16460TIP3    H170795   0.735   1.161   6.171 -0.1485  0.6124  0.5652
16460TIP3    H270796   0.616   1.141   6.262 -0.5637 -0.0482 -0.1144
16461TIP3   OH270797   0.021   6.416  13.697 -0.3977  0.2570  0.0704
16461TIP3    H170798  -0.061   6.455  13.667 -1.4798 -1.4635  0.6767
16461TIP3    H270799   0.013   6.323  13.677  1.4512  0.0575  0.0806
16462TIP3   OH270800   3.648   0.209   5.605 -0.0790  0.9133 -0.2225
16462TIP3    H170801   3.630   0.225   5.698 -1.7556 -0.0642 -0.3484
16462TIP3    H270802   3.700   0.285   5.578  0.2420  1.3329  1.4515
16463TIP3   OH270803   0.514   2.180   3.979  0.1112  0.2381 -0.1483
16463TIP3    H170804   0.471   2.187   4.064  1.1414  0.2648  0.3856
16463TIP3    H270805   0.456   2.228   3.919 -0.5864  0.2832  0.5475
16464TIP3   OH270806   4.101   0.181   0.432  0.2791 -0.5760 -0.1588
16464TIP3    H170807   4.025   0.153   0.484  0.3930  0.2215  0.4599
16464TIP3    H270808   4.127   0.264   0.471  0.2400  0.1645 -1.6590
16465TIP3   OH270809   5.746   3.135   0.461 -0.0751 -0.1152  0.8397
16465TIP3    H170810   5.757   3.191   0.538  0.5550 -0.4965  1.0326
16465TIP3    H270811   5.715   3.194   0.393 -1.7872  0.0312  1.6884
16466TIP3   OH270812   5.241   0.800  10.816  0.0983  0.6982 -0.0908
16466TIP3    H170813   5.324   0.757  10.796  0.1064  0.9588 -0.6289
16466TIP3    H270814   5.256   0.892  10.796 -0.2403  0.7897  0.0674
16467TIP3   OH270815   0.939   0.917  12.032 -0.0151  0.2722 -0.1508
16467TIP3    H170816   0.958   0.960  11.948  0.1574 -0.2966 -0.4076
16467TIP3    H270817   0.928   0.989  12.094  0.5615  0.6837 -0.5192
16468TIP3   OH270818   5.544   2.428  13.914 -0.3311 -0.4889 -0.3890
16468TIP3    H170819   5.639   2.441  13.903 -0.2374 -1.0838 -0.3056
16468TIP3    H270820   5.511   2.515  13.938  0.1572 -0.2239 -0.6636
16469TIP3   OH270821   5.041   5.867  11.399  0.5538 -0.4622  0.1060
16469TIP3    H170822   5.019   5.940  11.342 -0.9663 -0.4858  0.6394
16469TIP3    H270823   5.133   5.884  11.424  0.3162  1.1260  0.0264
16470TIP3   OH270824   4.559   5.590  15.125  0.1324 -0.3762  0.1047
16470TIP3    H170825   4.591   5.651  15.058 -1.8034  1.2340  0.5539
16470TIP3    H270826   4.516   5.520  15.074  0.2723 -0.1299 -0.3612
16471TIP3   OH270827   4.665   4.878   2.795  0.1806 -0.5953  0.0623
16471TIP3    H170828   4.614   4.950   2.759 -2.5483 -1.6885  1.5176
16471TIP3    H270829   4.682   4.821   2.720 -2.2181 -1.0026 -0.2460
16472TIP3   OH270830   3.851   3.546   5.674  0.0159  0.0692 -0.0395
16472TIP3    H170831   3.831   3.483   5.744  2.8314 -0.1442  0.6884
16472TIP3    H270832   3.861   3.491   5.595  1.9228 -0.4171  0.4852
16473TIP3   OH270833   2.591   4.175  16.655 -0.2254  0.2125 -0.0406
16473TIP3    H170834   2.551   4.261  16.639 -0.1395  0.5028  1.2031
16473TIP3    H270835   2.522   4.113  16.633 -1.0245  0.6796  1.0364
16474TIP3   OH270836   0.912   6.317   4.758  0.2140 -0.3636 -0.1828
16474TIP3    H170837   0.844   6.384   4.766  1.7604  1.3448 -0.7243
16474TIP3    H270838   0.865   6.234   4.767 -1.6984  0.7801  1.0645
16475TIP3   OH270839   3.216   2.510   4.799  0.3874 -0.2778  0.0978
16475TIP3    H170840   3.283   2.447   4.825  0.8013 -0.1883 -0.7124
16475TIP3    H270841   3.150   2.457   4.753  1.2660 -0.0003 -1.5532
16476TIP3   OH270842   0.604   6.200  12.100  0.1941 -0.8136  0.1762
16476TIP3    H170843   0.654   6.136  12.150  0.5264  0.5856  1.7256
16476TIP3    H270844   0.513   6.170  12.106 -0.0789  0.2416  3.3014
16477TIP3   OH270845   2.632   3.540   1.386  0.1063  0.1367 -0.1202
16477TIP3    H170846   2.633   3.632   1.361 -1.1456 -0.0976 -1.1594
16477TIP3    H270847   2.554   3.531   1.441 -0.2126 -0.4244 -0.6445
16478TIP3   OH270848   6.556   5.274  11.538 -1.1180 -0.4195 -0.9419
16478TIP3    H170849   6.500   5.302  11.611 -1.5994 -0.0718 -1.4434
16478TIP3    H270850   6.495   5.237  11.474 -0.6330 -1.3106 -0.9058
16479TIP3   OH270851   4.538   2.016   3.816 -1.0831  0.5311  0.4497
16479TIP3    H170852   4.609   1.958   3.845  0.3997  1.4369 -1.2065
16479TIP3    H270853   4.489   1.964   3.753 -0.1357  0.8179 -0.5565
16480TIP3   OH270854   3.477   0.905   2.419  1.0862  0.2060  0.2176
16480TIP3    H170855   3.519   0.820   2.414  0.1942 -0.2258 -0.1474
16480TIP3    H270856   3.447   0.923   2.330 -2.0647 -0.8647  0.9432
16481TIP3   OH270857   2.757   6.718   2.195 -0.2051 -0.4056  0.7609
16481TIP3    H170858   2.736   6.809   2.218 -1.8986 -1.0914  2.1025
16481TIP3    H270859   2.769   6.675   2.279  3.2660 -0.9190  0.1457
16482TIP3   OH270860   3.232   0.871   5.713 -0.2058  0.2284  0.2459
16482TIP3    H170861   3.161   0.867   5.777 -0.4577  0.4392 -0.0187
16482TIP3    H270862   3.277   0.953   5.731 -1.9284  1.6843 -1.5617
16483TIP3   OH270863   0.348   2.188  16.076  0.1333  0.2580 -0.5689
16483TIP3    H170864   0.332   2.095  16.061  0.6638  0.3640 -1.8462
16483TIP3    H270865   0.378   2.192  16.167 -1.6724 -0.5838  0.1035
16484TIP3   OH270866   1.455   2.075   3.799  1.0280  0.1826  0.2609
16484TIP3    H170867   1.416   2.104   3.881  0.8857 -1.4074  0.7948
16484TIP3    H270868   1.545   2.107   3.803  0.7290  1.0277  0.5336
16485TIP3   OH270869   2.962   3.863   4.380 -0.1372 -0.7649 -0.2862
16485TIP3    H170870   2.906   3.787   4.367  0.6556 -1.6126  1.0577
16485TIP3    H270871   2.977   3.866   4.474  0.5019  0.5969 -0.4062
16486TIP3   OH270872   1.887   5.414  14.167  0.0639  0.0227  0.1528
16486TIP3    H170873   1.829   5.454  14.232  0.0377 -1.5144  1.1539
16486TIP3    H270874   1.945   5.485  14.139 -1.6191  1.3405 -0.1043
16487TIP3   OH270875   5.690   3.198   4.053  0.6171 -0.4690  0.0538
16487TIP3    H170876   5.687   3.200   3.957  2.8432  3.5509 -0.1641
16487TIP3    H270877   5.602   3.225   4.080  0.4473  0.0513 -0.9515
16488TIP3   OH270878   3.150   3.027   0.934  0.2101 -0.1126  0.4422
16488TIP3    H170879   3.227   3.023   0.877  0.5070 -0.1694  0.8481
16488TIP3    H270880   3.159   3.111   0.980 -0.2864  0.1654  0.0508
16489TIP3   OH270881   5.644   0.793   3.656 -0.4616 -0.0094  0.5392
16489TIP3    H170882   5.654   0.888   3.647 -2.1227  0.2641  1.1608
16489TIP3    H270883   5.559   0.782   3.698 -0.6741 -1.8228 -0.2818
16490TIP3   OH270884   4.570   0.460  15.521 -0.2360 -0.2158 -0.2572
16490TIP3    H170885   4.661   0.479  15.499 -0.2835  0.2442 -0.0753
16490TIP3    H270886   4.555   0.372  15.487  0.0649 -0.0156 -0.9331
16491TIP3   OH270887   2.044   1.824  11.426  0.1104 -0.7599  0.1426
16491TIP3    H170888   2.032   1.729  11.431 -0.3299 -0.6620  1.7524
16491TIP3    H270889   1.994   1.850  11.349 -3.5069 -1.3959  2.0085
16492TIP3   OH270890   4.378   4.475  15.663  0.1850  0.1886 -0.3532
16492TIP3    H170891   4.307   4.533  15.689 -0.4293 -0.7683  0.1944
16492TIP3    H270892   4.425   4.523  15.595 -0.9977  0.8393 -0.7456
16493TIP3   OH270893   1.127   3.784  12.534  0.3978  0.1932  0.1829
16493TIP3    H170894   1.147   3.756  12.624 -0.5399  0.0713  0.3653
16493TIP3    H270895   1.051   3.841  12.544 -0.3283 -0.6041 -0.6374
16494TIP3   OH270896   5.190   2.496  16.441  0.8089 -0.0700  0.2899
16494TIP3    H170897   5.188   2.589  16.465  0.2578 -0.0742  0.2679
16494TIP3    H270898   5.098   2.472  16.430  0.9600 -0.5680  0.0944
16495TIP3   OH270899   5.750   6.622   0.642 -0.4352 -0.2190 -0.0719
16495TIP3    H170900   5.784   6.537   0.671  2.1435  0.2381 -1.4635
16495TIP3    H270901   5.787   6.634   0.555 -1.2335  2.0794 -0.1506
16496TIP3   OH270902   5.248   1.667  10.804 -0.5541 -0.1518 -0.1323
16496TIP3    H170903   5.301   1.736  10.766 -0.1864  0.6833  1.8251
16496TIP3    H270904   5.192   1.638  10.731  2.6574 -1.2781 -2.3706
16497TIP3   OH270905   5.500   2.350   2.489 -0.4550  0.4363  0.3412
16497TIP3    H170906   5.521   2.383   2.402 -0.2685 -1.1207 -0.2416
16497TIP3    H270907   5.429   2.406   2.520  0.1862  1.6868 -0.3502
16498TIP3   OH270908   2.974   4.583  10.649 -0.1471  0.1299  0.3017
16498TIP3    H170909   2.900   4.523  10.644 -1.9827  2.2211  0.6119
16498TIP3    H270910   2.935   4.667  10.673  2.2112  1.5751 -0.5424
16499TIP3   OH270911   2.894   5.042  12.132 -0.1718  0.2684 -0.1853
16499TIP3    H170912   2.856   4.954  12.120 -1.2370  0.6210  0.4767
16499TIP3    H270913   2.850   5.076  12.210 -2.1327  2.5932 -2.1362
16500TIP3   OH270914   1.893   2.240   3.083  0.2202 -0.0872 -0.8080
16500TIP3    H170915   1.977   2.255   3.040  0.3682  3.7708  0.4514
16500TIP3    H270916   1.916   2.211   3.172  0.2212 -0.0283 -0.7884
16501TIP3   OH270917   4.410   0.553  12.438  0.1932 -0.2422 -0.4794
16501TIP3    H170918   4.413   0.552  12.342  0.1202 -1.3924 -0.4787
16501TIP3    H270919   4.431   0.464  12.464  2.7944  0.5869  0.6747
16502TIP3   OH270920   2.808   3.512   0.149 -0.0827 -0.2220 -0.0542
16502TIP3    H170921   2.779   3.572   0.080  1.2019  0.5866  0.0758
16502TIP3    H270922   2.763   3.542   0.228 -2.0399 -1.5252 -0.5934
16503TIP3   OH270923   0.785   6.186  16.685  0.0797  0.0216  0.1122
16503TIP3    H170924   0.719   6.207  16.751 -1.3528  0.7921 -1.4804
16503TIP3    H270925   0.735   6.150  16.611  1.5026  0.0554 -0.9167
16504TIP3   OH270926   6.527   0.420  12.204  0.4090  0.3870  0.5296
16504TIP3    H170927   6.537   0.507  12.241  1.0207  0.4405  0.2609
16504TIP3    H270928   6.587   0.419  12.129  0.0336 -0.0949  0.2280
16505TIP3   OH270929   4.368   4.213   0.718 -0.2833  0.0768  0.2620
16505TIP3    H170930   4.408   4.157   0.784 -2.2208  0.4733  1.8726
16505TIP3    H270931   4.310   4.155   0.669  0.0083  0.0836 -0.0955
16506TIP3   OH270932   3.616   1.061  15.761  0.2568 -0.1428  0.8558
16506TIP3    H170933   3.550   1.128  15.746  1.2147  0.7906  0.7135
16506TIP3    H270934   3.692   1.108  15.794  0.8621 -1.1940  1.0175
16507TIP3   OH270935   0.531   2.499  16.833  0.4151  0.2971 -0.2881
16507TIP3    H170936   0.483   2.581  16.843  1.6433  1.1595 -1.1352
16507TIP3    H270937   0.503   2.445  16.907 -0.6538  1.3530  0.1067
16508TIP3   OH270938   2.204   1.146  14.842  0.0421 -0.3042  0.2920
16508TIP3    H170939   2.199   1.097  14.924 -0.4892 -0.6039  0.0873
16508TIP3    H270940   2.134   1.211  14.849 -0.1008 -0.4276  0.0165
16509TIP3   OH270941   4.249   0.558  10.904 -0.4323 -0.1132  0.3540
16509TIP3    H170942   4.240   0.643  10.947 -1.9926  0.5820 -1.2216
16509TIP3    H270943   4.281   0.580  10.816 -0.5087 -1.2004  0.0431
16510TIP3   OH270944   6.193   6.321  15.589  0.2795  0.2215  0.0907
16510TIP3    H170945   6.124   6.313  15.654 -0.6493  0.4476 -0.8374
16510TIP3    H270946   6.148   6.347  15.509  1.1044 -1.8848 -1.1481
16511TIP3   OH270947   6.510   5.831  16.068  0.0234 -0.2782  0.2541
16511TIP3    H170948   6.470   5.745  16.079 -0.7129 -0.0450 -0.4819
16511TIP3    H270949   6.534   5.835  15.976  1.5417 -0.3126  0.6276
16512TIP3   OH270950   6.656   6.382   0.354  0.3365  0.4835 -0.2749
16512TIP3    H170951   6.700   6.467   0.350 -0.7865  1.1175  0.3413
16512TIP3    H270952   6.650   6.354   0.263  0.3800  1.2396 -0.5189
16513TIP3   OH270953   6.102   0.425   1.953  0.1902  0.0759 -0.1050
16513TIP3    H170954   6.128   0.501   2.006  1.3279 -1.3264  1.4682
16513TIP3    H270955   6.171   0.417   1.887  0.6238 -0.1764  0.3715
16514TIP3   OH270956   5.098   3.833   5.911 -0.0955 -0.6305 -0.5164
16514TIP3    H170957   5.153   3.779   5.967 -0.9917 -1.4962 -0.4456
16514TIP3    H270958   5.027   3.863   5.968 -1.3562 -2.0290 -1.2849
16515TIP3   OH270959   4.947   4.052   4.390 -0.5006  0.5247 -0.2991
16515TIP3    H170960   5.033   4.092   4.404  0.0814 -0.7608 -0.1015
16515TIP3    H270961   4.931   4.060   4.296  1.0759 -1.6132 -0.8097
16516TIP3   OH270962   2.950   6.716   0.721  0.0539  0.4209 -0.5039
16516TIP3    H170963   2.920   6.793   0.769  1.0333  1.7430 -1.8945
16516TIP3    H270964   2.933   6.643   0.780 -1.4430  1.6094  0.6490
16517TIP3   OH270965   6.306   1.227   2.285 -0.2765 -0.6172  0.0196
16517TIP3    H170966   6.304   1.276   2.203  3.0953 -0.0998  0.1033
16517TIP3    H270967   6.269   1.142   2.263  1.6178 -0.9051 -2.4213
16518TIP3   OH270968   0.635   2.741   0.531  0.0741  0.0106 -0.0801
16518TIP3    H170969   0.651   2.647   0.524 -0.7820 -0.0687 -1.4515
16518TIP3    H270970   0.616   2.768   0.441  1.3882  1.7215  0.1154
16519TIP3   OH270971   3.101   0.777  12.301 -0.1462  0.3478 -0.2644
16519TIP3    H170972   3.072   0.807  12.387  1.2495  0.9095  0.0263
16519TIP3    H270973   3.040   0.707  12.279 -0.6919  0.3766  1.0493
16520TIP3   OH270974   3.683   6.774  11.153 -0.0288  0.0329  0.0626
16520TIP3    H170975   3.632   6.730  11.085  1.3197 -2.6053  0.6576
16520TIP3    H270976   3.635   6.754  11.234 -1.2813  2.6378  0.0732
16521TIP3   OH270977   3.100   5.705  14.671 -0.4414  0.6004 -0.4226
16521TIP3    H170978   3.118   5.618  14.707 -0.2890  1.3982  1.5591
16521TIP3    H270979   3.005   5.713  14.674 -0.3790  1.2273  1.3770
16522TIP3   OH270980   3.076   2.308   5.415 -0.7608 -0.1699 -0.4962
16522TIP3    H170981   3.135   2.278   5.346 -0.3517  1.1864 -0.7595
16522TIP3    H270982   3.068   2.232   5.473  0.1308 -0.8295 -1.1931
16523TIP3   OH270983   5.356   0.921  14.044 -0.5660  0.2131 -0.0278
16523TIP3    H170984   5.414   0.984  14.000 -2.5137  1.1144 -1.4404
16523TIP3    H270985   5.392   0.915  14.132  1.5492  0.8749 -0.7676
16524TIP3   OH270986   1.457   2.778  10.444 -0.3609  0.0611  0.3639
16524TIP3    H170987   1.478   2.871  10.459 -0.6744  0.1632  0.1722
16524TIP3    H270988   1.385   2.760  10.504 -0.1920 -0.1037  0.5180
16525TIP3   OH270989   5.674   0.122   0.196  0.1684 -0.3508 -0.0048
16525TIP3    H170990   5.581   0.098   0.186  0.4506 -1.5316  0.0805
16525TIP3    H270991   5.695   0.098   0.286  1.0771 -1.9814 -0.6264
16526TIP3   OH270992   4.129   5.488   5.147  0.1766  0.0671 -0.1907
16526TIP3    H170993   4.212   5.462   5.187 -0.5275 -0.5709  0.9009
16526TIP3    H270994   4.094   5.408   5.109 -0.4986  0.0767  0.3956
16527TIP3   OH270995   5.783   1.382   3.391 -0.4515 -0.9751 -0.7190
16527TIP3    H170996   5.806   1.429   3.471  2.3677 -0.2437 -1.8623
16527TIP3    H270997   5.830   1.299   3.397  1.9814  0.1224 -2.6404
16528TIP3   OH270998   5.438   4.539  13.154  0.3733  0.2603 -0.5882
16528TIP3    H170999   5.505   4.569  13.093 -2.4025  3.1318 -2.5637
16528TIP3    H271000   5.402   4.460  13.114  2.7974 -1.6955  0.8184
16529TIP3   OH271001   1.814   1.700  13.249  0.0861 -0.8128 -0.3544
16529TIP3    H171002   1.772   1.620  13.280 -0.5676 -0.3215  0.0411
16529TIP3    H271003   1.781   1.713  13.160 -2.0686  0.5442  0.5675
16530TIP3   OH271004   6.281   5.942  14.279 -0.5607 -0.0633 -0.2390
16530TIP3    H171005   6.366   5.936  14.324  0.6122 -2.2824 -2.4508
16530TIP3    H271006   6.304   5.967  14.189 -2.2423 -0.9075 -0.9400
16531TIP3   OH271007   1.429   3.860  16.555  0.1103  0.3853  0.0312
16531TIP3    H171008   1.455   3.792  16.493 -0.6466 -2.1506  2.3366
16531TIP3    H271009   1.335   3.848  16.567  0.3342  0.3625  2.1172
16532TIP3   OH271010   3.990   4.234   0.410 -0.0008 -0.2925 -0.4455
16532TIP3    H171011   3.955   4.268   0.327 -0.5985  2.6803  0.9074
16532TIP3    H271012   4.061   4.293   0.433 -0.4128 -0.5171  1.5952
16533TIP3   OH271013   0.079   2.646   2.787 -0.4704  0.0592  0.3677
16533TIP3    H171014   0.119   2.731   2.804  0.7314 -0.5393  0.6135
16533TIP3    H271015   0.009   2.639   2.853  0.3784  0.2423  1.3026
16534TIP3   OH271016   3.433   6.271   0.496 -0.2170  0.0159  0.4315
16534TIP3    H171017   3.409   6.298   0.585  1.3003  1.8345  0.3462
16534TIP3    H271018   3.518   6.227   0.507 -0.2400 -0.1609 -0.0758
16535TIP3   OH271019   3.882   5.203  15.703  0.1882 -0.4589  0.2070
16535TIP3    H171020   3.977   5.205  15.694  0.2398  3.2465  0.1246
16535TIP3    H271021   3.849   5.236  15.620 -1.3188 -2.5826 -0.1334
16536TIP3   OH271022   0.946   6.065  12.103 -0.1078 -0.1757 -0.4377
16536TIP3    H171023   1.003   6.011  12.048 -0.2520 -0.5835 -0.1924
16536TIP3    H271024   1.004   6.132  12.139  0.9745 -2.3417  2.2638
16537TIP3   OH271025   4.395   1.807  12.325  0.3607 -0.1416 -0.7962
16537TIP3    H171026   4.377   1.895  12.359 -0.5082 -0.4576 -0.4198
16537TIP3    H271027   4.393   1.751  12.403 -1.6148 -0.8767 -1.3346
16538TIP3   OH271028   1.234   2.864  15.771 -0.0387  0.2600 -0.3043
16538TIP3    H171029   1.142   2.849  15.794 -0.8723  1.1750 -2.6880
16538TIP3    H271030   1.266   2.926  15.837 -0.3835 -1.7611  1.9002
16539TIP3   OH271031   4.537   0.843   2.304 -0.0113  0.7398 -0.5862
16539TIP3    H171032   4.445   0.858   2.325 -0.1746  0.0556 -0.7820
16539TIP3    H271033   4.585   0.881   2.377 -0.4270  1.4762 -0.6810
16540TIP3   OH271034   6.701   1.932  14.523 -0.1371  0.2673 -0.0517
16540TIP3    H171035   6.707   1.943  14.618  0.4397 -0.6499  0.0395
16540TIP3    H271036   6.608   1.931  14.504 -0.2509  1.4148  0.3732
16541TIP3   OH271037   2.191   4.260  16.054  0.5076 -0.2825  0.6973
16541TIP3    H171038   2.153   4.274  16.141  2.4195  1.2566  1.3769
16541TIP3    H271039   2.217   4.168  16.053 -2.2562 -1.1266  0.5433
16542TIP3   OH271040   0.479   1.001  16.385 -0.5018  0.2474 -0.0650
16542TIP3    H171041   0.559   1.052  16.367  2.0457 -3.7657 -1.4683
16542TIP3    H271042   0.478   0.992  16.480  0.4180  0.7687  0.0128
16543TIP3   OH271043   4.393   0.897   1.068 -0.2508  0.0629 -0.1589
16543TIP3    H171044   4.388   0.891   1.163  0.5571 -0.1354 -0.1203
16543TIP3    H271045   4.479   0.861   1.046 -0.1669  0.6843 -0.9111
16544TIP3   OH271046   4.066   0.142  15.158  0.2077  0.3999  0.0859
16544TIP3    H171047   4.067   0.101  15.072 -0.6755  0.8604 -0.1481
16544TIP3    H271048   3.995   0.097  15.205 -0.1545  1.0182  0.1375
16545TIP3   OH271049   6.417   1.395  11.604  0.5388  0.0049 -0.2242
16545TIP3    H171050   6.322   1.408  11.611  0.6808  0.9666  0.1392
16545TIP3    H271051   6.441   1.355  11.688  0.4956  0.0266 -0.2009
16546TIP3   OH271052   1.508   6.539   2.123 -0.0385  0.2544  0.4589
16546TIP3    H171053   1.452   6.464   2.103  1.1839 -0.5110 -0.2938
16546TIP3    H271054   1.597   6.506   2.110  0.5407  1.8296  0.1386
16547TIP3   OH271055   6.330   4.110   2.980 -0.2349 -0.0290 -0.2232
16547TIP3    H171056   6.354   4.018   2.969  1.2119  0.3731 -0.6072
16547TIP3    H271057   6.372   4.136   3.063  3.1566  1.3929 -2.1786
16548TIP3   OH271058   3.045   1.519   6.117 -0.2340  0.2666 -0.2470
16548TIP3    H171059   3.022   1.608   6.089 -0.1954  0.7362  1.1458
16548TIP3    H271060   2.969   1.467   6.093 -0.7936  0.9208  0.0683
16549TIP3   OH271061   4.228   6.534  13.782 -0.5058  0.1673 -0.5207
16549TIP3    H171062   4.290   6.465  13.805  2.0740  1.9967 -1.5154
16549TIP3    H271063   4.190   6.561  13.865  1.2606  0.0218  0.3922
16550TIP3   OH271064   0.945   2.416  15.817 -0.0266  0.2142 -0.4233
16550TIP3    H171065   0.955   2.435  15.724 -0.3699  1.2281 -0.2694
16550TIP3    H271066   0.866   2.462  15.843  0.4950  0.6093  0.5391
16551TIP3   OH271067   4.385   4.780  16.801  0.1881 -0.1979  0.5490
16551TIP3    H171068   4.330   4.708  16.770 -0.5963  1.2307 -1.6467
16551TIP3    H271069   4.394   4.837  16.725  0.0377  2.4702  2.4022
16552TIP3   OH271070   3.883   5.566   0.003  0.0435 -0.3704  0.1547
16552TIP3    H171071   3.794   5.596  -0.016 -0.1257 -1.9507 -1.8880
16552TIP3    H271072   3.872   5.477   0.035  0.7011  0.6799  3.7767
16553TIP3   OH271073   6.536   5.850  14.696 -0.3328  0.3037 -1.0029
16553TIP3    H171074   6.540   5.897  14.612 -0.2775  0.9367 -0.6475
16553TIP3    H271075   6.460   5.887  14.740  0.1854  0.6430 -0.3757
16554TIP3   OH271076   2.441   3.529   4.043  0.7157  0.4090  0.3547
16554TIP3    H171077   2.464   3.615   4.077  0.4277  0.0114  1.6341
16554TIP3    H271078   2.357   3.542   3.999  1.1825  0.9748 -0.3814
16555TIP3   OH271079   2.103   3.062  11.339 -0.2540 -0.4546 -0.0373
16555TIP3    H171080   2.144   2.994  11.285 -0.2691 -1.2700  0.9487
16555TIP3    H271081   2.126   3.144  11.295  0.1127 -1.0655 -1.0246
16556TIP3   OH271082   3.154   5.939   2.001  0.1486 -0.2078  0.1007
16556TIP3    H171083   3.143   5.860   1.948  0.1306 -0.2414  0.1541
16556TIP3    H271084   3.116   6.009   1.948 -0.3361 -0.3250  0.2899
16557TIP3   OH271085   0.073   5.168   0.119  0.4816  0.4133 -0.3641
16557TIP3    H171086   0.010   5.164   0.047  2.0990 -2.7162 -1.8149
16557TIP3    H271087   0.049   5.094   0.175  1.6576  0.3780  0.1228
16558TIP3   OH271088   3.583   1.273  16.614  0.1943 -0.0805 -0.2476
16558TIP3    H171089   3.608   1.303  16.527 -1.7551  0.0448 -0.7999
16558TIP3    H271090   3.565   1.180  16.604  1.7869 -0.4906  0.4616
16559TIP3   OH271091   4.139   5.763   2.837 -0.2728  0.1798 -0.3571
16559TIP3    H171092   4.082   5.707   2.784  0.0707 -0.1254 -0.4012
16559TIP3    H271093   4.176   5.824   2.773  1.1326 -0.9867 -0.6975
16560TIP3   OH271094   5.917   4.144   5.739 -0.1259 -0.4871  0.4335
16560TIP3    H171095   5.895   4.174   5.651  1.8720 -1.2205 -0.3684
16560TIP3    H271096   5.896   4.051   5.739 -0.3430 -0.4407  0.8179
16561TIP3   OH271097   6.009   3.899  15.660  0.1102 -0.0294 -0.2727
16561TIP3    H171098   6.083   3.838  15.657  0.9615  0.9744 -0.2910
16561TIP3    H271099   5.938   3.849  15.700  0.7019 -1.1108 -0.5300
16562TIP3   OH271100   1.991   6.083  16.230 -0.0033 -0.1020  0.2251
16562TIP3    H171101   1.932   6.147  16.269  1.0822  1.0274  0.0993
16562TIP3    H271102   2.068   6.083  16.288  1.4771  1.3248 -1.6103
16563TIP3   OH271103   1.229   0.450   3.118 -0.3809  0.6529 -0.2590
16563TIP3    H171104   1.164   0.517   3.098  0.7308  1.6731 -0.5689
16563TIP3    H271105   1.301   0.467   3.057 -0.5609 -1.5926 -1.2150
16564TIP3   OH271106   0.510   0.965   4.765 -0.4683  0.0534 -0.1527
16564TIP3    H171107   0.522   1.030   4.696 -2.0779  2.2272  1.4889
16564TIP3    H271108   0.433   0.916   4.739 -1.6579  1.5119  0.4927
16565TIP3   OH271109   3.877   5.454   3.892 -0.3625  0.5898  0.3679
16565TIP3    H171110   3.895   5.425   3.803 -1.0937 -0.2903  0.4888
16565TIP3    H271111   3.833   5.538   3.881  0.7504  1.1408 -0.0333
16566TIP3   OH271112   4.483   4.343   4.760  0.5159  0.1620  0.1482
16566TIP3    H171113   4.553   4.406   4.747  1.0288 -0.2234  0.9728
16566TIP3    H271114   4.429   4.381   4.830 -0.7639  1.0009 -1.2448
16567TIP3   OH271115   0.094   0.943  15.286  0.4407 -0.3898 -0.3713
16567TIP3    H171116   0.001   0.921  15.280  0.7145 -1.2784 -1.9190
16567TIP3    H271117   0.139   0.859  15.293  1.1532  0.0246  0.2434
16568TIP3   OH271118   4.188   2.992  12.712 -0.3245  0.2754 -0.2167
16568TIP3    H171119   4.103   2.983  12.668 -0.3735  0.5298 -0.1775
16568TIP3    H271120   4.179   2.942  12.793 -0.2410 -0.1777 -0.4833
16569TIP3   OH271121   2.540   4.100  10.728 -0.5574  0.2848 -0.0838
16569TIP3    H171122   2.566   4.007  10.733  3.2859  1.2378  2.8113
16569TIP3    H271123   2.595   4.136  10.658 -1.8252  0.5081 -0.9974
16570TIP3   OH271124   4.911   3.833  15.523 -0.2420  0.1702  0.0249
16570TIP3    H171125   4.985   3.885  15.492 -1.2216  1.0002 -0.9582
16570TIP3    H271126   4.930   3.819  15.616  1.1454  0.3477 -0.2020
16571TIP3   OH271127   2.925   6.272  14.074 -0.1937 -0.7078 -0.3895
16571TIP3    H171128   2.919   6.264  14.169  1.1794 -0.9922 -0.3128
16571TIP3    H271129   3.006   6.228  14.051  0.5713  1.1671 -1.4588
16572TIP3   OH271130   1.577   1.576  14.178  0.4853 -0.1359  0.3996
16572TIP3    H171131   1.626   1.494  14.172  2.1493  0.9127 -1.4639
16572TIP3    H271132   1.509   1.568  14.111  1.3403  0.4213 -0.5479
16573TIP3   OH271133   0.751   0.706   1.310  0.6688 -0.2473  0.0513
16573TIP3    H171134   0.672   0.718   1.364  0.3670  3.4523 -0.9105
16573TIP3    H271135   0.823   0.701   1.373 -0.0878 -1.5304  0.8706
16574TIP3   OH271136   3.580   0.596  15.640  0.1350 -0.6210 -0.0787
16574TIP3    H171137   3.621   0.649  15.571 -1.0668 -0.2955 -0.5635
16574TIP3    H271138   3.586   0.651  15.718 -1.9986  0.7269 -0.7864
16575TIP3   OH271139   4.181   5.650  12.794 -0.2341 -0.0792  0.1787
16575TIP3    H171140   4.257   5.593  12.784  0.7142  1.4155 -2.1529
16575TIP3    H271141   4.217   5.732  12.826 -1.0359  0.2726  0.1880
16576TIP3   OH271142   0.627   6.359   3.164 -0.3119  0.3601  0.4749
16576TIP3    H171143   0.719   6.367   3.189 -0.3997  1.2435  0.5475
16576TIP3    H271144   0.579   6.377   3.245 -0.6014  3.0731 -0.2095
16577TIP3   OH271145   5.930   3.143   2.154 -0.2557 -0.2100  0.5154
16577TIP3    H171146   5.977   3.172   2.076  1.6845 -0.3198  1.5932
16577TIP3    H271147   5.929   3.047   2.147  0.4123 -0.2483  0.8837
16578TIP3   OH271148   2.165   2.275  11.638  0.2191  0.2827  0.1008
16578TIP3    H171149   2.241   2.271  11.580  0.4002 -0.1439  0.3620
16578TIP3    H271150   2.092   2.296  11.580  0.4333  0.0703 -0.2510
16579TIP3   OH271151   5.439   0.445  13.010  0.2379  0.2992 -0.5882
16579TIP3    H171152   5.423   0.496  12.931  0.6108 -0.3598 -1.0963
16579TIP3    H271153   5.351   0.426  13.044  0.0413 -0.1049 -1.2964
16580TIP3   OH271154   0.291   4.729  14.153 -0.6498  0.2769 -0.4788
16580TIP3    H171155   0.231   4.758  14.221 -1.8676 -0.7649 -1.0485
16580TIP3    H271156   0.353   4.801  14.143 -0.4172  0.4480  1.7109
16581TIP3   OH271157   6.478   3.123  15.332 -0.2893 -0.8100 -0.2807
16581TIP3    H171158   6.437   3.179  15.267 -1.4808  0.9304  1.8520
16581TIP3    H271159   6.549   3.079  15.285 -0.1456  1.4820 -2.3617
16582TIP3   OH271160   1.906   4.409   3.498  0.3923  0.2934  0.0554
16582TIP3    H171161   1.909   4.393   3.403  1.1630 -0.6913  0.2243
16582TIP3    H271162   1.813   4.415   3.519  0.1715 -0.7746 -0.5733
16583TIP3   OH271163   2.585   3.787   1.594  0.2975 -0.0279 -0.1668
16583TIP3    H171164   2.553   3.822   1.678  0.7560 -1.2898  0.5554
16583TIP3    H271165   2.629   3.706   1.618 -0.9799 -1.2699 -1.8291
16584TIP3   OH271166   1.742   6.800  12.359  0.2452  0.2144 -0.6036
16584TIP3    H171167   1.676   6.746  12.404  2.4890 -1.5036  0.8169
16584TIP3    H271168   1.718   6.890  12.383 -0.4694 -0.4747  1.5723
16585TIP3   OH271169   6.565   6.583   5.036  0.2718  0.0839  0.4014
16585TIP3    H171170   6.574   6.665   5.085  0.8789  0.8694 -0.9683
16585TIP3    H271171   6.471   6.572   5.025 -0.0400 -1.1147  3.2940
16586TIP3   OH271172   4.552   4.865   1.286  0.2245 -0.3435  0.3388
16586TIP3    H171173   4.494   4.887   1.214  0.2450  0.2113  0.4877
16586TIP3    H271174   4.628   4.824   1.245  0.1565 -0.1902  0.0608
16587TIP3   OH271175   0.482   1.813   5.753  0.4649 -0.5288  0.2921
16587TIP3    H171176   0.443   1.742   5.703  0.0833 -0.3955  0.3932
16587TIP3    H271177   0.414   1.881   5.755  0.8651 -0.1172  0.0976
16588TIP3   OH271178   5.749   2.427  12.505  0.0471 -0.1873 -0.3068
16588TIP3    H171179   5.782   2.516  12.519 -0.0483 -0.4769  2.1406
16588TIP3    H271180   5.785   2.402  12.420 -0.5770  2.4429 -1.4592
16589TIP3   OH271181   4.925   6.099  15.152  0.1749 -0.0261 -0.3571
16589TIP3    H171182   4.990   6.033  15.131 -1.1200 -2.3411  2.2644
16589TIP3    H271183   4.975   6.173  15.187  1.4775 -1.8581  1.8969
16590TIP3   OH271184   6.228   5.646  13.723 -0.2661  0.4203  0.1746
16590TIP3    H171185   6.254   5.736  13.742  3.6902 -0.8338  1.6034
16590TIP3    H271186   6.263   5.628  13.636  0.1760 -0.1452  0.4659
16591TIP3   OH271187   5.557   5.582  14.369 -0.2332  0.0356  0.3714
16591TIP3    H171188   5.488   5.529  14.409 -0.3548 -0.1322 -0.0508
16591TIP3    H271189   5.617   5.601  14.441 -1.3886  1.3024  1.0427
16592TIP3   OH271190   6.255   0.504   2.581 -0.8161 -0.2914  0.0280
16592TIP3    H171191   6.163   0.523   2.595 -0.5193  0.1525  1.5825
16592TIP3    H271192   6.286   0.473   2.666  0.6272  0.2932 -0.2557
16593TIP3   OH271193   3.820   2.850  13.716  0.3821  0.5137  0.2431
16593TIP3    H171194   3.780   2.930  13.683 -0.4716 -0.1039 -0.2669
16593TIP3    H271195   3.906   2.846  13.674  0.1626  0.8262 -0.2299
16594TIP3   OH271196   6.201   6.660   3.583 -0.2401 -0.4717  0.8142
16594TIP3    H171197   6.232   6.691   3.498  0.1160 -0.4591  0.9492
16594TIP3    H271198   6.159   6.576   3.563  2.0795 -1.7492  0.9583
16595TIP3   OH271199   2.019   2.970  13.674 -0.1459 -0.0853 -0.5840
16595TIP3    H171200   2.097   2.914  13.678 -0.8293 -0.9599  1.5495
16595TIP3    H271201   2.044   3.041  13.614  2.3696 -0.2217  0.1961
16596TIP3   OH271202   5.131   5.158   6.142  0.0107 -0.4814 -0.1918
16596TIP3    H171203   5.102   5.230   6.199  0.5774 -1.3798  1.2955
16596TIP3    H271204   5.186   5.104   6.198  0.3652 -1.5838 -1.5426
16597TIP3   OH271205   4.894   1.278   4.781  0.2666 -0.5008 -0.0983
16597TIP3    H171206   4.931   1.192   4.800  1.5395  0.2179  0.8545
16597TIP3    H271207   4.960   1.322   4.728  0.6907  0.6693  1.3142
16598TIP3   OH271208   1.809   4.154   2.975  0.0061  0.1241  0.1872
16598TIP3    H171209   1.859   4.234   2.992 -0.6436  0.3653  1.0183
16598TIP3    H271210   1.796   4.154   2.880 -0.6278  1.4035  0.2559
16599TIP3   OH271211   6.353   5.921   5.651  0.0141  0.5570  0.5938
16599TIP3    H171212   6.382   5.919   5.742  0.0812 -0.8816  0.5671
16599TIP3    H271213   6.391   5.842   5.612 -0.2740  0.9816 -0.6069
16600TIP3   OH271214   6.324   5.223   5.692  0.0359  0.4479 -0.3995
16600TIP3    H171215   6.377   5.156   5.735 -0.9550  0.1750  0.4373
16600TIP3    H271216   6.333   5.204   5.598  0.3116 -0.4395 -0.2011
16601TIP3   OH271217   1.859   2.054  10.778  0.5021  0.0452 -0.2806
16601TIP3    H171218   1.874   2.049  10.684 -1.8831  0.7407 -0.7766
16601TIP3    H271219   1.820   1.970  10.801 -1.0754  0.6931 -0.4297
16602TIP3   OH271220   4.405   4.073  12.148  0.3709  0.2032  0.4389
16602TIP3    H171221   4.482   4.129  12.155 -0.8402  2.5420 -2.6377
16602TIP3    H271222   4.332   4.128  12.176 -0.6975 -0.1606 -1.4051
16603TIP3   OH271223   3.592   4.229   3.066  0.2061 -0.0667  0.5923
16603TIP3    H171224   3.678   4.197   3.093  1.0931  0.3068 -1.5821
16603TIP3    H271225   3.601   4.325   3.066 -1.2954  0.1789  3.5189
16604TIP3   OH271226   2.093   6.134  11.522 -0.0291  0.1173 -0.2251
16604TIP3    H171227   2.108   6.187  11.600 -0.5045 -1.8916  1.3490
16604TIP3    H271228   2.177   6.133  11.476  0.2520  1.3703  0.2433
16605TIP3   OH271229   4.366   0.682  11.793 -0.1343 -0.8076  0.1849
16605TIP3    H171230   4.405   0.696  11.879 -0.4318 -1.1145  0.3689
16605TIP3    H271231   4.285   0.733  11.794  0.4718  0.1931 -0.3565
16606TIP3   OH271232   4.764   2.327   1.779  0.8129  0.0757  0.7393
16606TIP3    H171233   4.832   2.386   1.747 -1.3736  3.3069  1.5640
16606TIP3    H271234   4.808   2.272   1.843  2.5200  2.9481  2.2588
16607TIP3   OH271235   2.447   2.503  16.152  0.9749  0.2003 -0.4072
16607TIP3    H171236   2.445   2.409  16.135  0.6653  0.5156 -2.3163
16607TIP3    H271237   2.360   2.534  16.125  1.6383  1.2665 -1.3706
16608TIP3   OH271238   1.395   4.443   3.364 -0.1965  0.2800  0.1757
16608TIP3    H171239   1.367   4.443   3.272  1.1799 -3.1505 -0.3928
16608TIP3    H271240   1.313   4.432   3.413 -0.7933  0.5302 -0.7305
16609TIP3   OH271241   1.821   2.888   2.398  0.0357 -0.1467 -0.9925
16609TIP3    H171242   1.730   2.858   2.400 -0.1698  0.4300  0.8630
16609TIP3    H271243   1.815   2.980   2.374 -0.0033  0.1643  0.1286
16610TIP3   OH271244   4.748   4.570  11.346  0.1990 -0.3478  0.1232
16610TIP3    H171245   4.714   4.490  11.386 -0.0593  0.7486  2.2304
16610TIP3    H271246   4.830   4.587  11.392  0.1336  0.7112 -0.1147
16611TIP3   OH271247   6.786   3.195   3.467 -0.2617  0.3819 -0.2054
16611TIP3    H171248   6.840   3.230   3.396  0.2761  0.4662  0.2362
16611TIP3    H271249   6.849   3.158   3.529 -0.7040  0.6294  0.4027
16612TIP3   OH271250   0.537   3.296  10.067  0.4692 -0.0620  0.3714
16612TIP3    H171251   0.586   3.303  10.149  3.0546 -1.3255 -0.9242
16612TIP3    H271252   0.490   3.213  10.073 -0.9195  0.7617  1.2937
16613TIP3   OH271253   3.872   6.530   5.264  0.1241 -0.2419 -0.8974
16613TIP3    H171254   3.951   6.478   5.272  0.8494  0.6541 -1.9124
16613TIP3    H271255   3.903   6.620   5.249 -1.0203  0.9913  2.8409
16614TIP3   OH271256   4.520   6.671  14.275  0.1155  0.1687  0.0489
16614TIP3    H171257   4.490   6.642  14.189 -1.7062  1.5482  0.1692
16614TIP3    H271258   4.545   6.763  14.262  2.9415 -0.4729  0.3253
16615TIP3   OH271259   1.349   2.405   3.750  0.1989 -0.4218 -0.0280
16615TIP3    H171260   1.335   2.499   3.753  0.2074 -0.4416  2.0145
16615TIP3    H271261   1.354   2.378   3.842 -0.6736 -2.5470 -0.5351
16616TIP3   OH271262   5.664   0.067  13.674 -0.5162 -0.2332  0.1743
16616TIP3    H171263   5.598   0.123  13.632 -0.8562  0.6294  1.7880
16616TIP3    H271264   5.746   0.093  13.633 -1.0249 -0.6273 -1.1596
16617TIP3   OH271265   6.553   0.893   5.206 -0.0056  0.2084  0.6195
16617TIP3    H171266   6.608   0.830   5.252  0.6781  1.0637  1.0234
16617TIP3    H271267   6.465   0.857   5.211  0.5354 -1.3057 -0.2340
16618TIP3   OH271268   6.083   6.590   1.529 -0.5338  0.6394 -0.5127
16618TIP3    H171269   5.994   6.626   1.526 -1.2399 -0.9310  0.4220
16618TIP3    H271270   6.094   6.561   1.619  0.4759 -0.2793 -0.9124
16619TIP3   OH271271   1.958   3.946  15.552  0.0890 -0.5307  0.6243
16619TIP3    H171272   1.935   3.853  15.544 -2.5914  0.0092  1.3018
16619TIP3    H271273   1.910   3.989  15.481  1.2113  0.3857  0.3910
16620TIP3   OH271274   5.987   4.239  10.289  0.1740  0.4075 -0.9592
16620TIP3    H171275   6.063   4.250  10.232 -0.0212  1.5472 -1.0137
16620TIP3    H271276   5.948   4.156  10.261  0.7376  0.3822 -1.7011
16621TIP3   OH271277   2.237   2.338  15.022 -0.3808 -0.6121  0.3086
16621TIP3    H171278   2.145   2.363  15.036 -0.3368  0.9300 -1.7040
16621TIP3    H271279   2.240   2.245  15.041 -2.2701 -0.5922  0.8681
16622TIP3   OH271280   2.578   1.597   0.463  0.1309  0.1576 -0.3213
16622TIP3    H171281   2.613   1.547   0.537  0.8379 -0.6299 -1.1675
16622TIP3    H271282   2.491   1.624   0.492  0.4216 -0.0729  0.8266
16623TIP3   OH271283   1.191   0.001   0.414  0.4304 -0.0744 -0.3553
16623TIP3    H171284   1.268  -0.044   0.378  1.3532  1.0288  0.1617
16623TIP3    H271285   1.227   0.063   0.478 -1.0455 -0.8766  1.3294
16624TIP3   OH271286   6.756   6.376   4.511  0.6811 -0.4292 -0.2059
16624TIP3    H171287   6.688   6.336   4.457  0.1869  2.0637 -1.5830
16624TIP3    H271288   6.709   6.435   4.569  1.6269  1.6782 -1.4945
16625TIP3   OH271289   5.209   1.514   1.277  0.1755 -0.2354  0.3169
16625TIP3    H171290   5.174   1.491   1.191  1.3225 -1.0812  0.0696
16625TIP3    H271291   5.243   1.603   1.266 -0.4859  0.0039  0.1524
16626TIP3   OH271292   0.377   3.449  11.083 -0.1153 -0.0225 -0.5371
16626TIP3    H171293   0.455   3.503  11.095  0.8160 -1.3053 -0.5265
16626TIP3    H271294   0.409   3.359  11.094 -0.7886 -0.9069 -4.4303
16627TIP3   OH271295   4.773   0.578  14.003 -0.5136  0.2292  0.2696
16627TIP3    H171296   4.702   0.639  14.022 -1.5911 -0.9424  0.1204
16627TIP3    H271297   4.743   0.495  14.039  1.2643 -0.0746  1.1597
16628TIP3   OH271298   5.171   4.924  14.035  0.3689 -0.6477  0.1458
16628TIP3    H171299   5.127   5.000  14.074  0.0397 -1.1106  0.7059
16628TIP3    H271300   5.242   4.961  13.983  0.6430  0.0139  0.9630
16629TIP3   OH271301   4.558   2.377  12.415 -0.0296 -0.0820  0.2008
16629TIP3    H171302   4.469   2.399  12.443  0.0778  0.8923 -0.1809
16629TIP3    H271303   4.582   2.302  12.469 -0.6930  0.3116  1.0733
16630TIP3   OH271304   5.808   4.983  13.821 -0.7086  0.3829  0.2851
16630TIP3    H171305   5.818   5.053  13.756 -0.7877  0.4333  0.3280
16630TIP3    H271306   5.803   4.903  13.768  0.9683  0.2359  0.2854
16631TIP3   OH271307   5.669   2.067  16.002  0.0647 -0.8942 -0.1723
16631TIP3    H171308   5.634   2.149  15.966  0.2714 -1.6085 -2.1067
16631TIP3    H271309   5.596   2.005  15.994  0.4501 -1.3257 -0.3519
16632TIP3   OH271310   4.242   3.780  16.914 -0.1427 -0.6059 -0.5031
16632TIP3    H171311   4.252   3.696  16.959 -0.5534 -0.4665 -0.1480
16632TIP3    H271312   4.193   3.835  16.976 -0.4256 -0.3070 -0.9891
16633TIP3   OH271313   5.190   1.662   3.197  0.5007  0.6589 -0.2302
16633TIP3    H171314   5.181   1.571   3.225 -0.8793  0.6670 -0.5959
16633TIP3    H271315   5.185   1.712   3.278  0.7916  0.4449 -0.0765
16634TIP3   OH271316   1.150   3.826  15.693  0.4302 -0.1336  0.3654
16634TIP3    H171317   1.240   3.810  15.724 -0.4711  0.1114  3.4907
16634TIP3    H271318   1.136   3.919  15.707 -0.2354 -0.1185 -0.3517
16635TIP3   OH271319   3.547   4.919  11.937  0.0501  0.3416 -0.3713
16635TIP3    H171320   3.472   4.977  11.928 -1.0325 -1.0526 -0.8124
16635TIP3    H271321   3.538   4.856  11.865  1.6546  0.1354 -0.4442
16636TIP3   OH271322   5.540   5.577   0.103  0.5374  0.2030  0.3972
16636TIP3    H171323   5.598   5.653   0.113 -0.0012  0.6768  0.0410
16636TIP3    H271324   5.543   5.557   0.009  1.4171 -0.8326  0.6330
16637TIP3   OH271325   6.711   2.099  13.994 -0.0056  0.3591  0.2337
16637TIP3    H171326   6.640   2.135  14.048 -0.8079  2.2257 -1.8926
16637TIP3    H271327   6.669   2.031  13.942  0.3141 -0.0878  0.5529
16638TIP3   OH271328   5.731   1.440  15.370 -0.4673 -0.3115  0.0329
16638TIP3    H171329   5.714   1.510  15.307 -0.8843 -0.9528 -0.5815
16638TIP3    H271330   5.746   1.363  15.316  0.4744 -0.6068  0.6863
16639TIP3   OH271331   5.697   1.263  13.652 -0.0730  0.1116 -0.1220
16639TIP3    H171332   5.626   1.306  13.603  0.8359  0.4920 -1.1410
16639TIP3    H271333   5.679   1.170  13.643 -1.0237  0.2038  0.5387
16640TIP3   OH271334   3.068   2.490   2.989 -0.4441 -0.3728 -0.4541
16640TIP3    H171335   3.016   2.568   2.969 -0.7127 -0.8221 -1.5993
16640TIP3    H271336   3.153   2.523   3.016 -0.3801  0.3192 -1.4607
16641TIP3   OH271337   6.033   1.979  14.838 -0.4974  0.1663  0.2359
16641TIP3    H171338   5.964   2.041  14.816  0.3616  1.2518  0.5331
16641TIP3    H271339   6.067   1.951  14.753  0.4941  1.7147  0.0838
16642TIP3   OH271340   5.950   5.839   0.977 -0.2662  0.1854 -0.2020
16642TIP3    H171341   5.938   5.801   1.064 -0.3454  0.4819 -0.0805
16642TIP3    H271342   5.867   5.883   0.958  0.3154  1.5848  0.3177
16643TIP3   OH271343   2.832   5.131  14.880  0.5011  0.2348  0.1055
16643TIP3    H171344   2.795   5.194  14.941 -0.6568  0.4481 -0.7886
16643TIP3    H271345   2.771   5.057  14.881  0.3330  0.3383 -0.9378
16644TIP3   OH271346   5.702   3.932  11.034  0.4738 -0.1105 -0.0762
16644TIP3    H171347   5.718   3.944  10.940  1.2310 -1.4673 -0.1407
16644TIP3    H271348   5.606   3.933  11.042  0.3415 -1.4269 -1.0892
16645TIP3   OH271349   0.961   1.749   2.490  0.0756  0.1854 -0.4419
16645TIP3    H171350   1.047   1.742   2.531  0.7505  0.3462 -1.7762
16645TIP3    H271351   0.923   1.830   2.525  0.0042 -0.4062  0.9355
16646TIP3   OH271352   2.725   2.664   4.239  0.3858  0.4069 -0.3258
16646TIP3    H171353   2.728   2.712   4.156 -2.9782  1.8844  0.2596
16646TIP3    H271354   2.769   2.721   4.302  1.7884 -0.1436 -0.7502
16647TIP3   OH271355   4.875   0.465  14.738 -0.0973  0.5590 -0.4874
16647TIP3    H171356   4.838   0.385  14.775 -0.6354  0.8148 -0.4698
16647TIP3    H271357   4.800   0.520  14.718  0.2817  1.2410 -0.0970
16648TIP3   OH271358   3.195   6.005   0.876 -0.6374  0.7389  0.1820
16648TIP3    H171359   3.164   5.971   0.792 -1.9667  5.4521 -1.5981
16648TIP3    H271360   3.289   5.987   0.877 -1.1330 -2.4852 -0.5022
16649TIP3   OH271361   1.453   4.160   5.544 -0.0479 -0.4355  0.2893
16649TIP3    H171362   1.529   4.171   5.487 -0.5597 -0.2093 -0.3534
16649TIP3    H271363   1.408   4.083   5.510  0.1607 -0.8842  0.9891
16650TIP3   OH271364   4.752   0.150   1.883 -0.4716  0.2537  0.2573
16650TIP3    H171365   4.752   0.107   1.797 -0.7040 -0.3782  0.5684
16650TIP3    H271366   4.707   0.233   1.868  1.8250  1.3995 -0.8332
16651TIP3   OH271367   1.841   3.039   4.080 -0.0867 -0.8288  0.6100
16651TIP3    H171368   1.907   3.075   4.139 -0.6805  1.3324  0.0632
16651TIP3    H271369   1.843   2.945   4.096  1.9525 -0.6494  1.7796
16652TIP3   OH271370   2.609   0.830  15.316  0.1727  0.3119 -0.0408
16652TIP3    H171371   2.648   0.893  15.376 -0.7277 -0.0409  0.9418
16652TIP3    H271372   2.532   0.798  15.362  0.4195 -1.2471 -0.6730
16653TIP3   OH271373   1.382   3.764   0.754 -0.5336  0.0562 -0.0281
16653TIP3    H171374   1.291   3.745   0.732 -0.7237 -0.4914  1.1190
16653TIP3    H271375   1.432   3.694   0.713 -0.5680  0.6265 -1.0628
16654TIP3   OH271376   2.963   5.067   1.181 -0.2932  0.1866  0.2969
16654TIP3    H171377   2.895   5.134   1.180  0.7275  1.2434 -0.6661
16654TIP3    H271378   2.947   5.016   1.101 -0.7482 -0.4208  0.7609
16655TIP3   OH271379   1.965   3.387   3.242 -0.2904  0.2180  0.0858
16655TIP3    H171380   2.011   3.469   3.229 -1.9365  1.2935  0.6282
16655TIP3    H271381   1.972   3.340   3.159  1.1289  0.6424 -0.0497
16656TIP3   OH271382   0.938   3.226  13.979  0.0854 -0.8932  0.2889
16656TIP3    H171383   0.917   3.238  14.071  0.0481 -0.2084  0.2018
16656TIP3    H271384   1.033   3.220  13.976  0.1829  0.3342  0.2618
16657TIP3   OH271385   1.655   3.147   2.361  0.0054  0.3501  0.5258
16657TIP3    H171386   1.710   3.225   2.351  0.2154  0.1203 -0.1573
16657TIP3    H271387   1.595   3.169   2.432  0.1542  1.0814  0.4289
16658TIP3   OH271388   1.530   3.446  15.145 -0.0681  0.1819 -0.1416
16658TIP3    H171389   1.561   3.413  15.061  1.0105 -0.9801  0.6677
16658TIP3    H271390   1.437   3.466  15.131 -0.5940 -2.4292 -0.9561
16659TIP3   OH271391   4.396   3.631  15.298  0.0395 -0.7312  0.4459
16659TIP3    H171392   4.310   3.645  15.338  0.0246 -1.3452  0.6234
16659TIP3    H271393   4.451   3.701  15.335 -0.4995 -0.0493 -0.0251
16660TIP3   OH271394   5.643   2.217   4.972 -0.3979  0.6459 -0.2867
16660TIP3    H171395   5.660   2.127   4.998  0.3642  0.6899 -0.6216
16660TIP3    H271396   5.569   2.244   5.028 -1.5676 -0.6142 -1.1446
16661TIP3   OH271397   4.817   0.714  14.936 -0.2814 -0.2377  0.8725
16661TIP3    H171398   4.794   0.727  15.028  0.6893 -0.1235  1.1079
16661TIP3    H271399   4.768   0.637  14.910 -1.1876  0.1866  1.2550
16662TIP3   OH271400   6.566   3.543   2.460  0.2806 -0.2677  0.4178
16662TIP3    H171401   6.583   3.453   2.487  2.2115  0.2935  1.2918
16662TIP3    H271402   6.622   3.556   2.383 -1.0073 -0.1884 -0.5397
16663TIP3   OH271403   0.045   1.746   1.769 -0.3336 -0.0929  0.7424
16663TIP3    H171404   0.086   1.812   1.825  0.5437 -0.7807  0.9316
16663TIP3    H271405  -0.033   1.720   1.817  0.1142 -0.2749  1.3976
16664TIP3   OH271406   3.305   4.922   1.290 -0.0595  0.1938 -0.0952
16664TIP3    H171407   3.331   5.005   1.329 -2.7659  0.1688  1.9684
16664TIP3    H271408   3.305   4.939   1.196 -0.1879  2.4169  0.2563
16665TIP3   OH271409   5.935   1.695  12.532  0.5779 -0.0231  0.4010
16665TIP3    H171410   5.985   1.735  12.460  1.3737 -1.1602  0.3141
16665TIP3    H271411   5.885   1.625  12.490 -0.6794  0.7266  0.5879
16666TIP3   OH271412   4.343   0.492   5.095  0.3200  0.2159 -0.7689
16666TIP3    H171413   4.352   0.452   5.009  0.6721 -1.2169 -0.0989
16666TIP3    H271414   4.425   0.540   5.107  1.3512 -1.5379 -0.3089
16667TIP3   OH271415   3.867   1.490  15.441 -0.0720 -0.1837 -0.5247
16667TIP3    H171416   3.848   1.429  15.513  0.2876 -0.4276 -0.6331
16667TIP3    H271417   3.963   1.492  15.436 -0.0942 -1.0397 -1.7274
16668TIP3   OH271418   0.492   4.723   5.397 -0.7228 -0.3881  0.6173
16668TIP3    H171419   0.478   4.725   5.492  0.1387  0.7488  0.7520
16668TIP3    H271420   0.560   4.657   5.384 -0.4911 -0.1956  0.8481
16669TIP3   OH271421   2.710   0.509  15.904 -0.2447  0.4959 -0.1074
16669TIP3    H171422   2.805   0.512  15.890 -0.3329  1.2182 -0.6110
16669TIP3    H271423   2.673   0.529  15.818 -0.8376  1.5421  0.3779
16670TIP3   OH271424   5.097   6.483   2.544 -0.6214 -0.0388  0.3226
16670TIP3    H171425   5.100   6.545   2.470 -1.5820  1.5380  1.5433
16670TIP3    H271426   5.171   6.508   2.599 -1.4197  0.5029  1.1692
16671TIP3   OH271427   6.092   5.064  16.965 -0.1410 -0.1634  0.1638
16671TIP3    H171428   6.000   5.047  16.985  0.1301 -1.6826  0.1755
16671TIP3    H271429   6.138   5.051  17.048  0.3028 -1.2333 -0.2313
16672TIP3   OH271430   6.656   4.063   0.375 -0.0747  0.4113  0.1521
16672TIP3    H171431   6.745   4.074   0.341  1.2190 -0.3469  3.0011
16672TIP3    H271432   6.622   4.152   0.380  0.2393  0.6695 -1.5203
16673TIP3   OH271433   4.613   2.767  14.700 -0.5840 -0.1346  0.1289
16673TIP3    H171434   4.555   2.744  14.773 -1.3407  2.5507  0.5106
16673TIP3    H271435   4.697   2.787  14.742 -0.6734  0.2593  0.1205
16674TIP3   OH271436   0.404   3.861   2.416  0.7308  0.3500 -0.0931
16674TIP3    H171437   0.475   3.832   2.359  1.6526 -0.3734  1.3609
16674TIP3    H271438   0.332   3.882   2.356  2.2712  1.4981 -1.6389
16675TIP3   OH271439   3.369   6.307  12.433  0.0655  0.0162  0.5267
16675TIP3    H171440   3.312   6.372  12.475  0.9951  1.1437  0.1176
16675TIP3    H271441   3.438   6.360  12.391  0.9003 -1.2508  0.2514
16676TIP3   OH271442   5.381   2.880  13.374  0.4224 -0.5683  0.2222
16676TIP3    H171443   5.470   2.891  13.340  0.3863  3.6355  0.9627
16676TIP3    H271444   5.381   2.929  13.456 -2.8092  0.3487 -0.2123
16677TIP3   OH271445   2.633   6.545  11.034 -0.2731 -0.4023  0.0161
16677TIP3    H171446   2.673   6.499  11.108  0.5027  0.0310 -0.1194
16677TIP3    H271447   2.543   6.514  11.032 -0.4932  0.0605  1.5428
16678TIP3   OH271448   2.819   2.845  14.649  0.5936  0.2930  0.0245
16678TIP3    H171449   2.888   2.837  14.714  2.2765 -1.0948 -1.8083
16678TIP3    H271450   2.767   2.765  14.659  2.0285 -0.8996 -1.5229
16679TIP3   OH271451   1.940   2.587   1.042  0.9234  0.5314  0.5179
16679TIP3    H171452   1.846   2.569   1.050  1.0550 -0.2007  0.4885
16679TIP3    H271453   1.960   2.642   1.117 -0.0139  2.8308 -0.8047
16680TIP3   OH271454   1.658   3.386   0.252 -0.3894 -0.0095 -0.5094
16680TIP3    H171455   1.726   3.392   0.319 -1.1667 -0.7054  0.3741
16680TIP3    H271456   1.579   3.418   0.296 -0.7897  0.0734 -1.2839
16681TIP3   OH271457   2.116   6.299  11.752  0.0974  0.4967  0.4528
16681TIP3    H171458   2.092   6.392  11.750  0.3777  0.5818 -1.9394
16681TIP3    H271459   2.202   6.298  11.795 -0.3446  1.1891  1.4103
16682TIP3   OH271460   2.909   2.739  15.954  0.0067  0.2060 -0.2541
16682TIP3    H171461   2.852   2.816  15.946 -0.9776 -0.5939 -1.3111
16682TIP3    H271462   2.955   2.751  16.037 -0.8567  1.4381  0.0699
16683TIP3   OH271463   0.061   1.286  13.322 -0.7193  0.2774  0.0665
16683TIP3    H171464   0.093   1.367  13.284 -0.5715  0.0230 -0.3594
16683TIP3    H271465  -0.022   1.310  13.364 -0.2127  0.8423  0.7695
16684TIP3   OH271466   5.925   5.964  11.507  0.0179 -0.3011 -0.2860
16684TIP3    H171467   5.939   5.886  11.454 -3.1379 -0.0010 -1.7844
16684TIP3    H271468   5.953   6.036  11.451 -1.1510 -0.1320 -0.6796
16685TIP3   OH271469   1.681   3.505  11.907 -0.3117  0.4540 -0.4218
16685TIP3    H171470   1.769   3.535  11.885 -0.3366 -0.2123 -1.5195
16685TIP3    H271471   1.623   3.574  11.874 -0.3008 -0.1294 -1.7002
16686TIP3   OH271472   0.319   6.196  16.644 -0.7980  0.0560  0.1722
16686TIP3    H171473   0.324   6.106  16.674 -1.4408 -0.0917 -0.1518
16686TIP3    H271474   0.399   6.210  16.594 -0.9980 -0.5379 -0.3196
16687TIP3   OH271475   5.252   3.491   4.183  0.2180  0.6245  0.4015
16687TIP3    H171476   5.205   3.546   4.120  0.1987 -1.2072 -1.2888
16687TIP3    H271477   5.185   3.461   4.243 -0.4134 -0.2044 -0.6790
16688TIP3   OH271478   4.199   0.458  10.558  0.1875 -0.3468  0.4623
16688TIP3    H171479   4.116   0.505  10.550 -0.9664 -2.1758  1.2407
16688TIP3    H271480   4.180   0.369  10.529  2.5074 -0.2390 -1.7171
16689TIP3   OH271481   6.408   2.854   2.237 -0.0875 -0.3869 -0.1170
16689TIP3    H171482   6.422   2.898   2.321  0.8261 -0.6598 -0.1111
16689TIP3    H271483   6.386   2.924   2.176  2.7836  0.3600 -0.4537
16690TIP3   OH271484   3.813   3.703  13.062 -0.0258  0.5294 -0.1944
16690TIP3    H171485   3.847   3.726  12.975  0.3740  0.2746 -0.1107
16690TIP3    H271486   3.856   3.620  13.083 -0.5026  0.3317  0.0330
16691TIP3   OH271487   6.613   2.826  15.372  0.0063  0.1736 -0.1348
16691TIP3    H171488   6.685   2.844  15.434 -0.2839 -1.3676  0.7150
16691TIP3    H271489   6.617   2.732  15.358 -1.0259  0.2600 -1.1501
16692TIP3   OH271490   0.678   4.545   2.936  0.1119  0.1873  0.5696
16692TIP3    H171491   0.659   4.465   2.986  3.0559 -0.0613  1.4631
16692TIP3    H271492   0.693   4.612   3.003  0.1363  0.8669 -0.1044
16693TIP3   OH271493   1.126   4.127   2.784  0.0428 -0.2622 -0.0039
16693TIP3    H171494   1.065   4.084   2.724  0.3090 -0.4042 -0.1769
16693TIP3    H271495   1.071   4.184   2.837 -0.2337 -0.3457 -0.1956
16694TIP3   OH271496   0.811   6.039   1.039 -0.0183  0.1599 -0.0726
16694TIP3    H171497   0.761   5.961   1.013  0.2705  0.0441 -0.2821
16694TIP3    H271498   0.745   6.109   1.043 -0.2980 -0.1146  0.2241
16695TIP3   OH271499   0.848   4.644   3.494 -0.0103  0.1204  0.2262
16695TIP3    H171500   0.796   4.718   3.526 -0.5823  0.3806 -1.2242
16695TIP3    H271501   0.924   4.643   3.551 -1.2332  0.1910  1.9455
16696TIP3   OH271502   4.507   4.134   0.444  0.1500  0.2875  0.0432
16696TIP3    H171503   4.473   4.094   0.524 -1.4911  0.1473 -0.6864
16696TIP3    H271504   4.459   4.216   0.436  0.8832  0.6830 -0.3825
16697TIP3   OH271505   1.131   0.679   1.483  0.0451 -0.1811  0.1028
16697TIP3    H171506   1.181   0.608   1.523 -1.5384 -1.3035  0.1877
16697TIP3    H271507   1.040   0.655   1.498 -0.5440  1.1865 -1.0854
16698TIP3   OH271508   2.610   5.059   5.203 -0.1247 -0.3616 -0.0378
16698TIP3    H171509   2.534   5.042   5.147  0.4743 -0.3485 -0.8795
16698TIP3    H271510   2.599   5.000   5.278 -1.4713  0.3586  0.3575
16699TIP3   OH271511   3.224   0.430   1.554  0.6254  0.8043  0.6603
16699TIP3    H171512   3.231   0.335   1.552  0.3081  0.7835  0.5343
16699TIP3    H271513   3.205   0.452   1.645  4.1148  0.9938  1.4981
16700TIP3   OH271514   4.211   3.833   0.905  0.4009  0.2046 -0.3319
16700TIP3    H171515   4.195   3.806   0.996  0.1410 -2.3202 -1.0512
16700TIP3    H271516   4.147   3.902   0.889  0.0296  0.2600  1.2011
16701TIP3   OH271517   4.894   6.503   0.685 -0.6865  0.1321 -0.5954
16701TIP3    H171518   4.872   6.461   0.603 -2.5209  0.4421 -0.3143
16701TIP3    H271519   4.913   6.594   0.661 -2.7401  0.6197 -0.5640
16702TIP3   OH271520   2.082   4.342  12.835 -0.3632 -0.1736 -0.3280
16702TIP3    H171521   2.009   4.404  12.823  0.2782  0.2733 -2.3942
16702TIP3    H271522   2.151   4.394  12.876 -0.6795 -0.2100  0.2679
16703TIP3   OH271523   5.800   3.836   6.503  0.1516  0.2516 -0.7500
16703TIP3    H171524   5.717   3.794   6.525 -0.1578 -0.1498 -2.5206
16703TIP3    H271525   5.865   3.766   6.511  0.6721  0.9788  2.3878
16704TIP3   OH271526   5.650   6.786  14.595  0.1074 -0.5584  0.5413
16704TIP3    H171527   5.738   6.752  14.607  0.7868  1.0313  0.2740
16704TIP3    H271528   5.662   6.870  14.551 -1.5532 -0.3808  0.3545
16705TIP3   OH271529   6.132   4.933   5.856  0.4858  0.4635 -0.2258
16705TIP3    H171530   6.209   4.884   5.830  1.3719  0.9234  1.3702
16705TIP3    H271531   6.167   5.009   5.903 -0.9286  0.3009  1.1884
16706TIP3   OH271532   5.977   1.156   6.515 -0.4698 -0.1020 -0.2983
16706TIP3    H171533   5.948   1.103   6.590 -1.5330 -0.1078 -0.7040
16706TIP3    H271534   5.938   1.242   6.530  1.5372  0.7262  0.5382
16707TIP3   OH271535   1.418   2.719  10.999 -0.0856 -0.3801  0.0014
16707TIP3    H171536   1.480   2.711  10.926  0.5530 -0.6306  0.5667
16707TIP3    H271537   1.336   2.682  10.965  0.7904 -2.5548  0.1204
16708TIP3   OH271538   1.956   6.333   3.037  0.0258  0.1848 -0.7972
16708TIP3    H171539   1.864   6.328   3.062  0.2278  1.5441  0.3229
16708TIP3    H271540   1.969   6.426   3.015  0.6134 -0.3793 -3.0759
16709TIP3   OH271541   4.909   4.197   5.228  0.2398  0.3100  0.2122
16709TIP3    H171542   4.869   4.217   5.313 -0.2338 -2.6544  0.7950
16709TIP3    H271543   4.843   4.146   5.181  1.8920 -1.4962 -0.3021
16710TIP3   OH271544   4.717   4.890  12.449  0.4888 -0.0892 -0.3996
16710TIP3    H171545   4.701   4.897  12.355 -1.9394  0.2332 -0.0244
16710TIP3    H271546   4.804   4.929  12.461  1.6956 -1.8760 -2.6968
16711TIP3   OH271547   0.341   2.360   5.687 -0.1774 -0.3736  0.3432
16711TIP3    H171548   0.350   2.358   5.592 -0.2516 -0.6019  0.3404
16711TIP3    H271549   0.263   2.414   5.702 -0.9288 -1.4123  0.2211
16712TIP3   OH271550   4.303   3.236  12.789  0.1575 -0.0899 -0.7752
16712TIP3    H171551   4.331   3.267  12.703  0.7742  0.7008 -0.3104
16712TIP3    H271552   4.260   3.153  12.772  2.1096 -0.9950 -1.6497
16713TIP3   OH271553   1.751   5.722   4.668 -0.1381 -0.1781  0.1515
16713TIP3    H171554   1.753   5.669   4.589  0.9046  1.2493 -0.8551
16713TIP3    H271555   1.753   5.813   4.636 -1.2154  0.4734  1.7911
16714TIP3   OH271556   1.198   6.327  13.673 -0.5970 -0.6035  0.4799
16714TIP3    H171557   1.123   6.349  13.728 -1.2132 -1.0298 -0.1737
16714TIP3    H271558   1.175   6.361  13.586 -0.9591 -2.5092 -0.2224
16715TIP3   OH271559   4.276   6.236  13.208  0.1261 -0.5085 -0.6015
16715TIP3    H171560   4.236   6.305  13.155 -0.2463 -0.1898  0.0752
16715TIP3    H271561   4.270   6.269  13.298  1.9800 -0.4075 -0.4684
16716TIP3   OH271562   6.749   5.637   0.596 -0.6839  0.1648  0.2711
16716TIP3    H171563   6.814   5.682   0.542  0.0170 -0.4195  0.6041
16716TIP3    H271564   6.705   5.577   0.535  0.7188 -1.1496  0.4680
16717TIP3   OH271565   4.089   1.777  14.625 -0.0480  0.0718  0.7233
16717TIP3    H171566   4.029   1.805  14.695 -0.3480  0.3484  0.3565
16717TIP3    H271567   4.034   1.770  14.547  0.0380 -1.4493  0.7725
16718TIP3   OH271568   4.237   4.792  12.269  0.2762 -0.0520  0.1671
16718TIP3    H171569   4.185   4.712  12.268 -2.5303  1.6614  0.8142
16718TIP3    H271570   4.182   4.857  12.311  2.7975  2.0647  0.4905
16719TIP3   OH271571   5.703   1.542   5.106  0.2552 -0.0604  0.2226
16719TIP3    H171572   5.610   1.520   5.094  0.3759 -1.6428  1.7731
16719TIP3    H271573   5.706   1.584   5.192  0.6840  2.2543 -0.8521
16720TIP3   OH271574   1.314   2.166   3.221 -0.0640 -0.1647  0.0518
16720TIP3    H171575   1.224   2.184   3.192  0.7541  1.5922 -1.6297
16720TIP3    H271576   1.320   2.206   3.308 -0.2520  1.9446 -0.8448
16721TIP3   OH271577   1.080   3.552  13.667  0.6046 -0.3856  0.2379
16721TIP3    H171578   1.022   3.544  13.591 -0.3898  2.0810  0.6350
16721TIP3    H271579   1.111   3.643  13.664  3.7720 -1.3377  0.5993
16722TIP3   OH271580   6.263   0.232   0.554 -0.3204  0.3763 -0.5976
16722TIP3    H171581   6.319   0.308   0.537  2.3476 -1.6186 -1.3285
16722TIP3    H271582   6.222   0.212   0.470  0.1201  0.1472 -0.7583
16723TIP3   OH271583   2.909   4.550   5.372 -0.4609 -1.0655  0.8181
16723TIP3    H171584   2.908   4.609   5.297 -0.0553 -2.1097 -0.0278
16723TIP3    H271585   2.971   4.590   5.433 -0.0698 -0.6893  0.1830
16724TIP3   OH271586   5.310   4.419   4.604 -0.5035 -0.0081  0.7095
16724TIP3    H171587   5.326   4.489   4.668 -2.7328  0.9581  0.3090
16724TIP3    H271588   5.283   4.465   4.525  1.9953 -1.1837 -0.9686
16725TIP3   OH271589   4.199   6.014   1.310 -0.2610 -0.4098  0.1151
16725TIP3    H171590   4.201   5.919   1.325  0.2205 -0.6227 -1.2128
16725TIP3    H271591   4.170   6.050   1.394  0.0446 -1.6921  0.8057
16726TIP3   OH271592   5.679   0.697  12.431 -0.4033 -0.2294 -0.1527
16726TIP3    H171593   5.732   0.706  12.351  0.6555 -1.4475  0.3637
16726TIP3    H271594   5.648   0.606  12.428  0.5937 -0.6580  1.3462
16727TIP3   OH271595   6.684   0.964  12.754  0.5502  0.3043  0.3341
16727TIP3    H171596   6.607   1.022  12.753  0.7241  0.6468  2.1841
16727TIP3    H271597   6.672   0.910  12.833  1.1189 -1.1940 -0.5620
16728TIP3   OH271598   4.056   2.764  15.097 -0.4263  0.0239 -0.0543
16728TIP3    H171599   4.132   2.822  15.097  0.0774 -0.6042 -0.9822
16728TIP3    H271600   4.066   2.711  15.176 -2.5734  3.2343  2.6109
16729TIP3   OH271601   2.877   5.442  15.044 -0.1693  0.3214  0.2593
16729TIP3    H171602   2.933   5.399  15.109 -0.1272  0.0401  0.0345
16729TIP3    H271603   2.797   5.390  15.043 -1.0552  1.5698  1.6762
16730TIP3   OH271604   0.775   3.932   0.255  0.5022 -0.2544 -0.2470
16730TIP3    H171605   0.749   4.021   0.279 -1.1409 -0.0278 -2.4904
16730TIP3    H271606   0.694   3.881   0.264  0.5112 -0.7210 -2.3724
16731TIP3   OH271607   2.582   2.092  11.327  0.5746  0.3070 -0.4352
16731TIP3    H171608   2.537   2.009  11.312  0.5190  0.2486  0.0170
16731TIP3    H271609   2.667   2.081  11.284  0.5197  0.0619 -0.4852
16732TIP3   OH271610   2.202   3.295   5.391  0.1865  0.2890 -0.2543
16732TIP3    H171611   2.278   3.239   5.372  0.5778  0.1992  1.4045
16732TIP3    H271612   2.211   3.316   5.484 -1.9830  0.0467  0.0543
16733TIP3   OH271613   1.938   2.995   1.451 -0.1590 -0.1388  0.0421
16733TIP3    H171614   1.885   3.020   1.527  0.3117  0.2657  0.2477
16733TIP3    H271615   1.985   3.075   1.427  0.3553 -0.4818 -0.1294
16734TIP3   OH271616   5.507   2.339  15.261  0.2713  0.2631  0.5053
16734TIP3    H171617   5.448   2.379  15.324 -0.1826  1.2331 -0.4978
16734TIP3    H271618   5.592   2.379  15.279  0.3309 -0.1143  1.0660
16735TIP3   OH271619   6.369   4.389   3.899 -0.0703  0.3212  0.4476
16735TIP3    H171620   6.414   4.324   3.845 -0.4070 -0.2208  0.8155
16735TIP3    H271621   6.439   4.448   3.927  0.1093  0.6136 -0.5753
16736TIP3   OH271622   1.454   6.067  11.346  0.1308 -0.2684 -0.0122
16736TIP3    H171623   1.440   6.060  11.251  0.4337  0.0060 -0.0773
16736TIP3    H271624   1.428   5.981  11.380  0.5855 -0.5693 -0.4133
16737TIP3   OH271625   6.644   6.618   2.210  0.5790 -0.5473  0.4007
16737TIP3    H171626   6.630   6.613   2.116  2.0524 -0.1124  0.1349
16737TIP3    H271627   6.561   6.589   2.248  0.0241 -0.9101 -1.0201
16738TIP3   OH271628   2.476   6.729   1.568  0.3507  0.4783  1.2214
16738TIP3    H171629   2.519   6.744   1.484  0.1640  0.0975  1.0548
16738TIP3    H271630   2.482   6.813   1.614  1.6882  0.3032  1.4064
16739TIP3   OH271631   6.579   1.306   2.078  0.1002 -0.2930 -0.6050
16739TIP3    H171632   6.487   1.330   2.064  0.4100  0.9775 -0.5904
16739TIP3    H271633   6.592   1.228   2.024 -1.3681 -1.3933  0.5312
16740TIP3   OH271634   4.387   5.953  15.250  0.1069  0.0220  0.8663
16740TIP3    H171635   4.355   5.864  15.238 -2.6873  1.1261 -0.9565
16740TIP3    H271636   4.471   5.955  15.204 -0.2946 -1.3983  0.0107
16741TIP3   OH271637   2.691   6.237  13.138  0.3520  0.0669 -0.1252
16741TIP3    H171638   2.662   6.231  13.229  0.1360  0.1218 -0.1903
16741TIP3    H271639   2.627   6.185  13.089 -0.6563  1.5820 -0.4945
16742TIP3   OH271640   4.049   5.397  14.709  0.4390 -0.8959 -0.7587
16742TIP3    H171641   4.140   5.422  14.691  0.2004 -0.0041 -0.7990
16742TIP3    H271642   4.017   5.363  14.626  1.4721 -3.6930 -0.1156
16743TIP3   OH271643   2.650   2.448  15.900  0.3248  0.3827 -0.1745
16743TIP3    H171644   2.576   2.509  15.911 -0.2408  0.0955 -2.0646
16743TIP3    H271645   2.614   2.375  15.849  1.4322 -0.7413  0.5731
16744TIP3   OH271646   2.780   6.009  12.876  0.1026 -0.4252  0.0927
16744TIP3    H171647   2.796   5.961  12.795  0.8736 -1.2889  0.7295
16744TIP3    H271648   2.867   6.022  12.914 -0.0834  1.4001  0.0135
16745TIP3   OH271649   5.152   5.691  15.982  0.1612  0.3667 -0.4305
16745TIP3    H171650   5.207   5.753  15.935 -1.4720  1.2940 -1.1756
16745TIP3    H271651   5.068   5.693  15.937 -0.7009 -0.5597  1.0377
16746TIP3   OH271652   5.300   1.813  13.883  0.2841 -0.3796 -0.4533
16746TIP3    H171653   5.365   1.814  13.954  0.5238  2.8504 -0.5710
16746TIP3    H271654   5.344   1.858  13.811 -0.8729 -1.3471 -1.8154
16747TIP3   OH271655   0.970   5.355   1.356 -0.5949  0.2880  0.4056
16747TIP3    H171656   1.044   5.405   1.391  1.1947 -1.4400 -0.6956
16747TIP3    H271657   0.958   5.389   1.267  1.4798 -1.9338 -0.8312
16748TIP3   OH271658   2.166   4.253  15.335 -0.5076  0.3034 -0.6331
16748TIP3    H171659   2.166   4.165  15.296 -3.3009  0.0787 -0.3462
16748TIP3    H271660   2.135   4.239  15.425  0.0732  1.4805 -0.2265
16749TIP3   OH271661   4.149   5.681   2.525 -0.6269  0.4914  0.0385
16749TIP3    H171662   4.126   5.751   2.465 -0.6362 -0.3019 -0.9140
16749TIP3    H271663   4.177   5.609   2.468  0.0346 -0.0443  1.0092
16750TIP3   OH271664   3.463   1.245   4.304  0.3609 -0.2994  0.4087
16750TIP3    H171665   3.505   1.175   4.255 -0.3853 -0.6776  0.2973
16750TIP3    H271666   3.439   1.310   4.238 -1.2141 -1.0921  0.1419
16751TIP3   OH271667   4.192   6.240   4.381 -0.4975 -0.1179  0.0709
16751TIP3    H171668   4.239   6.233   4.298 -1.0432 -0.2743 -0.2313
16751TIP3    H271669   4.101   6.219   4.359 -0.6123 -0.3581  0.7448
16752TIP3   OH271670   6.733   3.931  14.897 -0.4349 -0.8933 -0.6265
16752TIP3    H171671   6.654   3.908  14.947 -1.4281  1.0846 -1.1400
16752TIP3    H271672   6.797   3.956  14.964 -1.6451  1.4132 -0.2295
16753TIP3   OH271673   1.626   2.922  12.351 -0.4116  0.3607  0.0321
16753TIP3    H171674   1.614   2.970  12.433 -1.9086  1.2278 -0.6686
16753TIP3    H271675   1.538   2.895  12.325  0.1322 -0.6320 -0.8760
16754TIP3   OH271676   1.593   6.399   3.401  0.5453 -0.6046  0.1860
16754TIP3    H171677   1.583   6.493   3.393 -0.0413 -0.7119 -0.4854
16754TIP3    H271678   1.646   6.386   3.480  0.3853  0.2669  0.4394
16755TIP3   OH271679   0.175   1.830   2.615 -0.2950  0.1201  0.1749
16755TIP3    H171680   0.144   1.893   2.680  0.9676 -0.5231  1.4891
16755TIP3    H271681   0.242   1.779   2.662 -1.2837 -2.2239 -0.7919
16756TIP3   OH271682   4.946   5.719  14.524  0.0529 -0.2372  0.6535
16756TIP3    H171683   4.971   5.771  14.448  0.4993  0.6659  1.3862
16756TIP3    H271684   4.995   5.758  14.597  2.0412 -2.9214  0.9451
16757TIP3   OH271685   3.284   4.703   6.326  0.1433 -0.2213  0.1637
16757TIP3    H171686   3.361   4.748   6.290 -0.4470  0.5837 -0.1371
16757TIP3    H271687   3.305   4.690   6.418  0.4487  0.4172  0.1910
16758TIP3   OH271688   5.096   2.381  13.698  0.1964  0.2076  0.5921
16758TIP3    H171689   5.179   2.334  13.690  0.1634  0.1252  0.7366
16758TIP3    H271690   5.030   2.311  13.701  0.1292  0.2705  0.5768
16759TIP3   OH271691   4.800   3.126   3.383 -0.4971 -0.0828 -0.2676
16759TIP3    H171692   4.883   3.135   3.337  1.4024 -0.9093  2.7232
16759TIP3    H271693   4.764   3.043   3.351 -0.3914  0.4263 -1.8131
16760TIP3   OH271694   1.881   6.554  13.836 -0.0020 -0.1421  0.4297
16760TIP3    H171695   1.946   6.624  13.839 -1.4657  1.2679  0.5907
16760TIP3    H271696   1.929   6.479  13.802  1.2013  1.4515 -1.6888
16761TIP3   OH271697   4.947   4.986   2.157 -0.2122  0.7584 -0.0891
16761TIP3    H171698   5.040   4.986   2.180 -0.3501  0.9114  0.4806
16761TIP3    H271699   4.935   5.068   2.108 -0.0626  0.7730 -0.1024
16762TIP3   OH271700   4.730   6.712  14.909  0.3840  0.1450  0.0269
16762TIP3    H171701   4.654   6.683  14.859  0.2709 -0.3539  0.4825
16762TIP3    H271702   4.712   6.803  14.929  0.4314  0.3564 -0.8448
16763TIP3   OH271703   2.034   6.377   5.879 -0.8920 -0.0451 -0.1069
16763TIP3    H171704   1.975   6.301   5.887 -0.6692  0.0375  3.7912
16763TIP3    H271705   2.066   6.393   5.967  1.8268  2.5150 -1.3768
16764TIP3   OH271706   4.030   6.780   2.455 -0.3484 -0.1867  0.3823
16764TIP3    H171707   4.002   6.867   2.483  2.5672  0.5838  1.2878
16764TIP3    H271708   4.072   6.795   2.370  0.4280 -0.6424  0.6805
16765TIP3   OH271709   5.036   0.725  11.909  0.5708 -0.3209  0.6287
16765TIP3    H171710   5.004   0.731  11.999 -0.2682 -0.1532  0.3296
16765TIP3    H271711   5.072   0.637  11.902 -1.1600 -1.0583  0.5691
16766TIP3   OH271712   1.511   2.467   2.870  0.1762  0.1904 -0.3018
16766TIP3    H171713   1.565   2.388   2.868 -1.1811 -0.7809 -0.7555
16766TIP3    H271714   1.492   2.481   2.963  0.2387 -0.1594 -0.2338
16767TIP3   OH271715   0.099   5.115  12.262  0.0317  0.3418 -0.0671
16767TIP3    H171716   0.184   5.143  12.296 -0.1603  0.5432  0.2607
16767TIP3    H271717   0.119   5.047  12.199  0.4104  0.0704  0.3401
16768TIP3   OH271718   5.274   1.730   1.501 -0.5267  0.0182 -0.2682
16768TIP3    H171719   5.266   1.701   1.591  0.6669 -0.8489 -0.4107
16768TIP3    H271720   5.193   1.702   1.459 -1.7126  1.6508  0.8064
16769TIP3   OH271721   4.160   5.670   3.971 -0.2399 -0.0545  0.0626
16769TIP3    H171722   4.099   5.699   3.904  0.3136 -0.1588 -0.5025
16769TIP3    H271723   4.194   5.750   4.010  1.5518  0.1363 -1.7346
16770TIP3   OH271724   5.838   4.980  16.138 -0.1099  0.4037  0.1926
16770TIP3    H171725   5.742   4.977  16.133 -0.1762  0.2062  1.3390
16770TIP3    H271726   5.867   4.894  16.107 -0.0855  1.5843 -3.5025
16771TIP3   OH271727   4.689   0.130   5.758  0.1866  0.2438  0.3114
16771TIP3    H171728   4.714   0.159   5.846 -0.2739 -0.2694  0.6211
16771TIP3    H271729   4.723   0.198   5.700  0.0859  0.8385  0.9258
16772TIP3   OH271730   5.515   5.956  14.984  0.1200  0.2635 -0.3970
16772TIP3    H171731   5.469   6.013  15.047 -1.1968  2.9644 -3.5303
16772TIP3    H271732   5.600   5.998  14.972  0.3962 -0.2879 -0.3974
16773TIP3   OH271733   3.131   1.890  13.800  0.8926  0.5621  0.0862
16773TIP3    H171734   3.209   1.865  13.752  0.4900 -1.2579  0.3148
16773TIP3    H271735   3.097   1.966  13.753  2.4560  1.0244 -0.3535
16774TIP3   OH271736   4.893   4.395  10.600 -0.7347 -0.1758 -0.0782
16774TIP3    H171737   4.921   4.331  10.534 -3.0076 -1.8201  0.4635
16774TIP3    H271738   4.965   4.396  10.664 -0.7144 -2.3639  0.0048
16775TIP3   OH271739   1.100   5.630  16.424 -0.0989  0.0095  0.2471
16775TIP3    H171740   1.036   5.564  16.398 -1.1652  1.6033 -1.3739
16775TIP3    H271741   1.178   5.579  16.448  0.0187 -1.8300 -3.3710
16776TIP3   OH271742   3.207   0.156  16.961 -0.0043 -0.4254 -0.4086
16776TIP3    H171743   3.185   0.143  16.868  0.7650 -0.5366 -0.5850
16776TIP3    H271744   3.303   0.153  16.963  0.0469  1.0303  0.1837
16777TIP3   OH271745   1.203   0.543   1.119  0.1792  0.9174  0.0605
16777TIP3    H171746   1.240   0.541   1.031  1.4518 -0.8268  0.5958
16777TIP3    H271747   1.111   0.565   1.105  0.4350  1.0511 -1.6704
16778TIP3   OH271748   5.410   2.007  13.435  0.1826  0.2002  0.3003
16778TIP3    H171749   5.435   1.972  13.520  0.0532  0.6580  0.5323
16778TIP3    H271750   5.316   1.988  13.428  0.3833 -0.6649 -0.1515
16779TIP3   OH271751   6.002   3.092  12.899  0.1898  0.4184  0.2540
16779TIP3    H171752   6.016   3.027  12.968  1.3098  0.5112  0.1352
16779TIP3    H271753   5.930   3.057  12.847 -1.0376  0.5977  1.7697
16780TIP3   OH271754   3.406   3.338  10.923 -0.3617  0.7874 -0.3886
16780TIP3    H171755   3.489   3.326  10.877 -0.0118  0.0264  0.4040
16780TIP3    H271756   3.353   3.393  10.865 -0.6656 -1.6445 -2.5936
16781TIP3   OH271757   2.621   5.919  10.792 -0.5635  0.5004  0.1904
16781TIP3    H171758   2.625   6.010  10.763 -0.2078  0.8658  1.3418
16781TIP3    H271759   2.548   5.917  10.854 -1.2557 -0.2505 -0.5948
16782TIP3   OH271760   4.921   4.527   3.999  0.0923  0.3086  0.4480
16782TIP3    H171761   4.972   4.462   4.047 -0.1610  1.8048  2.8767
16782TIP3    H271762   4.877   4.477   3.931  1.4010 -1.7225  0.9975
16783TIP3   OH271763   1.709   5.325   6.678 -0.1685 -0.2085  0.0051
16783TIP3    H171764   1.749   5.376   6.606  0.9937 -0.4487  0.4552
16783TIP3    H271765   1.661   5.255   6.634 -0.1471  0.1288 -0.5673
16784TIP3   OH271766   2.725   1.014  16.921  0.1702 -0.0095 -0.5018
16784TIP3    H171767   2.788   0.946  16.899  0.6473  0.0787  0.5187
16784TIP3    H271768   2.737   1.029  17.015  1.1639  2.5479 -0.9547
16785TIP3   OH271769   3.156   0.973   5.409 -0.4222 -0.3480 -0.1213
16785TIP3    H171770   3.143   0.897   5.352 -3.3009 -0.3011  0.3188
16785TIP3    H271771   3.132   0.942   5.496 -2.1061  1.1108 -0.0085
16786TIP3   OH271772   2.228   1.900  16.817 -0.1143  0.0036 -0.2753
16786TIP3    H171773   2.235   1.915  16.911 -0.8215  0.4250 -0.2826
16786TIP3    H271774   2.266   1.979  16.777 -2.0896  0.9810 -0.3200
16787TIP3   OH271775   3.269   1.906   4.550  0.0711 -0.6810 -0.1448
16787TIP3    H171776   3.184   1.863   4.556 -1.3303  1.5509 -2.3041
16787TIP3    H271777   3.322   1.845   4.498 -0.3995 -1.7600  0.5871
16788TIP3   OH271778   3.248   5.750  16.511 -0.3821 -0.0576 -0.3413
16788TIP3    H171779   3.288   5.826  16.469 -1.2867 -0.0492 -1.2223
16788TIP3    H271780   3.208   5.701  16.440 -0.3166 -1.0592  0.2898
16789TIP3   OH271781   6.622   2.641   1.388  0.1026 -0.9758 -0.1319
16789TIP3    H171782   6.688   2.622   1.322  0.0627 -3.0038  0.3346
16789TIP3    H271783   6.543   2.661   1.338  0.2521 -1.7989 -0.7228
16790TIP3   OH271784   0.893   6.208  16.349  0.0060 -0.2556  0.4616
16790TIP3    H171785   0.892   6.128  16.401 -0.7315  0.0591  0.9565
16790TIP3    H271786   0.969   6.257  16.381  0.9814 -1.1263 -0.4484
16791TIP3   OH271787   4.834   6.072   4.821 -0.4977 -0.0033 -0.3178
16791TIP3    H171788   4.833   5.978   4.800  3.3349  0.3554 -3.3100
16791TIP3    H271789   4.776   6.111   4.756  0.3229 -0.0958 -1.1262
16792TIP3   OH271790   5.119   4.534  12.002 -0.1923  0.3758  0.2130
16792TIP3    H171791   5.063   4.589  11.948  0.4362  0.6179 -0.2086
16792TIP3    H271792   5.083   4.446  11.993 -1.0711  0.6739  0.7136
16793TIP3   OH271793   5.077   2.217  13.413  0.1820 -0.0686 -0.3613
16793TIP3    H171794   5.009   2.241  13.476 -1.6085 -0.4763 -2.0523
16793TIP3    H271795   5.116   2.138  13.450 -0.2595  0.1540  0.6263
16794TIP3   OH271796   3.654   0.429   5.952  0.1923 -0.4738 -0.2626
16794TIP3    H171797   3.642   0.480   5.872 -0.8626  0.9284  0.7359
16794TIP3    H271798   3.593   0.356   5.943 -0.8957  0.4019 -0.1825
16795TIP3   OH271799   2.687   0.324  16.282 -0.4789 -0.1949  0.1571
16795TIP3    H171800   2.628   0.321  16.206  1.2850  0.9101 -1.3250
16795TIP3    H271801   2.770   0.355  16.247  0.4065  0.3651  2.5705
16796TIP3   OH271802   1.480   0.476  11.351 -0.3229  0.0927  0.4052
16796TIP3    H171803   1.473   0.403  11.290 -1.6104 -0.0447  0.6732
16796TIP3    H271804   1.404   0.465  11.409 -0.3232  1.4318  0.6793
16797TIP3   OH271805   5.528   3.016   4.701  0.0801 -0.1373  0.5435
16797TIP3    H171806   5.577   3.092   4.670  0.0022 -0.0686  0.5890
16797TIP3    H271807   5.502   2.970   4.621  0.3237 -0.2412  0.5225
16798TIP3   OH271808   5.964   2.350  16.187 -0.2497  0.2946 -0.0003
16798TIP3    H171809   5.869   2.355  16.176 -0.1986  1.7836  0.0402
16798TIP3    H271810   5.976   2.284  16.255 -1.1068 -1.4904 -1.4825
16799TIP3   OH271811   4.204   2.287  15.264 -0.6260 -0.4206  0.4139
16799TIP3    H171812   4.161   2.208  15.231  0.0868 -1.4482  1.7935
16799TIP3    H271813   4.298   2.269  15.254 -0.4544  1.1803 -1.2337
16800TIP3   OH271814   4.211   3.052   2.760  0.1088  0.3477  0.0561
16800TIP3    H171815   4.254   3.131   2.728 -0.3358  0.9733  0.9604
16800TIP3    H271816   4.277   2.984   2.753  0.0503  0.4327 -2.1714
16801TIP3   OH271817   3.478   1.906   3.365 -0.2971  0.4319  0.2916
16801TIP3    H171818   3.422   1.836   3.398  1.5069 -1.3250 -0.1535
16801TIP3    H271819   3.515   1.947   3.443 -0.4652  0.0897  0.5511
16802TIP3   OH271820   0.769   5.287  15.717  0.1856 -0.0005  0.5312
16802TIP3    H171821   0.785   5.232  15.641 -0.4039  0.1842  0.2676
16802TIP3    H271822   0.846   5.344  15.723  0.0874  0.2080 -0.1252
16803TIP3   OH271823   4.013   1.586   1.274  0.1369  0.2335 -0.6821
16803TIP3    H171824   4.014   1.497   1.307 -0.6132  0.7330  0.7831
16803TIP3    H271825   3.946   1.585   1.205 -0.0791 -0.2772 -0.4701
16804TIP3   OH271826   0.613   3.008  12.139  0.1593  0.0362  0.9830
16804TIP3    H171827   0.551   2.963  12.196  0.4727 -0.4015  0.9877
16804TIP3    H271828   0.699   2.975  12.166  0.3329  0.0247  0.4370
16805TIP3   OH271829   2.347   3.951  14.538 -0.2202  0.0985  0.0353
16805TIP3    H171830   2.333   3.866  14.497  1.6358 -0.6736  0.9022
16805TIP3    H271831   2.407   3.997  14.480 -1.5662  1.0211 -0.6578
16806TIP3   OH271832   5.510   4.647  12.246  0.4391 -0.0575 -0.1689
16806TIP3    H171833   5.567   4.723  12.234 -0.7209  0.6587 -1.3785
16806TIP3    H271834   5.504   4.607  12.160  0.0477 -0.8100  0.1953
16807TIP3   OH271835   2.635   1.433   5.538  0.1026  0.0383  0.8020
16807TIP3    H171836   2.597   1.506   5.489  0.2851 -1.4012 -1.6011
16807TIP3    H271837   2.730   1.446   5.531  0.1317  0.1460  1.3257
16808TIP3   OH271838   2.394   3.329   0.921  0.2432 -0.6914  0.0320
16808TIP3    H171839   2.479   3.288   0.935 -0.2873 -1.5387  0.8932
16808TIP3    H271840   2.384   3.390   0.994  0.2737 -0.3101 -0.2806
16809TIP3   OH271841   2.895   1.447   0.399  0.7018  0.1977 -0.4257
16809TIP3    H171842   2.956   1.483   0.462  1.4409  0.9062 -1.5028
16809TIP3    H271843   2.918   1.354   0.393  0.9240  0.2238  0.0035
16810TIP3   OH271844   3.770   4.219  14.731 -0.1659 -0.3227  0.2955
16810TIP3    H171845   3.849   4.206  14.680  0.3987 -1.1462  1.3383
16810TIP3    H271846   3.793   4.288  14.794 -0.0323 -1.0482  1.0568
16811TIP3   OH271847   1.683   2.468   1.573  0.0215  0.0278  0.4935
16811TIP3    H171848   1.708   2.544   1.521  1.4448  0.4180  1.6770
16811TIP3    H271849   1.617   2.423   1.520 -0.6539  1.9181 -0.3592
16812TIP3   OH271850   1.203   3.429   0.628  0.5005  0.1919  0.3599
16812TIP3    H171851   1.182   3.520   0.608 -0.5889 -0.4336 -1.5800
16812TIP3    H271852   1.143   3.407   0.700  0.3516  0.8276  0.4442
16813TIP3   OH271853   4.965   0.343   2.630 -0.6198 -0.1907  0.0474
16813TIP3    H171854   4.925   0.393   2.558 -1.5021 -0.9413  0.0047
16813TIP3    H271855   5.052   0.383   2.641 -1.3397  1.4556  0.1156
16814TIP3   OH271856   5.787   0.996  16.439  0.0687 -0.0729 -0.6887
16814TIP3    H171857   5.876   1.032  16.439  0.4461 -0.8869 -3.0569
16814TIP3    H271858   5.753   1.018  16.526  2.2420  1.0625 -0.0539
16815TIP3   OH271859   3.743   3.860  13.316  0.8665  0.2959  0.1840
16815TIP3    H171860   3.751   3.832  13.224 -0.1918  0.9850 -0.1400
16815TIP3    H271861   3.822   3.911  13.333  1.5299 -0.6179 -0.0365
16816TIP3   OH271862   4.582   1.249   4.314  0.6033  0.2321 -0.8449
16816TIP3    H171863   4.493   1.246   4.279 -0.0781 -3.9001  0.6218
16816TIP3    H271864   4.577   1.306   4.390 -0.4436  1.0162 -1.4782
16817TIP3   OH271865   1.350   1.935  14.923  0.0237  0.0623  0.3904
16817TIP3    H171866   1.263   1.963  14.892 -0.5828 -1.6985  0.3446
16817TIP3    H271867   1.342   1.933  15.018 -0.4846 -1.4363  0.3473
16818TIP3   OH271868   5.763   4.539  15.042 -0.0147 -0.4854 -0.5476
16818TIP3    H171869   5.789   4.518  14.952 -0.1642  1.2208 -1.0133
16818TIP3    H271870   5.709   4.617  15.034  2.2209  1.3689  1.2716
16819TIP3   OH271871   1.747   4.159  14.569 -0.3913 -0.2258  0.4543
16819TIP3    H171872   1.729   4.241  14.615  0.7431  0.2298  0.1068
16819TIP3    H271873   1.841   4.159  14.555 -0.4144 -1.4758  0.2115
16820TIP3   OH271874   3.170   0.626  14.500 -0.1670  0.4401  0.1453
16820TIP3    H171875   3.139   0.612  14.410  0.1564  1.1400 -0.0860
16820TIP3    H271876   3.116   0.568  14.553 -1.3636  1.0507 -0.3414
16821TIP3   OH271877   4.455   5.779  13.492  0.1487  0.0335 -0.2917
16821TIP3    H171878   4.498   5.708  13.445  0.6892  0.0037  0.2486
16821TIP3    H271879   4.450   5.850  13.428  1.7068  0.3148 -0.1400
16822TIP3   OH271880   6.759   3.716  12.893  0.3904 -0.1329 -0.4624
16822TIP3    H171881   6.757   3.640  12.950  1.0975  0.5235  0.4717
16822TIP3    H271882   6.846   3.754  12.905  0.1212  0.7190 -1.0391
16823TIP3   OH271883   3.157   0.016  13.005 -0.2575  0.4959 -0.4921
16823TIP3    H171884   3.122  -0.027  12.927 -1.2282  0.0870  0.1558
16823TIP3    H271885   3.113  -0.027  13.079 -1.3987  2.6715  0.1894
16824TIP3   OH271886   0.153   0.947   4.064 -0.4495 -0.0986  0.0662
16824TIP3    H171887   0.111   1.032   4.080  0.7936  0.6827 -0.5879
16824TIP3    H271888   0.161   0.942   3.969  0.7310 -0.3059  0.1598
16825TIP3   OH271889   0.544   0.307  12.535 -0.1207  0.3570  0.2750
16825TIP3    H171890   0.469   0.247  12.534 -0.3548  0.6499 -0.1828
16825TIP3    H271891   0.614   0.259  12.492 -0.0554  0.0963  0.6665
16826TIP3   OH271892   2.914   4.815   2.691  0.4728  0.3958 -0.5944
16826TIP3    H171893   2.972   4.841   2.762 -1.2517  1.8957  0.3228
16826TIP3    H271894   2.846   4.762   2.733 -0.9651  1.8914 -0.9616
16827TIP3   OH271895   5.025   4.714   1.199 -0.1942  0.0854  0.2717
16827TIP3    H171896   5.001   4.638   1.253 -0.1178  0.3045  0.6189
16827TIP3    H271897   5.111   4.692   1.163  0.1073  0.2643  0.8705
16828TIP3   OH271898   0.520   3.316   3.015  0.0678  0.2450  0.3029
16828TIP3    H171899   0.509   3.387   2.951 -1.8553  0.6770  1.0350
16828TIP3    H271900   0.545   3.361   3.096  0.1260 -0.0338  0.4393
16829TIP3   OH271901   6.569   5.950  11.802 -0.5973  0.0198 -0.2784
16829TIP3    H171902   6.507   5.955  11.875 -0.2518 -0.6366  0.0726
16829TIP3    H271903   6.585   5.856  11.791 -1.2318  0.0603 -1.7096
16830TIP3   OH271904   4.507   4.475   1.858 -0.3791  0.1037 -0.2374
16830TIP3    H171905   4.451   4.552   1.847 -1.0240 -0.4147 -0.6224
16830TIP3    H271906   4.589   4.510   1.892 -1.1107  0.8089  0.8664
16831TIP3   OH271907   2.922   4.360   2.992  0.6961  0.0336 -0.0387
16831TIP3    H171908   2.903   4.277   3.037  1.0567  1.7105  3.4774
16831TIP3    H271909   2.836   4.393   2.967  0.3361 -0.2711  0.7522
16832TIP3   OH271910   2.568   3.517  12.556 -0.5078 -0.1040 -0.1016
16832TIP3    H171911   2.504   3.582  12.586 -0.6475 -0.1426 -0.3137
16832TIP3    H271912   2.521   3.434  12.561 -0.6739 -0.0567 -0.8436
16833TIP3   OH271913   2.409   5.382  10.506 -0.2794 -0.2855  0.1743
16833TIP3    H171914   2.392   5.421  10.420  0.4970 -1.1328 -0.3847
16833TIP3    H271915   2.481   5.433  10.542  1.3717 -1.7023 -0.9572
16834TIP3   OH271916   4.158   6.420  12.881 -0.5962 -0.1400 -0.3816
16834TIP3    H171917   4.151   6.432  12.976 -0.6326  2.4962 -0.6584
16834TIP3    H271918   4.074   6.450  12.847 -0.3032 -0.3573 -1.3143
16835TIP3   OH271919   3.326   2.652   0.560  0.0194 -0.5064 -0.3600
16835TIP3    H171920   3.378   2.727   0.532 -1.7086  0.1502 -2.0342
16835TIP3    H271921   3.390   2.589   0.594  1.5902  1.3721  0.3417
16836TIP3   OH271922   3.784   0.921  15.606 -0.2477  0.3816  0.4863
16836TIP3    H171923   3.715   0.876  15.558 -0.9036  0.5026  1.3102
16836TIP3    H271924   3.742   0.954  15.685  0.6539  0.8237  0.7984
16837TIP3   OH271925   6.365   5.539   1.405 -0.5994  0.3962  0.4528
16837TIP3    H171926   6.335   5.466   1.352  2.9266 -0.3527 -0.8201
16837TIP3    H271927   6.384   5.608   1.341  3.7279 -0.5232  0.3953
16838TIP3   OH271928   5.144   2.888   3.987  0.0517  0.3884 -0.0988
16838TIP3    H171929   5.161   2.861   4.078  1.4529 -0.4522 -0.5696
16838TIP3    H271930   5.228   2.875   3.943  0.0134  2.8412 -1.0494
16839TIP3   OH271931   2.247   6.315  14.139 -0.2161  0.2813 -0.0186
16839TIP3    H171932   2.280   6.232  14.107  1.0517  1.7720 -2.9619
16839TIP3    H271933   2.160   6.295  14.174  0.7321 -2.5014  0.9312
16840TIP3   OH271934   2.370   1.363  14.797 -0.0509  0.5543 -0.3616
16840TIP3    H171935   2.343   1.274  14.819  0.4560 -0.0585 -2.1177
16840TIP3    H271936   2.305   1.419  14.839  0.4304 -0.5370  2.0113
16841TIP3   OH271937   2.688   2.895   3.006 -0.0408 -0.0525 -0.7559
16841TIP3    H171938   2.634   2.921   2.932  0.9805 -0.2071 -1.5694
16841TIP3    H271939   2.636   2.829   3.051 -0.5572 -0.1643 -1.5001
16842TIP3   OH271940   3.665   4.970  11.051 -0.5831 -0.1793 -0.9909
16842TIP3    H171941   3.594   5.016  11.095 -0.6613 -0.3996 -0.8849
16842TIP3    H271942   3.681   5.021  10.971  1.6317  2.0114  0.7130
16843TIP3   OH271943   5.272   2.048   4.014 -0.2231 -0.0654 -0.0449
16843TIP3    H171944   5.229   2.056   4.099 -0.0252 -0.2052  0.0702
16843TIP3    H271945   5.246   2.126   3.966 -1.1293 -0.4629 -0.2168
16844TIP3   OH271946   0.374   6.073  12.172  0.0235 -0.3468  0.3065
16844TIP3    H171947   0.324   6.052  12.092  0.1448  0.0178  0.1340
16844TIP3    H271948   0.324   6.031  12.242 -1.0051  0.6988  0.2453
16845TIP3   OH271949   1.095   3.443  12.592 -0.2330  0.2019 -0.5280
16845TIP3    H171950   1.006   3.476  12.585 -0.1856  0.3339 -0.5131
16845TIP3    H271951   1.105   3.384  12.518 -0.1496  0.6201 -0.8579
16846TIP3   OH271952   4.601   5.102   3.391 -0.2286  0.0521  0.2868
16846TIP3    H171953   4.624   5.052   3.469 -0.7270 -2.0251 -0.8304
16846TIP3    H271954   4.509   5.125   3.404 -0.5422 -0.9852 -0.0183
16847TIP3   OH271955   2.946   2.163   3.268  0.4630  0.2563  0.6305
16847TIP3    H171956   2.878   2.224   3.238 -1.1308 -1.6328  0.2093
16847TIP3    H271957   3.001   2.149   3.191 -1.4509 -1.7223 -0.5013
16848TIP3   OH271958   4.595   2.940   4.828  0.0665 -0.1830  0.0438
16848TIP3    H171959   4.562   2.922   4.740  1.5105  1.0422 -0.8000
16848TIP3    H271960   4.579   2.859   4.876  0.2686 -1.2944 -1.6624
16849TIP3   OH271961   1.673   2.684  15.200 -0.0777 -0.2116 -0.0556
16849TIP3    H171962   1.726   2.752  15.158 -1.6077 -0.2186 -2.1497
16849TIP3    H271963   1.719   2.665  15.282  1.4199  1.9811 -0.2981
16850TIP3   OH271964   0.833   3.764  16.676  0.5956 -0.5426 -0.2643
16850TIP3    H171965   0.780   3.840  16.649  1.9604  0.2514 -0.8072
16850TIP3    H271966   0.919   3.801  16.694  1.4043 -2.0422 -0.9292
16851TIP3   OH271967   4.698   4.573  12.444  0.0634  0.3054  0.2751
16851TIP3    H171968   4.691   4.516  12.367  0.2221  0.4720  0.1344
16851TIP3    H271969   4.645   4.649  12.422  0.9608  0.8375 -0.1226
16852TIP3   OH271970   0.655   3.255   1.123 -0.0495 -0.2592 -0.2488
16852TIP3    H171971   0.684   3.170   1.156 -1.2836 -0.4355  0.4213
16852TIP3    H271972   0.647   3.310   1.200 -1.4258 -0.2051 -0.4196
16853TIP3   OH271973   6.274   5.164   0.437  0.5131  0.5886 -0.0273
16853TIP3    H171974   6.178   5.173   0.444  0.6110  1.6849  0.0594
16853TIP3    H271975   6.305   5.173   0.527  0.6328 -0.9258  0.1109
16854TIP3   OH271976   1.617   4.051  16.980  0.1880  0.5332 -0.5025
16854TIP3    H171977   1.699   4.035  17.027  0.4793  1.8647 -0.5284
16854TIP3    H271978   1.614   3.983  16.913  0.2894 -0.7513  0.7290
16855TIP3   OH271979   1.239   4.996  15.460 -0.0199  0.6198 -0.1995
16855TIP3    H171980   1.280   4.947  15.531  0.9533  2.5423  0.6487
16855TIP3    H271981   1.288   5.079  15.457 -0.9995  1.1908 -2.1423
16856TIP3   OH271982   2.202   0.470  13.671  0.0144  0.4301 -0.7668
16856TIP3    H171983   2.249   0.522  13.737 -1.8184  1.6087 -0.3158
16856TIP3    H271984   2.148   0.410  13.722  1.3200 -1.2625 -1.2860
16857TIP3   OH271985   3.620   4.318   2.018  0.2433  0.0986  0.2339
16857TIP3    H171986   3.532   4.333   1.985 -0.0095 -1.6860 -0.0204
16857TIP3    H271987   3.624   4.223   2.032  0.7751  0.5461  4.0578
16858TIP3   OH271988   3.800   2.976   0.172 -0.3059 -0.1309 -0.1963
16858TIP3    H171989   3.756   2.996   0.254  1.1408 -1.1973  0.8985
16858TIP3    H271990   3.872   3.039   0.167  1.7033 -2.1747  1.1568
16859TIP3   OH271991   5.206   1.419  15.807 -0.0710 -0.3592  0.2765
16859TIP3    H171992   5.177   1.388  15.893  0.2259  0.9896  0.8794
16859TIP3    H271993   5.298   1.395  15.803  0.0382  0.0257  0.5352
16860TIP3   OH271994   2.267   3.285   3.291 -0.0307 -0.1825 -0.3161
16860TIP3    H171995   2.355   3.284   3.253 -0.1565 -0.4451 -0.5973
16860TIP3    H271996   2.224   3.208   3.256 -0.8502  0.6980 -1.3020
16861TIP3   OH271997   1.770   0.412  15.056  0.3187 -0.3434 -0.3642
16861TIP3    H171998   1.684   0.443  15.081 -0.0340 -2.0083  0.6131
16861TIP3    H271999   1.760   0.381  14.966 -0.8492 -2.9415  0.5611
16862TIP3   OH272000   4.400   2.926   0.498  0.0213 -0.3043 -0.1169
16862TIP3    H172001   4.379   2.979   0.575  0.7542 -2.9233  2.0280
16862TIP3    H272002   4.316   2.905   0.459 -0.4142  0.3103  0.4622
16863TIP3   OH272003   0.698   3.574  12.795  0.1930 -0.4108 -0.2491
16863TIP3    H172004   0.692   3.497  12.852 -0.0651  0.0689  0.3800
16863TIP3    H272005   0.637   3.556  12.723  0.3156 -0.8979 -0.2334
16864TIP3   OH272006   5.084   5.629  16.929 -0.0732 -0.1221 -0.2512
16864TIP3    H172007   5.154   5.593  16.984  1.9131  1.9719 -1.2266
16864TIP3    H272008   5.003   5.595  16.968  1.4376 -2.7842  0.8571
16865TIP3   OH272009   5.982   0.969   4.787  0.3187 -0.5327 -0.9875
16865TIP3    H172010   6.012   0.899   4.845 -0.1181 -1.2885 -1.6567
16865TIP3    H272011   5.978   0.928   4.700 -2.4173 -0.4126 -0.9898
16866TIP3   OH272012   5.248   3.149  15.382  0.1241  0.0182 -0.3213
16866TIP3    H172013   5.265   3.101  15.301  1.0368 -0.8993  0.3832
16866TIP3    H272014   5.164   3.192  15.367 -0.9601 -2.1279 -0.8716
16867TIP3   OH272015   1.608   1.664   4.581 -0.2233  0.0979 -0.7178
16867TIP3    H172016   1.589   1.570   4.576 -1.3672  0.3502 -1.5164
16867TIP3    H272017   1.611   1.683   4.675  1.3189 -0.9684 -0.5117
16868TIP3   OH272018   3.168   3.183  16.468 -0.6464  0.0588 -0.0329
16868TIP3    H172019   3.181   3.121  16.539 -0.0446  0.6086  0.3489
16868TIP3    H272020   3.096   3.146  16.417  0.9814 -1.9874 -0.9721
16869TIP3   OH272021   2.432   6.294  13.447 -0.0947  0.2473 -0.0000
16869TIP3    H172022   2.505   6.349  13.418 -0.5085  1.2422  0.8067
16869TIP3    H272023   2.397   6.338  13.524 -0.3879 -1.1970  0.7388
16870TIP3   OH272024   2.724   5.314  10.577 -0.0549 -0.5725 -0.0214
16870TIP3    H172025   2.687   5.402  10.573 -1.0461 -0.8213  2.1103
16870TIP3    H272026   2.674   5.264  10.513  0.8919  0.4852 -1.6623
16871TIP3   OH272027   2.675   0.904   0.591  0.0654 -0.0724 -0.3278
16871TIP3    H172028   2.770   0.913   0.584  0.3121 -0.3309  1.9539
16871TIP3    H272029   2.651   0.953   0.670 -2.0152  1.6550 -1.8795
16872TIP3   OH272030   3.951   3.510   4.633  0.0733  0.6425 -0.3510
16872TIP3    H172031   4.024   3.454   4.608 -1.2080 -0.5791 -1.4683
16872TIP3    H272032   3.991   3.576   4.691  1.7547 -0.9572  0.4302
16873TIP3   OH272033   2.496   4.033   3.162 -0.1846 -0.1276  0.1928
16873TIP3    H172034   2.516   4.116   3.204  0.5941 -0.3769  0.3446
16873TIP3    H272035   2.460   3.979   3.232 -4.8081  1.3587 -0.7163
16874TIP3   OH272036   5.772   6.104   0.158 -0.1636  0.6952  0.3449
16874TIP3    H172037   5.689   6.072   0.192 -0.5342  0.8538 -0.3998
16874TIP3    H272038   5.750   6.150   0.078  0.6310  0.8411  0.1955
16875TIP3   OH272039   6.410   6.627   0.874 -0.1008 -0.1986  0.1617
16875TIP3    H172040   6.382   6.536   0.870 -0.5325 -0.0908  0.5975
16875TIP3    H272041   6.328   6.677   0.875  0.0948  0.3427 -2.6929
16876TIP3   OH272042   0.475   1.978   6.449 -0.0593 -0.5764 -0.2180
16876TIP3    H172043   0.389   2.021   6.441 -0.2934 -1.1441 -0.9224
16876TIP3    H272044   0.530   2.042   6.493 -0.5562  0.2268 -0.7404
16877TIP3   OH272045   2.003   3.806  10.728 -0.1235  0.2996  0.3226
16877TIP3    H172046   1.995   3.853  10.645  0.0576 -0.2554 -0.0164
16877TIP3    H272047   2.020   3.715  10.702 -3.2082 -0.5334  0.9035
16878TIP3   OH272048   3.624   6.664  12.863 -0.2022  0.5404 -0.4828
16878TIP3    H172049   3.538   6.691  12.894 -0.1690  0.4577 -0.3163
16878TIP3    H272050   3.621   6.568  12.863  0.5720  0.4633  1.5296
16879TIP3   OH272051   2.475   2.706  16.369  0.2969 -0.0379 -0.1518
16879TIP3    H172052   2.389   2.730  16.334  0.5297  1.1087  0.0281
16879TIP3    H272053   2.488   2.615  16.341 -0.1404  0.3860 -1.8213
16880TIP3   OH272054   2.439   6.728  14.357  0.1081 -0.0823  0.5955
16880TIP3    H172055   2.438   6.653  14.298  0.5685 -0.6130  1.2526
16880TIP3    H272056   2.381   6.792  14.315  2.0907  0.4476 -1.5754
16881TIP3   OH272057   4.628   1.784   1.118 -0.3465 -0.0311  0.3702
16881TIP3    H172058   4.570   1.843   1.166  1.0234  2.1893 -0.5326
16881TIP3    H272059   4.713   1.793   1.162  0.0761 -0.7470 -0.2692
16882TIP3   OH272060   3.757   3.342  12.898 -0.4139 -0.5452 -1.0050
16882TIP3    H172061   3.739   3.388  12.816  1.2556 -1.1216 -1.7464
16882TIP3    H272062   3.738   3.250  12.879  0.1131 -0.7004 -0.7900
16883TIP3   OH272063   2.337   0.659  11.536  0.6586 -0.0735 -0.2108
16883TIP3    H172064   2.288   0.719  11.593 -0.0345 -0.7878 -0.0287
16883TIP3    H272065   2.348   0.707  11.454  0.1957  0.3410 -0.0347
16884TIP3   OH272066   6.633   3.980  16.488 -0.2381  0.1734 -0.4916
16884TIP3    H172067   6.612   4.060  16.440  2.0753  0.5096 -1.0382
16884TIP3    H272068   6.651   3.915  16.421  1.5108  0.2314 -0.1266
16885TIP3   OH272069   2.739   6.534  14.066 -0.8744  0.9274  0.3762
16885TIP3    H172070   2.803   6.592  14.023 -0.3857  0.4249  0.4177
16885TIP3    H272071   2.781   6.448  14.067 -1.5567  0.5849  0.4023
16886TIP3   OH272072   3.206   4.149  12.459 -0.4258 -0.1887 -0.5099
16886TIP3    H172073   3.279   4.140  12.521 -1.5335 -2.2176  0.6282
16886TIP3    H272074   3.144   4.207  12.503  0.0695  0.7963 -1.0776
16887TIP3   OH272075   2.417   1.550  11.820 -0.4957 -0.2488 -0.5653
16887TIP3    H172076   2.454   1.628  11.777 -2.0057  0.4525 -0.6303
16887TIP3    H272077   2.473   1.536  11.896  0.0911  0.5998 -0.8256
16888TIP3   OH272078   3.958   1.911  14.019  0.1514 -0.4138 -0.1697
16888TIP3    H172079   3.987   1.836  14.070  3.5404  0.9175  0.1189
16888TIP3    H272080   3.990   1.987  14.067  1.4589  0.9848 -2.9711
16889TIP3   OH272081   6.046   5.120   5.031 -0.0607 -0.7100  0.1619
16889TIP3    H172082   6.064   5.211   5.007 -1.1457 -0.1772  1.2794
16889TIP3    H272083   6.085   5.110   5.118 -0.3045 -1.1781  0.2199
16890TIP3   OH272084   0.118   5.696  12.658  0.2415  0.4071  0.1216
16890TIP3    H172085   0.109   5.701  12.563 -0.5779 -1.3477  0.0663
16890TIP3    H272086   0.058   5.762  12.691  0.1045  0.6458 -0.5856
16891TIP3   OH272087   1.248   2.491  14.416 -0.4925  0.5194  0.1737
16891TIP3    H172088   1.287   2.405  14.429  0.6479  0.8334 -1.0294
16891TIP3    H272089   1.181   2.497  14.485  1.4343 -0.0988  2.2370
16892TIP3   OH272090   0.264   6.563   1.845  0.2513  0.4668  0.6572
16892TIP3    H172091   0.317   6.642   1.856  2.4846 -1.0469  1.6117
16892TIP3    H272092   0.322   6.492   1.873 -1.3177 -1.6224 -1.0867
16893TIP3   OH272093   6.723   1.565  15.219 -1.1507 -0.6385  0.3593
16893TIP3    H172094   6.742   1.553  15.312 -2.3504 -0.4064  0.6537
16893TIP3    H272095   6.638   1.610  15.218 -1.2803 -0.8870 -0.8523
16894TIP3   OH272096   5.876   4.875  11.652 -0.1544 -0.2716 -0.6109
16894TIP3    H172097   5.881   4.787  11.691 -0.8029 -0.9336 -1.9531
16894TIP3    H272098   5.952   4.880  11.595 -1.0402 -0.6626 -1.8684
16895TIP3   OH272099   3.824   3.795   5.284  0.1433  0.3026 -0.7139
16895TIP3    H172100   3.848   3.885   5.308 -0.3544  0.0891  0.6463
16895TIP3    H272101   3.860   3.741   5.353 -0.7402 -0.4134 -0.7979
16896TIP3   OH272102   2.733   6.090  14.374  0.0193  0.5595  0.0037
16896TIP3    H172103   2.637   6.091  14.374 -0.0578  1.5480 -2.5921
16896TIP3    H272104   2.756   5.998  14.361 -0.5192  0.2235  1.2652
16897TIP3   OH272105   5.719   2.842   0.696  0.2826 -0.3369  0.4093
16897TIP3    H172106   5.662   2.806   0.628 -1.4831  2.0367  0.4947
16897TIP3    H272107   5.756   2.766   0.739 -1.7050 -2.0018 -0.6377
16898TIP3   OH272108   0.704   6.399  15.974 -0.1872 -0.2537 -0.2699
16898TIP3    H172109   0.718   6.490  15.951 -0.7529  0.6289  2.4506
16898TIP3    H272110   0.790   6.359  15.967  0.1923  0.6408 -0.8676
16899TIP3   OH272111   4.474   6.592  11.216 -0.2651 -0.3122  0.8346
16899TIP3    H172112   4.445   6.606  11.126  1.0239  0.4098  0.5108
16899TIP3    H272113   4.395   6.605  11.269 -0.8994 -0.1343 -0.1303
16900TIP3   OH272114   2.531   6.458  12.532  0.0011  0.1067 -0.4722
16900TIP3    H172115   2.529   6.398  12.606 -1.1259 -0.1488 -0.6915
16900TIP3    H272116   2.446   6.446  12.489  0.3709  0.7393 -1.4119
16901TIP3   OH272117   1.805   6.788  14.712  0.0388 -0.3091  0.1128
16901TIP3    H172118   1.766   6.875  14.704 -0.2905 -0.2993  1.5756
16901TIP3    H272119   1.735   6.734  14.748  1.4829 -0.1014  3.6273
16902TIP3   OH272120   0.579   2.900  16.601  0.5087 -0.1678 -0.5818
16902TIP3    H172121   0.587   2.995  16.594 -0.4565 -0.0652 -0.4031
16902TIP3    H272122   0.540   2.873  16.517 -0.5070 -0.2358 -0.1031
16903TIP3   OH272123   2.937   6.777  12.395 -0.1502 -0.1904 -0.7188
16903TIP3    H172124   2.877   6.841  12.357 -0.8396  0.1633  0.8956
16903TIP3    H272125   2.887   6.695  12.395 -0.5444  0.0280  0.2967
16904TIP3   OH272126   2.006   4.251   5.185  0.1365 -0.1426 -0.1947
16904TIP3    H172127   1.992   4.316   5.254 -0.2291 -1.0408  0.5936
16904TIP3    H272128   2.094   4.217   5.202  0.7298  0.8124 -1.1967
16905TIP3   OH272129   0.317   2.592   0.908  0.6255  0.0075  0.2338
16905TIP3    H172130   0.333   2.522   0.971 -3.0764 -0.6964  0.6376
16905TIP3    H272131   0.328   2.550   0.823 -1.2010 -1.0617  0.4756
16906TIP3   OH272132   1.624   1.365  13.775 -0.8383  0.9376  0.8396
16906TIP3    H172133   1.675   1.291  13.741 -1.4067  0.8035  0.2594
16906TIP3    H272134   1.630   1.431  13.705 -2.2861  0.5409  0.3112
16907TIP3   OH272135   3.696   6.117  13.496 -0.1824  0.5750  0.0772
16907TIP3    H172136   3.685   6.045  13.558 -0.1112  1.0671  0.6814
16907TIP3    H272137   3.725   6.076  13.415 -1.8195 -0.2484 -0.1256
16908TIP3   OH272138   4.779   4.749  11.959 -0.7204 -0.2700  0.8708
16908TIP3    H172139   4.774   4.659  11.991  1.3191 -0.4220  0.8658
16908TIP3    H272140   4.814   4.741  11.871 -0.2014  0.5465  0.9961
16909TIP3   OH272141   3.640   1.609  13.497 -0.2851  0.0102 -0.1711
16909TIP3    H172142   3.716   1.576  13.544 -0.1416 -2.8325 -2.0932
16909TIP3    H272143   3.662   1.595  13.404 -2.7944 -0.1478 -0.8155
16910TIP3   OH272144   1.838   2.848   0.353  0.2393  0.2742  0.5185
16910TIP3    H172145   1.922   2.865   0.312 -1.1112  0.2768 -2.5320
16910TIP3    H272146   1.814   2.931   0.394  1.8431  0.1470  1.7844
16911TIP3   OH272147   5.384   5.514  11.451 -0.2110 -0.2432  0.2400
16911TIP3    H172148   5.389   5.576  11.378 -1.0722 -0.8687 -0.3639
16911TIP3    H272149   5.357   5.431  11.411 -0.3211 -0.6975  1.2197
16912TIP3   OH272150   2.857   3.279  13.494  0.1148  0.3893 -0.0295
16912TIP3    H172151   2.830   3.352  13.550 -2.6832  0.6503 -1.5312
16912TIP3    H272152   2.906   3.320  13.423  0.2775  0.5496  0.1730
16913TIP3   OH272153   0.689   3.398  11.659 -0.0273 -0.6201  0.3832
16913TIP3    H172154   0.602   3.381  11.623 -1.0327  1.9942  1.3476
16913TIP3    H272155   0.748   3.391  11.583 -0.4837 -5.2194  0.1493
16914TIP3   OH272156   4.651   6.395  16.748  0.2534  0.3764  0.2750
16914TIP3    H172157   4.611   6.480  16.733 -1.3591 -0.4261 -0.1955
16914TIP3    H272158   4.590   6.349  16.806  0.1945 -1.0682 -0.8553
16915TIP3   OH272159   3.659   1.543  12.900  0.1567 -0.1096  0.1469
16915TIP3    H172160   3.595   1.493  12.950  1.0407 -1.5710 -0.1123
16915TIP3    H272161   3.610   1.617  12.865 -1.0308 -0.3769  1.1742
16916TIP3   OH272162   2.711   0.725   4.582  0.2289 -0.0466 -0.3790
16916TIP3    H172163   2.800   0.753   4.562  0.2367 -0.7433 -1.4064
16916TIP3    H272164   2.721   0.639   4.623  0.0746  0.2903  0.3746
16917TIP3   OH272165   2.780   4.801  12.193 -0.1241  0.6532 -0.3168
16917TIP3    H172166   2.694   4.759  12.195 -0.9665  2.2805 -1.0966
16917TIP3    H272167   2.810   4.798  12.284 -0.3726 -1.1045 -0.2509
16918TIP3   OH272168   4.413   3.845  10.900  0.4466  0.2942  0.3342
16918TIP3    H172169   4.507   3.850  10.914  0.8558  1.0841 -2.1419
16918TIP3    H272170   4.375   3.841  10.988  2.7194  0.9150  1.4045
16919TIP3   OH272171   4.843   0.080  11.718 -0.0375  0.5261 -0.0909
16919TIP3    H172172   4.893   0.112  11.642 -0.4691  1.9262  0.1919
16919TIP3    H272173   4.790   0.155  11.745 -1.1635 -0.4774  0.5578
16920TIP3   OH272174   1.945   2.179   1.483 -0.1022  0.5494 -0.3158
16920TIP3    H172175   1.941   2.272   1.464  0.0268  0.7885  0.7741
16920TIP3    H272176   1.884   2.167   1.556  1.7115  0.2363  1.2280
16921TIP3   OH272177   0.405   0.975   0.228 -0.5593  0.1361  0.3488
16921TIP3    H172178   0.380   0.883   0.235 -1.6510  0.4187  0.2053
16921TIP3    H272179   0.388   1.011   0.315  0.2598  0.1165  0.5257
16922TIP3   OH272180   3.080   0.190  12.158 -0.1238  0.4315 -0.5412
16922TIP3    H172181   3.014   0.127  12.129 -2.0761  1.9198  0.3812
16922TIP3    H272182   3.161   0.161  12.116 -1.0399 -2.2853 -0.6371
16923TIP3   OH272183   0.392   4.205   0.565 -0.1173  0.2790 -0.0752
16923TIP3    H172184   0.327   4.155   0.516 -0.8864  0.0107  1.1720
16923TIP3    H272185   0.348   4.228   0.647  0.6716  1.8648 -0.0552
16924TIP3   OH272186   5.093   5.926   3.695  0.6574 -0.2904 -0.1577
16924TIP3    H172187   5.134   5.998   3.742  2.7277 -0.2152 -1.8765
16924TIP3    H272188   5.165   5.865   3.677 -0.4088 -1.2281 -1.4972
16925TIP3   OH272189   5.856   2.966   1.842  0.6768 -0.5860 -0.6913
16925TIP3    H172190   5.942   3.009   1.840  0.4423  0.0316  0.8384
16925TIP3    H272191   5.843   2.944   1.935 -2.1292  2.0950 -0.3006
16926TIP3   OH272192   2.663   5.256  13.194  0.6648  0.5458 -0.5724
16926TIP3    H172193   2.593   5.206  13.236  2.1251  0.1465  1.5638
16926TIP3    H272194   2.742   5.232  13.243  1.5292  4.6586  0.4442
16927TIP3   OH272195   2.568   1.084  11.468  0.6156  0.3465  0.3200
16927TIP3    H172196   2.568   1.041  11.382  0.8574  1.8590 -0.4758
16927TIP3    H272197   2.581   1.013  11.531  0.9300 -0.7399 -0.9324
16928TIP3   OH272198   5.567   0.258   0.955  0.5802 -0.1672  0.2602
16928TIP3    H172199   5.511   0.199   0.905 -1.1699 -0.5281  2.4677
16928TIP3    H272200   5.534   0.346   0.934  1.0152 -0.1846 -0.5223
16929TIP3   OH272201   0.807   0.228   3.593  0.4927  0.2066 -0.3166
16929TIP3    H172202   0.757   0.191   3.520 -1.7462  2.4674 -0.0584
16929TIP3    H272203   0.860   0.297   3.553  1.9280 -0.8185 -0.2625
16930TIP3   OH272204   5.443   6.117  15.197 -0.5414  0.2931 -0.5129
16930TIP3    H172205   5.359   6.111  15.243  0.9826  0.0862  2.5075
16930TIP3    H272206   5.469   6.209  15.210 -0.9877  0.8218 -2.9133
16931TIP3   OH272207   4.431   4.952   5.047  0.2406 -0.2335 -0.5306
16931TIP3    H172208   4.494   5.023   5.060  1.1242 -1.0813 -0.0880
16931TIP3    H272209   4.364   4.967   5.114  1.3210 -0.7710  0.7194
16932TIP3   OH272210   6.545   0.432  11.610  0.3012  1.0065  0.5478
16932TIP3    H172211   6.518   0.349  11.649 -0.2901  1.7039  1.6744
16932TIP3    H272212   6.616   0.408  11.551  0.6685 -0.2078  1.4276
16933TIP3   OH272213   0.577   6.192   4.725 -0.1686 -0.2786  0.2099
16933TIP3    H172214   0.525   6.247   4.783  3.1959  2.4873  0.9648
16933TIP3    H272215   0.633   6.142   4.784  0.3502 -0.6280 -0.5641
16934TIP3   OH272216   1.302   1.823  11.884  0.0626 -0.0337  0.0446
16934TIP3    H172217   1.393   1.802  11.906  0.3759  0.6815 -0.5584
16934TIP3    H272218   1.269   1.867  11.962  0.8410  1.4875 -0.4435
16935TIP3   OH272219   5.403   0.999   6.040 -0.4690  0.2512 -0.6093
16935TIP3    H172220   5.337   0.994   6.109  0.7489 -0.3228  0.5681
16935TIP3    H272221   5.420   1.092   6.030  0.9422  0.3041  1.5286
16936TIP3   OH272222   0.706   6.656  12.302 -0.0070 -0.0242 -0.9257
16936TIP3    H172223   0.672   6.566  12.303 -2.3026  0.6428  3.0001
16936TIP3    H272224   0.787   6.652  12.353 -0.1266  0.1271 -0.7222
16937TIP3   OH272225   3.159   1.202   3.932  0.3862 -0.0018  0.0171
16937TIP3    H172226   3.220   1.245   3.873  0.1310 -1.4699 -1.3848
16937TIP3    H272227   3.073   1.220   3.896  0.2278 -0.9429 -0.1029
16938TIP3   OH272228   6.608   4.364   3.734 -0.0663 -0.0167  0.1210
16938TIP3    H172229   6.652   4.439   3.693 -0.2061 -1.0345 -2.0335
16938TIP3    H272230   6.580   4.310   3.660 -3.3469 -0.3286  1.4454
16939TIP3   OH272231   4.854   0.720  16.780 -0.3850 -0.4799 -0.2081
16939TIP3    H172232   4.901   0.802  16.792 -1.5823  0.2511 -0.3245
16939TIP3    H272233   4.917   0.652  16.804  1.1155  0.3881 -1.5614
16940TIP3   OH272234   3.493   0.696   6.126 -0.1270 -0.7169  0.0772
16940TIP3    H172235   3.432   0.642   6.076 -2.7384  1.3711  0.7265
16940TIP3    H272236   3.521   0.764   6.065 -2.2471  1.0385  0.9218
16941TIP3   OH272237   5.919   5.220   3.618 -0.5525  0.1280  0.0160
16941TIP3    H172238   5.872   5.242   3.538  0.8797  0.9271 -0.6457
16941TIP3    H272239   5.993   5.166   3.589  0.0450  0.5224  0.7671
16942TIP3   OH272240   6.549   1.014   2.368 -0.0805  0.0250 -0.1951
16942TIP3    H172241   6.519   1.049   2.452 -0.9593 -0.0765 -0.4490
16942TIP3    H272242   6.496   1.060   2.303  0.9846  0.5132 -0.7437
16943TIP3   OH272243   6.117   3.673   5.567  0.4815  0.1437 -0.1752
16943TIP3    H172244   6.028   3.653   5.539  0.6947 -0.2723 -0.5639
16943TIP3    H272245   6.116   3.659   5.662  0.0182  0.5784 -0.1142
16944TIP3   OH272246   4.192   5.362   5.885  0.0982  0.9963  0.2922
16944TIP3    H172247   4.185   5.299   5.813 -0.4679  2.9713 -1.4956
16944TIP3    H272248   4.208   5.308   5.963 -0.5329 -1.3312 -1.0857
16945TIP3   OH272249   3.410   0.896  15.828 -0.3102  0.0329  0.0114
16945TIP3    H172250   3.483   0.947  15.793 -0.1517 -1.0968 -1.3783
16945TIP3    H272251   3.390   0.938  15.912  1.0807  1.1564 -0.1781
16946TIP3   OH272252   2.120   5.323   6.415  0.1037  0.4237  0.1512
16946TIP3    H172253   2.180   5.266   6.464  1.0654  0.0726 -1.3874
16946TIP3    H272254   2.175   5.365   6.349 -1.1663  0.8841 -0.6436
16947TIP3   OH272255   3.308   4.608   4.837 -0.1066 -0.4345  0.2035
16947TIP3    H172256   3.364   4.590   4.913 -0.7982  0.1598  0.8750
16947TIP3    H272257   3.221   4.580   4.865 -0.5333  0.6148 -0.0322
16948TIP3   OH272258   5.348   5.744   5.625 -0.1318  0.3717 -0.0829
16948TIP3    H172259   5.439   5.718   5.611 -0.2018  0.7732 -1.4704
16948TIP3    H272260   5.314   5.683   5.690  1.0974  0.1585  0.3684
16949TIP3   OH272261   5.244   3.727  16.299  0.1526 -0.0261 -0.1809
16949TIP3    H172262   5.166   3.675  16.318  0.7309 -0.4080  1.2511
16949TIP3    H272263   5.230   3.809  16.347  1.5018 -0.8885  1.8107
16950TIP3   OH272264   1.634   5.724   5.120 -0.2831 -0.0049 -0.1250
16950TIP3    H172265   1.572   5.789   5.152 -0.0313  0.7715 -1.1413
16950TIP3    H272266   1.713   5.774   5.099  0.4105 -0.8563  0.3906
16951TIP3   OH272267   5.698   2.353  16.155 -0.2881  0.4188 -0.0064
16951TIP3    H172268   5.620   2.311  16.190  0.9745 -2.5660 -0.5334
16951TIP3    H272269   5.690   2.345  16.060  0.1279  1.1497 -0.1152
16952TIP3   OH272270   0.632   5.671   5.091  0.3040 -0.2168  0.0620
16952TIP3    H172271   0.611   5.630   5.175 -0.4622  1.1629  0.5641
16952TIP3    H272272   0.641   5.597   5.031  0.7403 -1.2324  1.3039
16953TIP3   OH272273   1.246   6.745  15.736 -0.0432  0.1895  0.5353
16953TIP3    H172274   1.302   6.804  15.685  0.2159  0.4723  1.1312
16953TIP3    H272275   1.266   6.767  15.827  1.3941 -2.0660  0.8199
16954TIP3   OH272276   3.774   2.321   1.843 -0.0802 -0.5032  0.1788
16954TIP3    H172277   3.733   2.386   1.900 -1.4248 -2.1336  1.1393
16954TIP3    H272278   3.821   2.263   1.902  0.4569 -0.8918 -0.6062
16955TIP3   OH272279   0.656   0.227  15.941 -0.1680  0.0009 -0.1072
16955TIP3    H172280   0.672   0.281  15.864 -0.8506  1.5260  0.7856
16955TIP3    H272281   0.592   0.162  15.912  0.4880 -0.2126 -1.1293
16956TIP3   OH272282   1.671   4.911  13.438  0.1244  0.0264  0.4817
16956TIP3    H172283   1.663   4.832  13.386 -0.1700 -0.4594  1.2452
16956TIP3    H272284   1.581   4.934  13.461  0.1943  0.6836  0.1234
16957TIP3   OH272285   1.266   5.100   4.252  0.0390  0.4708  0.3613
16957TIP3    H172286   1.266   5.190   4.286  1.5421  0.2751  0.9301
16957TIP3    H272287   1.357   5.083   4.228  0.1576 -1.5244  1.9769
16958TIP3   OH272288   5.423   6.336  14.715 -0.2375  0.1919  0.1749
16958TIP3    H172289   5.447   6.252  14.754 -2.1565 -0.3599  0.2816
16958TIP3    H272290   5.440   6.324  14.621 -1.4750 -0.7379  0.0382
16959TIP3   OH272291   0.123   0.559  14.196  0.0728  0.9175  0.4181
16959TIP3    H172292   0.080   0.478  14.222 -0.3492  0.9160 -0.2428
16959TIP3    H272293   0.213   0.550  14.228  0.0963  0.0791  0.1512
16960TIP3   OH272294   3.415   3.637   5.185  0.0387 -0.2225  0.2752
16960TIP3    H172295   3.429   3.672   5.097 -1.1040 -2.2452 -0.7854
16960TIP3    H272296   3.504   3.626   5.221  0.4849  2.2931  0.1590
16961TIP3   OH272297   5.549   0.605  14.178 -0.0670  0.2248 -0.5511
16961TIP3    H172298   5.456   0.627  14.179  0.2500  1.6922  0.9288
16961TIP3    H272299   5.555   0.529  14.120 -2.3321 -0.5811  0.1546
16962TIP3   OH272300   0.828   3.018   0.930 -0.2588  0.3106  0.0871
16962TIP3    H172301   0.765   3.067   0.983 -1.8827 -0.5392 -0.9751
16962TIP3    H272302   0.913   3.055   0.954 -0.8874  0.1064  3.1112
16963TIP3   OH272303   6.597   6.461  13.159  0.4721 -0.4170  0.6830
16963TIP3    H172304   6.605   6.380  13.109  0.1147  0.3527 -0.6923
16963TIP3    H272305   6.672   6.513  13.132  0.3231 -0.0239  1.0140
16964TIP3   OH272306   4.664   0.520  10.889  0.1860 -0.4447 -0.1434
16964TIP3    H172307   4.636   0.610  10.908 -1.1457 -1.0628  0.9315
16964TIP3    H272308   4.591   0.483  10.839  0.8462 -0.8751 -0.8156
16965TIP3   OH272309   0.879   3.564  15.521  0.0473  0.4787 -0.1003
16965TIP3    H172310   0.934   3.607  15.455  1.0611  1.7623  1.4798
16965TIP3    H272311   0.926   3.484  15.543  0.3389  0.6585 -0.0650
16966TIP3   OH272312   4.446   4.566   3.934  0.5197 -0.1636  0.4861
16966TIP3    H172313   4.426   4.572   4.028 -0.5437 -1.3247  0.3643
16966TIP3    H272314   4.426   4.654   3.900  0.3449  0.1043  1.2449
16967TIP3   OH272315   3.319   6.633  13.713 -0.0253 -0.1154  0.5554
16967TIP3    H172316   3.256   6.623  13.785  1.3878  1.8283  2.1890
16967TIP3    H272317   3.376   6.557  13.721  0.6040  0.4774  2.0768
16968TIP3   OH272318   4.351   3.357  15.643  0.0063  0.3369  0.0086
16968TIP3    H172319   4.304   3.365  15.726  0.3640 -1.1501  0.3932
16968TIP3    H272320   4.348   3.264  15.623  0.8478  0.5313 -1.1079
16969TIP3   OH272321   2.180   6.052   5.565  0.5224 -0.6633 -0.0461
16969TIP3    H172322   2.182   6.006   5.482  0.5962 -1.3182  0.3115
16969TIP3    H272323   2.226   6.135   5.548  0.4041 -0.7254 -0.6877
16970TIP3   OH272324   4.393   0.995   2.696  0.8128  0.1626 -0.3011
16970TIP3    H172325   4.455   1.019   2.628 -0.2249  0.1084 -1.2909
16970TIP3    H272326   4.311   0.980   2.650 -0.5492  2.3841  1.1998
16971TIP3   OH272327   6.048   4.082   3.326  0.1864 -0.0248 -0.1771
16971TIP3    H172328   6.108   4.009   3.338 -0.5549 -0.6105  0.0334
16971TIP3    H272329   5.961   4.044   3.336 -0.2036  0.9692  0.4027
16972TIP3   OH272330   4.776   5.711   0.413  0.4956 -0.2047 -0.0425
16972TIP3    H172331   4.690   5.731   0.377  0.5628  1.1869  0.4997
16972TIP3    H272332   4.766   5.721   0.508  1.7528  2.3152 -0.0815
16973TIP3   OH272333   3.882   5.873  16.011  0.2539  0.0531  0.0321
16973TIP3    H172334   3.805   5.819  15.999 -0.5029  1.1137  0.0059
16973TIP3    H272335   3.925   5.838  16.089  2.1784 -3.3305 -2.2917
16974TIP3   OH272336   3.735   5.261  13.952 -0.1093 -0.1582  0.6013
16974TIP3    H172337   3.647   5.223  13.952 -0.6552  1.0261 -0.5201
16974TIP3    H272338   3.751   5.285  14.043 -1.5790  0.9737  0.6005
16975TIP3   OH272339   4.006   5.464   3.447  0.4181  0.0239  0.1594
16975TIP3    H172340   3.938   5.450   3.513 -0.0872  1.7579  0.0399
16975TIP3    H272341   4.088   5.458   3.497  0.0418  1.4716  1.0162
16976TIP3   OH272342   0.363   4.116  11.546 -0.0648 -0.2475  0.4246
16976TIP3    H172343   0.415   4.038  11.567 -1.1119 -0.7182  1.3712
16976TIP3    H272344   0.300   4.085  11.480  1.7694  0.6858 -1.8962
16977TIP3   OH272345   4.734   0.033  14.212  0.6887 -0.2556  0.0147
16977TIP3    H172346   4.762   0.068  14.297 -1.3676  0.5072  0.4502
16977TIP3    H272347   4.708   0.110  14.162 -1.5151 -0.9097  0.0532
16978TIP3   OH272348   5.607   6.471  12.656 -0.1257  0.1547  0.1021
16978TIP3    H172349   5.622   6.383  12.621 -1.2492  0.0820 -0.2203
16978TIP3    H272350   5.537   6.459  12.720 -0.1606  0.7906  0.1847
16979TIP3   OH272351   2.301   4.446  15.143  0.1701  0.1892 -0.2053
16979TIP3    H172352   2.262   4.379  15.199  0.1228 -0.3367 -0.8699
16979TIP3    H272353   2.339   4.509  15.205  0.1570 -0.4079  0.4203
16980TIP3   OH272354   0.289   0.644  16.355  0.4050  0.5297 -0.4907
16980TIP3    H172355   0.346   0.715  16.324  0.6520  0.0346 -1.2084
16980TIP3    H272356   0.212   0.649  16.297  0.5704  0.0050 -0.7543
16981TIP3   OH272357   1.429   4.743  15.213 -0.4715  0.1701 -0.2431
16981TIP3    H172358   1.452   4.740  15.306 -0.4593 -1.2918 -0.2738
16981TIP3    H272359   1.418   4.836  15.194  2.3895  0.7835  0.5318
16982TIP3   OH272360   2.890   1.077   1.591  0.1995  0.2631  0.0644
16982TIP3    H172361   2.839   1.156   1.610  2.5182  1.7291  0.4923
16982TIP3    H272362   2.906   1.080   1.497  0.2466  0.2703  0.0727
16983TIP3   OH272363   0.993   0.070  16.780  0.4412 -0.1174 -0.8466
16983TIP3    H172364   0.996   0.084  16.874  1.0672  0.6963 -0.9753
16983TIP3    H272365   1.084   0.050  16.756  0.3435  0.0060 -1.3267
16984TIP3   OH272366   3.627   1.770  13.142 -0.0692  0.1782  0.8731
16984TIP3    H172367   3.545   1.748  13.097  0.3731  1.5053 -0.6447
16984TIP3    H272368   3.660   1.686  13.173 -1.2888 -0.5549  0.2752
16985TIP3   OH272369   4.026   1.091  10.434  0.7539  0.4679  0.5060
16985TIP3    H172370   3.958   1.086  10.367 -0.2635  0.3662  1.5128
16985TIP3    H272371   4.103   1.051  10.393 -0.3715 -1.3248  0.0212
16986TIP3   OH272372   6.746   0.411  10.904  0.2540  0.3426 -0.6949
16986TIP3    H172373   6.782   0.324  10.915 -0.8831 -0.0489  0.2377
16986TIP3    H272374   6.816   0.470  10.930  0.4421 -0.3662  0.4729
16987TIP3   OH272375   1.761   0.119   0.276  0.2021  0.5696 -0.5663
16987TIP3    H172376   1.733   0.078   0.194 -0.3660  0.7296 -0.4563
16987TIP3    H272377   1.855   0.099   0.281  0.2643  0.6319 -1.2931
16988TIP3   OH272378   4.237   5.759   1.282  0.0064  0.7464  0.1104
16988TIP3    H172379   4.297   5.684   1.273  1.5105  2.0377 -1.2830
16988TIP3    H272380   4.150   5.720   1.285  0.8294 -1.1362  0.9097
16989TIP3   OH272381   2.182   2.771   2.541 -0.2342 -0.3756 -0.0966
16989TIP3    H172382   2.133   2.703   2.494  0.3228 -2.6981  2.3971
16989TIP3    H272383   2.116   2.833   2.570 -1.1807 -1.2996 -0.2050
16990TIP3   OH272384   2.032   5.796  12.875 -0.1635  0.0589  0.4430
16990TIP3    H172385   2.074   5.710  12.872  0.3302  0.2989 -1.7970
16990TIP3    H272386   2.103   5.857  12.856 -0.3854  1.0707  2.5940
16991TIP3   OH272387   0.823   1.018   4.103 -0.8669  0.3862  0.3537
16991TIP3    H172388   0.891   1.076   4.136 -1.1661  0.2952  1.1612
16991TIP3    H272389   0.833   0.937   4.154  0.4709 -0.8580 -1.7142
16992TIP3   OH272390   2.723   0.717   0.927 -0.2743 -0.2255 -0.0125
16992TIP3    H172391   2.639   0.734   0.885 -1.0291  0.0414  1.5217
16992TIP3    H272392   2.736   0.623   0.919 -0.1866 -0.1251 -1.1922
16993TIP3   OH272393   6.663   2.462  13.468  0.5670  0.3492 -0.3219
16993TIP3    H172394   6.664   2.432  13.559  0.4773 -0.1602 -0.4850
16993TIP3    H272395   6.608   2.397  13.423  1.1061  0.2617 -0.8547
16994TIP3   OH272396   4.619   0.715   1.273  0.3484 -0.3593 -0.2706
16994TIP3    H172397   4.686   0.783   1.274  0.5176 -0.4708  2.4667
16994TIP3    H272398   4.669   0.633   1.268  0.5055 -0.4407  1.7318
16995TIP3   OH272399   1.719   2.288  14.926  0.0242 -0.1066 -0.1216
16995TIP3    H172400   1.783   2.217  14.930  0.0324 -0.0436  1.1222
16995TIP3    H272401   1.635   2.245  14.909  0.1321 -0.3439 -0.0439
16996TIP3   OH272402   1.616   0.445   1.104  0.2750 -0.4989 -0.0895
16996TIP3    H172403   1.540   0.441   1.161  0.1945  1.0026 -0.0425
16996TIP3    H272404   1.642   0.538   1.105  1.9237 -0.9229 -0.3379
16997TIP3   OH272405   1.562   6.161  14.198 -0.0527  0.1499  0.1517
16997TIP3    H172406   1.523   6.077  14.172 -2.7056  1.5566 -0.7550
16997TIP3    H272407   1.596   6.145  14.286 -0.1214 -1.9624 -0.1522
16998TIP3   OH272408   4.759   5.944  16.780 -0.4203 -0.3659  0.6312
16998TIP3    H172409   4.684   5.980  16.829 -1.9640 -0.7698 -1.3009
16998TIP3    H272410   4.727   5.937  16.690  1.8565 -0.9179 -0.1924
16999TIP3   OH272411   4.852   3.532  11.609 -0.0451 -0.3442  0.2648
16999TIP3    H172412   4.759   3.538  11.590  0.0582  0.1152 -0.1311
16999TIP3    H272413   4.859   3.557  11.702 -0.1092  1.7743 -0.2300
17000TIP3   OH272414   3.524   1.188   4.011  0.0200 -0.4567 -0.4033
17000TIP3    H172415   3.527   1.174   3.916  1.0269 -1.0378 -0.3001
17000TIP3    H272416   3.607   1.153   4.043  0.0373  0.4657  0.6054
17001TIP3   OH272417   2.428   2.709  12.993 -0.4653 -0.2077  0.4967
17001TIP3    H172418   2.333   2.709  12.981 -0.3644  1.2545 -0.4693
17001TIP3    H272419   2.460   2.775  12.932  1.3187 -1.6369 -0.2081
17002TIP3   OH272420   1.146   2.607  12.749 -0.2802  0.4768 -0.1428
17002TIP3    H172421   1.230   2.619  12.706 -0.1780 -0.0756 -0.1097
17002TIP3    H272422   1.159   2.641  12.838 -0.2093  0.7520 -0.2610
17003TIP3   OH272423   5.494   1.039   1.723  0.1558  0.2571  0.8007
17003TIP3    H172424   5.402   1.034   1.697  0.3969  0.0502 -0.0185
17003TIP3    H272425   5.530   1.112   1.673  1.0306 -1.1923 -0.7690
17004TIP3   OH272426   2.420   0.274   4.069 -0.1509 -0.5420  0.3968
17004TIP3    H172427   2.353   0.217   4.029 -1.4649  1.5847 -0.5840
17004TIP3    H272428   2.371   0.325   4.133  1.1618 -0.9989  1.8078
17005TIP3   OH272429   4.232   2.792   2.026 -0.3308  0.6785 -0.9081
17005TIP3    H172430   4.245   2.700   2.005  1.2010  0.7745 -0.5212
17005TIP3    H272431   4.144   2.796   2.065 -0.1698 -0.7146 -0.3533
17006TIP3   OH272432   0.845   3.887   1.683 -0.1688  0.5584 -0.0428
17006TIP3    H172433   0.801   3.807   1.657  0.7236  0.8131 -2.5502
17006TIP3    H272434   0.799   3.957   1.637  0.3093  1.2812  0.5409
17007TIP3   OH272435   3.340   1.655  11.988  0.4940 -0.3967  0.0626
17007TIP3    H172436   3.366   1.604  12.065  1.5033 -0.5085 -0.3336
17007TIP3    H272437   3.280   1.598  11.941 -1.8706  0.4906  1.8287
17008TIP3   OH272438   0.743   6.291  15.452  0.3976  0.4206 -1.1711
17008TIP3    H172439   0.786   6.307  15.537  0.4399 -0.9063 -0.9113
17008TIP3    H272440   0.813   6.258  15.396  0.3379  1.1558 -1.6930
17009TIP3   OH272441   0.693   2.518  15.195  0.1717 -0.0857 -0.1412
17009TIP3    H172442   0.676   2.607  15.163 -3.5313  0.2639  2.1730
17009TIP3    H272443   0.783   2.521  15.227 -0.3221  3.4835  1.4604
17010TIP3   OH272444   3.525   0.358  15.008 -0.5687  0.2660  0.2120
17010TIP3    H172445   3.589   0.383  14.941  0.6918  0.2804  1.3854
17010TIP3    H272446   3.549   0.268  15.030 -1.3656  0.0512  0.2242
17011TIP3   OH272447   1.113   4.499  14.849 -0.3541  0.4364 -0.7011
17011TIP3    H172448   1.145   4.551  14.922  0.7655 -0.9789 -0.1308
17011TIP3    H272449   1.191   4.454  14.816 -1.3604 -1.3183 -0.7961
17012TIP3   OH272450   4.541   0.578  16.516  0.0398 -0.2530 -0.2075
17012TIP3    H172451   4.611   0.637  16.487  1.9347 -1.8283  0.8756
17012TIP3    H272452   4.482   0.572  16.441  0.2989  2.1857 -0.6944
17013TIP3   OH272453   6.552   2.844  12.722  0.1418  0.1615  0.2020
17013TIP3    H172454   6.483   2.849  12.789 -1.7456 -0.4120 -1.5919
17013TIP3    H272455   6.604   2.923  12.735 -1.8111  1.4517  0.6694
17014TIP3   OH272456   5.887   4.243   3.122  0.3122 -0.0236  0.1319
17014TIP3    H172457   5.944   4.211   3.053  1.1251  0.3421  0.6094
17014TIP3    H272458   5.931   4.216   3.203  0.9766  2.1145  0.5531
17015TIP3   OH272459   3.271   6.505   2.644 -0.0576  1.2811 -0.1936
17015TIP3    H172460   3.241   6.592   2.671  0.1323  1.4586 -0.5405
17015TIP3    H272461   3.330   6.522   2.571  1.1906  0.9858  0.6929
17016TIP3   OH272462   1.487   5.821  15.350  0.4865  0.3126 -0.2979
17016TIP3    H172463   1.560   5.804  15.289  1.5153 -0.3949  1.0706
17016TIP3    H272464   1.526   5.875  15.418 -0.5811  0.8455 -0.0973
17017TIP3   OH272465   1.599   3.909   4.347  0.1223  0.5094  0.3598
17017TIP3    H172466   1.615   3.999   4.316  1.2266 -0.1536 -1.1348
17017TIP3    H272467   1.550   3.920   4.428 -0.2631  2.4509 -0.0798
17018TIP3   OH272468   4.026   3.640   4.391 -0.5524 -0.4344  0.2863
17018TIP3    H172469   3.957   3.658   4.328 -1.3084 -1.1722  0.8760
17018TIP3    H272470   3.982   3.594   4.463  0.7318 -1.9015  0.1852
17019TIP3   OH272471   0.686   2.214  11.658 -0.4186 -0.2307  0.0917
17019TIP3    H172472   0.665   2.306  11.639  2.1044  0.2589 -0.7041
17019TIP3    H272473   0.681   2.170  11.573  0.4945 -0.3513  0.0965
17020TIP3   OH272474   4.522   3.652   5.778 -0.4666 -0.1444 -0.2351
17020TIP3    H172475   4.444   3.650   5.722 -0.3043  0.8299 -0.5131
17020TIP3    H272476   4.499   3.596   5.853 -2.3334  1.9107  0.8376
17021TIP3   OH272477   6.430   5.645   4.003  0.2260 -0.1957 -0.8296
17021TIP3    H172478   6.405   5.734   4.029 -0.1617 -0.0759 -1.5893
17021TIP3    H272479   6.494   5.618   4.069 -1.1518 -0.1354  0.5970
17022TIP3   OH272480   0.878   1.209   5.267  0.2555 -0.2271  0.1389
17022TIP3    H172481   0.896   1.173   5.354 -1.3063 -2.8477 -0.5034
17022TIP3    H272482   0.955   1.260   5.245  1.2835 -0.6700  2.4836
17023TIP3   OH272483   3.172   0.946   4.028 -0.1365 -0.1685  0.4572
17023TIP3    H172484   3.091   0.951   4.079 -0.7700  1.0186 -0.5843
17023TIP3    H272485   3.179   1.032   3.987  0.6116 -0.8991 -1.0296
17024TIP3   OH272486   1.389   4.915  13.193 -0.1373 -0.2769 -0.6005
17024TIP3    H172487   1.481   4.890  13.190 -0.8105 -3.3070  0.2951
17024TIP3    H272488   1.370   4.924  13.286 -0.6555  0.7461 -0.7982
17025TIP3   OH272489   6.664   3.151   5.994 -0.2014 -0.1494 -0.2694
17025TIP3    H172490   6.725   3.115   5.930  1.8198  2.1510  0.2233
17025TIP3    H272491   6.669   3.090   6.068  1.1506 -0.2906 -0.4506
17026TIP3   OH272492   1.849   2.233   4.395 -0.0448 -0.5381  0.2031
17026TIP3    H172493   1.909   2.303   4.370  0.1164 -0.9525 -0.6232
17026TIP3    H272494   1.885   2.199   4.478  1.3070 -1.2554 -0.6378
17027TIP3   OH272495   4.737   5.831   4.221  0.0485  0.3948 -0.3144
17027TIP3    H172496   4.833   5.833   4.221  0.0954 -0.6377 -1.7485
17027TIP3    H272497   4.715   5.738   4.230 -0.7392  0.2484 -2.9904
17028TIP3   OH272498   4.881   4.204   5.577  0.0603  0.3262 -0.4120
17028TIP3    H172499   4.802   4.197   5.631  0.7890  2.0144  0.9976
17028TIP3    H272500   4.920   4.116   5.579  0.6370  0.5255  2.8499
17029TIP3   OH272501   0.062   0.262   4.292  0.3985 -0.5661 -0.5374
17029TIP3    H172502   0.073   0.353   4.262  1.4127 -0.3712  0.3677
17029TIP3    H272503   0.152   0.231   4.305  0.0488 -1.6374 -0.6293
17030TIP3   OH272504   3.909   6.588   5.739  0.2012 -0.2085  0.1418
17030TIP3    H172505   3.849   6.515   5.722  1.6565 -1.5061  0.3451
17030TIP3    H272506   3.985   6.569   5.684  1.6773 -0.2376  2.0872
17031TIP3   OH272507   3.366   6.746  11.071 -0.1348  0.9421  0.4258
17031TIP3    H172508   3.338   6.785  10.988 -1.0052  0.2238  0.3661
17031TIP3    H272509   3.418   6.670  11.045 -0.6539  0.5491  0.5401
17032TIP3   OH272510   2.903   0.465   5.865 -0.0823 -0.0989 -0.0030
17032TIP3    H172511   2.916   0.498   5.954  1.5461 -0.5685 -0.0227
17032TIP3    H272512   2.989   0.473   5.824 -0.4557 -1.2427 -1.0704
17033TIP3   OH272513   6.631   3.287  15.986 -0.1167  0.2235  0.2444
17033TIP3    H172514   6.633   3.381  16.005  2.5213  0.0483  1.3110
17033TIP3    H272515   6.595   3.248  16.066  0.7122  0.2135  0.6226
17034TIP3   OH272516   1.983   3.610  16.946  0.1640 -0.6428 -0.1140
17034TIP3    H172517   1.996   3.695  16.905 -1.6886  0.1657  0.8560
17034TIP3    H272518   1.946   3.556  16.876  1.4355 -0.7214 -0.7616
17035TIP3   OH272519   2.838   2.569  15.750 -0.0008 -0.0391 -0.1107
17035TIP3    H172520   2.767   2.543  15.808  0.5187 -1.4967 -0.0831
17035TIP3    H272521   2.887   2.634  15.801 -1.0113  0.6089  0.0574
17036TIP3   OH272522   1.387   3.679   3.068 -0.1677  0.1957  0.0597
17036TIP3    H172523   1.305   3.717   3.034 -0.1515 -0.0799 -0.2914
17036TIP3    H272524   1.388   3.705   3.160  0.4352  2.0851 -0.4384
17037TIP3   OH272525   0.274   4.128  11.204 -0.1937 -0.2786  0.4057
17037TIP3    H172526   0.256   4.036  11.224  1.8293 -0.4142  1.8710
17037TIP3    H272527   0.369   4.133  11.199 -0.2822  1.7030  0.1200
17038TIP3   OH272528   0.703   2.105  15.245 -0.4221 -0.4645 -0.2855
17038TIP3    H172529   0.637   2.064  15.189 -1.8386 -0.2993  1.1623
17038TIP3    H272530   0.786   2.071  15.214 -1.2543 -1.3289 -1.6649
17039TIP3   OH272531   4.940   3.151   5.450  0.3232  0.4115 -0.0311
17039TIP3    H172532   4.918   3.236   5.412  0.7908  1.8328  2.7038
17039TIP3    H272533   4.856   3.116   5.481  0.3538  0.5700  0.2248
17040TIP3   OH272534   5.102   1.696   4.112  0.6349  0.1689 -0.0817
17040TIP3    H172535   5.036   1.649   4.163  0.7355 -0.4403 -0.5107
17040TIP3    H272536   5.184   1.679   4.159  1.0616 -2.0575 -1.5097
17041TIP3   OH272537   5.946   5.727  14.418 -0.6558  0.4639  0.6927
17041TIP3    H172538   5.913   5.749  14.505 -1.4585 -0.5819  0.6726
17041TIP3    H272539   5.962   5.632  14.421 -3.4971 -0.2041 -1.1279
17042TIP3   OH272540   5.621   2.572  13.553  0.4114 -1.0384  0.2109
17042TIP3    H172541   5.599   2.520  13.476  1.3273  0.1965 -0.9227
17042TIP3    H272542   5.701   2.531  13.586  3.0748  1.4489 -2.6126
17043TIP3   OH272543   3.744   0.108   0.036 -0.1542  0.0418 -0.1696
17043TIP3    H172544   3.700   0.085   0.118  0.6244  0.7795  0.4725
17043TIP3    H272545   3.826   0.059   0.039  0.6870  1.4424  0.3495
17044TIP3   OH272546   3.520   0.360   0.589  0.2809  0.4277 -0.4325
17044TIP3    H172547   3.460   0.285   0.589 -1.8323  1.9814  1.9061
17044TIP3    H272548   3.577   0.345   0.664 -1.9632  2.2860  1.8727
17045TIP3   OH272549   3.876   0.862  11.856  0.5820  0.1471 -0.0984
17045TIP3    H172550   3.960   0.833  11.892  0.0911 -0.9571  0.2039
17045TIP3    H272551   3.899   0.916  11.781  1.5835  0.8547  0.6915
17046TIP3   OH272552   0.632   0.256   6.354  0.0135 -0.3349  0.2763
17046TIP3    H172553   0.705   0.197   6.374  1.6550  1.2232 -0.7133
17046TIP3    H272554   0.570   0.244   6.426  0.6312 -2.6718  0.4789
17047TIP3   OH272555   6.209   2.828  13.885  0.5654 -0.1942  1.1161
17047TIP3    H172556   6.130   2.870  13.850  0.5854  1.4339  2.8465
17047TIP3    H272557   6.193   2.735  13.877 -0.2049  0.0889 -1.4020
17048TIP3   OH272558   5.778   5.757   2.607 -0.5818 -0.3293  0.6578
17048TIP3    H172559   5.836   5.689   2.573 -0.3605 -0.7532  1.8210
17048TIP3    H272560   5.724   5.783   2.532  0.8149 -0.2237 -0.3479
17049TIP3   OH272561   2.375   0.515   4.207  0.1461  0.3904  0.0869
17049TIP3    H172562   2.348   0.548   4.293 -2.0093 -0.7564 -0.0972
17049TIP3    H272563   2.468   0.494   4.218  0.3357  1.7746  1.6248
17050TIP3   OH272564   4.141   5.371   1.323  0.6093 -0.9636  0.3912
17050TIP3    H172565   4.199   5.295   1.329  1.4086 -0.2701  2.1369
17050TIP3    H272566   4.172   5.419   1.246  2.1577 -0.7948  1.0849
17051TIP3   OH272567   1.871   0.927   4.751 -0.1551 -0.0578  0.5952
17051TIP3    H172568   1.942   0.984   4.724  0.1099 -0.6226  0.0712
17051TIP3    H272569   1.859   0.944   4.844 -0.3492  1.1360  0.3668
17052TIP3   OH272570   6.358   5.620   2.656 -0.3940 -0.3471  0.4327
17052TIP3    H172571   6.308   5.561   2.600 -2.7184  0.9691  0.9823
17052TIP3    H272572   6.335   5.593   2.745  0.9909 -0.5701  0.7446
17053TIP3   OH272573   3.611   2.572   1.854 -0.1409 -0.5606  0.1234
17053TIP3    H172574   3.662   2.592   1.776 -0.5122  2.0599  0.4766
17053TIP3    H272575   3.523   2.552   1.821 -0.4394  1.0804 -0.1500
17054TIP3   OH272576   5.600   3.947   4.014  0.2556  0.7862  0.3515
17054TIP3    H172577   5.681   3.995   4.029 -0.4137  2.9609 -2.2441
17054TIP3    H272578   5.532   4.002   4.053 -0.2282  0.4599 -0.0121
17055TIP3   OH272579   4.115   1.168  12.791  0.3241 -0.7270 -0.4057
17055TIP3    H172580   4.154   1.198  12.709  0.5569 -0.6445 -0.2675
17055TIP3    H272581   4.106   1.073  12.780  1.5487 -0.9079 -0.0452
17056TIP3   OH272582   3.701   0.007  13.615 -0.2017 -0.5929 -0.2491
17056TIP3    H172583   3.762  -0.025  13.682 -0.6106 -2.3038 -0.6528
17056TIP3    H272584   3.743   0.086  13.581  0.7241 -0.5071  0.9881
17057TIP3   OH272585   3.935   6.462   5.964 -0.6415  0.2298  0.1161
17057TIP3    H172586   3.962   6.375   5.934  0.8118  0.4750  0.6328
17057TIP3    H272587   3.927   6.513   5.883 -1.4540 -0.3485 -0.1858
17058TIP3   OH272588   4.042   2.447   0.456 -0.4201 -0.8380 -0.1401
17058TIP3    H172589   4.053   2.423   0.548  0.5289  2.0735  0.6372
17058TIP3    H272590   4.129   2.433   0.417  0.1098  0.9851  0.2932
17059TIP3   OH272591   6.028   6.209   3.211 -0.5282 -0.3462 -0.4032
17059TIP3    H172592   6.035   6.262   3.290 -0.1475 -0.0514 -0.6348
17059TIP3    H272593   5.992   6.268   3.145 -0.7383 -0.5601 -0.4805
17060TIP3   OH272594   3.404   0.374  15.268  0.1351  0.6131  0.3781
17060TIP3    H172595   3.362   0.457  15.289  3.8108  2.6866  0.3949
17060TIP3    H272596   3.445   0.389  15.182 -1.8197 -2.4437 -1.2985
17061TIP3   OH272597   0.944   4.518   2.829 -0.2416  0.2201 -0.2427
17061TIP3    H172598   0.864   4.547   2.874 -0.2888  0.7592 -0.6610
17061TIP3    H272599   0.922   4.522   2.736  0.1823  0.0867 -0.3501
17062TIP3   OH272600   6.763   5.161  10.843  0.5926 -0.3416  0.0306
17062TIP3    H172601   6.760   5.249  10.880  3.1487 -0.7689  1.5202
17062TIP3    H272602   6.784   5.174  10.751 -1.5295  0.6304 -0.3630
17063TIP3   OH272603   1.166   2.759   5.687 -0.5779 -0.6792 -0.2631
17063TIP3    H172604   1.140   2.667   5.695 -2.9523 -0.1348 -0.9293
17063TIP3    H272605   1.145   2.798   5.772 -2.7569 -0.1115 -0.9827
17064TIP3   OH272606   4.973   6.206  16.167  0.1813 -0.4638 -0.1671
17064TIP3    H172607   5.067   6.205  16.147 -0.1145  1.1699 -2.0362
17064TIP3    H272608   4.961   6.284  16.221 -0.2549  0.1708 -1.1405
17065TIP3   OH272609   0.857   1.073  15.812 -0.0545  0.1864  0.3896
17065TIP3    H172610   0.951   1.088  15.814 -0.0480  0.8167 -1.7182
17065TIP3    H272611   0.847   0.986  15.773 -0.3347  1.0412 -1.5552
17066TIP3   OH272612   0.769   4.496   0.252  0.0949  0.4544 -0.0760
17066TIP3    H172613   0.856   4.536   0.246 -0.1027  0.8044 -0.7340
17066TIP3    H272614   0.726   4.542   0.324  1.0045 -0.8280  1.3399
17067TIP3   OH272615   4.825   0.579  12.159  0.1438 -0.6647  0.2307
17067TIP3    H172616   4.747   0.631  12.139  0.0350  0.3985  3.0275
17067TIP3    H272617   4.893   0.643  12.180  1.4296 -1.6107 -0.8855
17068TIP3   OH272618   4.801   2.498   2.325 -0.3477 -0.5217  0.3997
17068TIP3    H172619   4.890   2.519   2.297 -0.9847  1.1930 -0.4569
17068TIP3    H272620   4.803   2.510   2.420  0.1455  0.3723  0.2931
17069TIP3   OH272621   3.775   2.438  15.069  0.1366 -0.0409  0.0847
17069TIP3    H172622   3.776   2.471  15.159  2.4817  0.5623 -0.0850
17069TIP3    H272623   3.820   2.354  15.074 -1.2210 -0.8049 -0.2896
17070TIP3   OH272624   4.968   0.073   1.716 -0.0373  0.0799  0.1302
17070TIP3    H172625   4.963   0.099   1.624 -1.5956 -1.3405 -0.2517
17070TIP3    H272626   4.984  -0.022   1.713 -4.2367 -0.8675  1.1181
17071TIP3   OH272627   4.844   6.239   5.990  0.4145 -0.0542 -0.0374
17071TIP3    H172628   4.812   6.150   6.004 -2.5235  1.1461  1.8306
17071TIP3    H272629   4.855   6.275   6.078  1.0207  1.5942 -0.7484
17072TIP3   OH272630   3.037   0.439  13.486 -0.2510  0.3752  0.3634
17072TIP3    H172631   3.075   0.365  13.439 -1.7903  0.6558 -1.4243
17072TIP3    H272632   3.093   0.449  13.563  1.5471 -0.9898 -0.6815
17073TIP3   OH272633   0.682   3.113  16.064 -0.5306  0.2866 -0.8124
17073TIP3    H172634   0.713   3.152  16.146 -2.3586  0.2159 -0.0408
17073TIP3    H272635   0.643   3.186  16.017 -0.8313  0.0461 -0.9351
17074TIP3   OH272636   3.348   5.292   3.495  0.4487 -0.4071  0.0732
17074TIP3    H172637   3.328   5.251   3.411 -0.3967  0.0129  0.0613
17074TIP3    H272638   3.330   5.385   3.482  1.1314 -0.2132  0.4732
17075TIP3   OH272639   1.325   5.516  15.944 -0.3247  0.0803 -0.2529
17075TIP3    H172640   1.296   5.447  16.003 -0.2445 -0.9338 -1.3552
17075TIP3    H272641   1.245   5.559  15.915 -0.5433 -0.8299 -1.0514
17076TIP3   OH272642   5.025   3.138   1.776 -0.5607 -0.3199  0.8925
17076TIP3    H172643   4.980   3.169   1.697  2.6271 -2.1065 -1.8729
17076TIP3    H272644   4.980   3.057   1.798  0.5717 -1.6762 -1.3550
17077TIP3   OH272645   3.879   1.461   0.739 -0.2911  0.7444 -0.3878
17077TIP3    H172646   3.897   1.374   0.704  1.1287  0.0596  1.8994
17077TIP3    H272647   3.935   1.519   0.687 -2.3172  0.6170 -2.9331
17078TIP3   OH272648   5.369   3.704  15.026  0.4790 -0.2429 -0.1359
17078TIP3    H172649   5.461   3.707  15.051  0.0601  1.4904  1.4746
17078TIP3    H272650   5.369   3.708  14.931  2.0642 -0.0961 -0.1470
17079TIP3   OH272651   3.867   3.249  14.851 -0.1492 -0.1650  0.2055
17079TIP3    H172652   3.844   3.234  14.760 -0.6670 -0.1890  0.3393
17079TIP3    H272653   3.942   3.308  14.848 -0.6042  0.3889 -0.2143
17080TIP3   OH272654   6.128   0.842  17.013  0.1609  0.1035 -0.0501
17080TIP3    H172655   6.106   0.928  16.976 -0.0853  0.1712  0.2489
17080TIP3    H272656   6.045   0.809  17.048  0.1555 -0.4804 -0.6117
17081TIP3   OH272657   1.143   0.439   1.773 -0.4160 -0.3428  0.6119
17081TIP3    H172658   1.050   0.418   1.787 -0.4736 -1.7103 -1.3853
17081TIP3    H272659   1.154   0.525   1.812 -1.8958 -1.1859  3.1334
17082TIP3   OH272660   2.301   2.809  14.530  0.1856  0.0780  0.4968
17082TIP3    H172661   2.388   2.819  14.568 -0.2985 -0.9067  1.9206
17082TIP3    H272662   2.285   2.893  14.485  0.9207  1.1698  2.1886
17083TIP3   OH272663   3.022   6.538  13.467  0.2192 -0.0310  0.0369
17083TIP3    H172664   2.948   6.477  13.463  0.4822 -0.3031 -0.8784
17083TIP3    H272665   3.097   6.487  13.437  0.4183  0.7736 -0.8851
17084TIP3   OH272666   1.822   3.864  15.920 -0.0427 -0.0089  0.3662
17084TIP3    H172667   1.791   3.893  16.006 -0.5947 -2.0389  0.9083
17084TIP3    H272668   1.742   3.853  15.868 -0.1668 -3.0010  1.0265
17085TIP3   OH272669   4.489   4.226   2.937  0.3002  0.5943  0.0221
17085TIP3    H172670   4.532   4.305   2.904  0.5704  1.4662  2.2721
17085TIP3    H272671   4.559   4.162   2.946  0.9092  1.4623  2.0475
17086TIP3   OH272672   5.961   2.210  15.510 -0.3686  0.1645  0.5028
17086TIP3    H172673   6.010   2.207  15.592  2.9076 -0.4477 -1.3144
17086TIP3    H272674   5.950   2.304  15.492 -1.9878  0.3198  2.0124
17087TIP3   OH272675   4.078   0.822   3.180 -0.2255 -0.6966  0.3404
17087TIP3    H172676   4.126   0.785   3.254  2.5451 -0.0004 -0.9944
17087TIP3    H272677   4.098   0.764   3.107 -1.3545 -0.2968 -0.3112
17088TIP3   OH272678   0.892   4.196  12.430  0.3043 -1.0432  0.1525
17088TIP3    H172679   0.801   4.178  12.406 -0.4768 -1.7621  3.2072
17088TIP3    H272680   0.898   4.292  12.427 -1.2748 -0.8177  1.8940
17089TIP3   OH272681   0.495   3.586  14.104 -0.0859  0.4057  0.4284
17089TIP3    H172682   0.570   3.587  14.164 -0.0136  0.3477  0.3388
17089TIP3    H272683   0.499   3.670  14.059  0.7266 -0.1379 -0.5674
17090TIP3   OH272684   1.102   4.700   3.266  0.8007  0.1969 -0.0043
17090TIP3    H172685   1.042   4.769   3.295  1.5188  0.7749  0.1238
17090TIP3    H272686   1.156   4.681   3.343  0.7888 -0.3232 -0.1178
17091TIP3   OH272687   1.968   0.354  15.248  0.0998  0.4052  0.1280
17091TIP3    H172688   1.950   0.430  15.304 -3.2183  0.9053 -1.4196
17091TIP3    H272689   1.911   0.365  15.172  0.2304 -3.1585 -0.6676
17092TIP3   OH272690   4.192   3.459   4.870 -0.5127 -0.1305 -0.2024
17092TIP3    H172691   4.236   3.494   4.793  1.1691 -2.3996 -0.4160
17092TIP3    H272692   4.247   3.488   4.943 -0.3111 -0.5455 -0.1847
17093TIP3   OH272693   6.462   2.905   0.567  0.1690 -0.0892  0.4433
17093TIP3    H172694   6.386   2.945   0.608 -1.1521 -2.2830  0.2997
17093TIP3    H272695   6.452   2.924   0.474  0.3498  0.4836  0.5392
17094TIP3   OH272696   4.530   4.570   4.257  0.3965 -0.0492  0.1088
17094TIP3    H172697   4.513   4.611   4.342  2.2255 -1.3282  1.1450
17094TIP3    H272698   4.610   4.612   4.225  0.0081  0.0562 -0.7616
17095TIP3   OH272699   5.872   4.657   5.570  0.3377  0.1001 -0.7022
17095TIP3    H172700   5.944   4.719   5.587  0.7312 -0.9452  1.9199
17095TIP3    H272701   5.856   4.616   5.654 -0.9468 -2.3027 -2.0199
17096TIP3   OH272702   5.085   6.706   2.392 -0.1810 -0.2979  0.0483
17096TIP3    H172703   5.004   6.739   2.353 -0.0520  1.1047  0.9068
17096TIP3    H272704   5.083   6.739   2.482  1.1670 -0.5739  0.1913
17097TIP3   OH272705   3.902   3.671  12.777 -0.3414  0.4300  0.0498
17097TIP3    H172706   3.994   3.659  12.753  0.5259 -2.1786  3.7476
17097TIP3    H272707   3.859   3.591  12.749 -1.2308  1.0925 -0.5201
17098TIP3   OH272708   6.430   3.530  15.653 -0.7387  0.0723  0.0850
17098TIP3    H172709   6.486   3.607  15.663 -2.6836  1.2701  3.6523
17098TIP3    H272710   6.375   3.551  15.577  0.1156  1.2779 -0.2348
17099TIP3   OH272711   2.691   1.788   4.340  0.0174 -0.0328 -0.7669
17099TIP3    H172712   2.721   1.819   4.425 -1.8438 -0.4757  0.0816
17099TIP3    H272713   2.719   1.696   4.338 -0.5962 -0.2330 -0.3057
17100TIP3   OH272714   0.558   4.324   5.140  0.5505  0.5119 -0.2977
17100TIP3    H172715   0.527   4.290   5.223  0.3144  0.5726 -0.3604
17100TIP3    H272716   0.528   4.415   5.139 -0.5124  0.1747 -0.9794
17101TIP3   OH272717   0.199   5.683  16.005 -0.1762  0.1466  0.0717
17101TIP3    H172718   0.290   5.682  16.033 -0.2919  2.0017  0.6712
17101TIP3    H272719   0.186   5.771  15.968 -1.5956 -0.2420 -0.4278
17102TIP3   OH272720   2.615   0.921   1.431 -0.1281 -0.6693 -0.5617
17102TIP3    H172721   2.705   0.893   1.413 -0.0395 -1.0774  0.4117
17102TIP3    H272722   2.605   1.003   1.383  0.5506 -0.9502 -1.2007
17103TIP3   OH272723   4.265   3.672  15.750 -0.2404 -0.1809  0.5531
17103TIP3    H172724   4.211   3.747  15.725 -0.0577 -0.4195 -0.6046
17103TIP3    H272725   4.212   3.596  15.727  1.1266 -0.4584 -2.0893
17104TIP3   OH272726   1.916   0.609   3.212  0.4753  0.0496 -0.5956
17104TIP3    H172727   1.978   0.615   3.139  1.8619 -1.7652  0.3241
17104TIP3    H272728   1.939   0.682   3.270  1.5106 -0.3563 -0.4748
17105TIP3   OH272729   6.679   6.014   5.016 -0.4360  0.4399 -0.1978
17105TIP3    H172730   6.707   6.089   4.964  1.4369 -0.6002 -0.8081
17105TIP3    H272731   6.682   6.044   5.107  1.4099  0.7957 -0.3527
17106TIP3   OH272732   6.791   2.787   5.127 -0.6005  0.4704 -0.0732
17106TIP3    H172733   6.805   2.756   5.038  0.9235 -2.2977  1.0027
17106TIP3    H272734   6.704   2.754   5.151  0.1483 -1.3328  0.3445
17107TIP3   OH272735   5.406   6.591  12.212  0.4290 -0.0832  0.4893
17107TIP3    H172736   5.431   6.654  12.279  1.1622 -0.4066  0.5328
17107TIP3    H272737   5.376   6.515  12.262 -0.1732  0.1221  0.4393
17108TIP3   OH272738   3.778   5.693  12.598  0.0321  0.7219 -1.1586
17108TIP3    H172739   3.700   5.728  12.640  0.3974  0.2143 -0.0156
17108TIP3    H272740   3.761   5.600  12.590  1.5354  0.1009  1.5933
17109TIP3   OH272741   6.008   3.527  10.538  0.3534 -0.1041 -0.1549
17109TIP3    H172742   5.960   3.574  10.470 -0.4125  0.7058  0.9183
17109TIP3    H272743   6.073   3.475  10.490  0.6522  1.3851 -1.4361
17110TIP3   OH272744   4.961   6.470  13.503  0.0256 -0.1445  0.1680
17110TIP3    H172745   4.930   6.556  13.531  0.5202 -0.2539  1.0778
17110TIP3    H272746   4.914   6.408  13.558  2.1078 -0.2986  1.9261
17111TIP3   OH272747   4.034   0.901  12.801 -0.5165  0.0501 -0.1996
17111TIP3    H172748   4.013   0.813  12.831  0.3467 -0.6780 -1.6282
17111TIP3    H272749   3.994   0.906  12.714 -0.9224  1.2350  0.0390
17112TIP3   OH272750   5.639   0.393  13.575  0.3756  0.1779  0.2644
17112TIP3    H172751   5.686   0.391  13.659  0.3534  0.7503  0.2985
17112TIP3    H272752   5.548   0.378  13.598  0.5887 -1.4299  0.1473
17113TIP3   OH272753   3.181   4.115  12.194  0.0053  0.0873 -0.1111
17113TIP3    H172754   3.172   4.020  12.199  0.4304 -0.0049 -0.9044
17113TIP3    H272755   3.214   4.140  12.280  0.3195 -0.5451 -0.0367
17114TIP3   OH272756   3.334   5.221  13.052 -0.0458 -0.3992 -0.6374
17114TIP3    H172757   3.393   5.221  13.127  0.1511 -1.3580 -0.7858
17114TIP3    H272758   3.383   5.265  12.983  0.0477 -0.1656 -0.4267
17115TIP3   OH272759   1.677   2.344  11.395 -0.1578  0.1062  0.1936
17115TIP3    H172760   1.684   2.259  11.353  1.3430  1.0241 -1.5578
17115TIP3    H272761   1.670   2.325  11.489 -1.1343 -1.9473 -0.2467
17116TIP3   OH272762   2.255   4.916  16.800  0.7940  0.1468  0.4588
17116TIP3    H172763   2.340   4.959  16.790  1.7326 -1.6170  0.5692
17116TIP3    H272764   2.224   4.943  16.886  1.6181  0.1614  0.7503
17117TIP3   OH272765   0.092   4.040  12.696  0.2482  0.3309 -0.1740
17117TIP3    H172766   0.048   3.960  12.668 -1.0651  1.1835 -0.6404
17117TIP3    H272767   0.106   4.028  12.790 -0.1094 -0.3633 -0.2058
17118TIP3   OH272768   0.537   4.029   3.560 -0.1032  0.3549 -0.0291
17118TIP3    H172769   0.535   4.066   3.471  0.7177 -1.3728 -0.8302
17118TIP3    H272770   0.624   4.051   3.593  0.5606 -1.1350 -0.6838
17119TIP3   OH272771   4.649   4.328  10.770  0.6400  0.0590 -0.0309
17119TIP3    H172772   4.690   4.270  10.835 -1.9244 -1.1534  0.6186
17119TIP3    H272773   4.600   4.392  10.822 -0.1217  0.0802 -0.7640
17120TIP3   OH272774   0.513   1.691  15.921 -0.5370  0.5733  0.4683
17120TIP3    H172775   0.608   1.681  15.915 -0.8251 -1.3710 -2.0879
17120TIP3    H272776   0.490   1.751  15.850 -1.2605  0.8920  0.9532
17121TIP3   OH272777   1.182   3.406  16.349  0.1332 -0.6373  0.3982
17121TIP3    H172778   1.124   3.339  16.384 -0.1565 -0.9331 -0.6132
17121TIP3    H272779   1.136   3.440  16.272  0.9055 -0.2655  0.0884
17122TIP3   OH272780   6.398   2.606   0.948 -0.2011  0.1769 -0.1223
17122TIP3    H172781   6.303   2.607   0.963 -0.0835 -1.8980  1.1272
17122TIP3    H272782   6.409   2.644   0.861 -1.9875  2.1967  0.4451
17123TIP3   OH272783   5.486   3.873   2.779  0.5756  0.2829  0.0574
17123TIP3    H172784   5.510   3.838   2.865  1.4575  0.9534  0.0974
17123TIP3    H272785   5.545   3.829   2.718  1.3128  1.2724  0.0423
17124TIP3   OH272786   4.048   0.595  14.509  0.4571 -0.4414 -0.0721
17124TIP3    H172787   3.999   0.678  14.507  1.2394  0.0698  1.0611
17124TIP3    H272788   3.992   0.535  14.558  0.8207  0.0611  0.9774
17125TIP3   OH272789   1.481   5.241   2.496  0.9279  0.2285 -0.0994
17125TIP3    H172790   1.515   5.320   2.453  1.7259 -0.0071  0.0738
17125TIP3    H272791   1.438   5.273   2.575  2.2941  0.4200  0.6044
17126TIP3   OH272792   2.343   3.917  13.142 -0.3540 -0.0697 -0.7278
17126TIP3    H172793   2.434   3.924  13.173  0.4592 -2.5206 -2.2266
17126TIP3    H272794   2.301   3.861  13.207 -0.2368 -0.5050 -1.0210
17127TIP3   OH272795   3.797   4.475   3.821 -0.6041 -0.0332 -0.3972
17127TIP3    H172796   3.797   4.452   3.728 -0.3083  3.0698 -1.2880
17127TIP3    H272797   3.705   4.496   3.840 -0.7344 -1.0589  0.1526
17128TIP3   OH272798   0.135   3.528   1.934 -0.0176  0.3059 -0.7067
17128TIP3    H172799   0.106   3.464   1.999 -0.6559  3.0259  1.8907
17128TIP3    H272800   0.071   3.520   1.863 -0.9626 -0.8745  0.2284
17129TIP3   OH272801   5.647   6.170   3.486 -0.0362 -0.3583  0.3542
17129TIP3    H172802   5.711   6.165   3.557 -1.2966 -0.1251  1.5331
17129TIP3    H272803   5.653   6.086   3.441  2.7206  0.4546 -1.0478
17130TIP3   OH272804   6.393   1.108   1.678  0.2421 -0.4691 -0.1782
17130TIP3    H172805   6.330   1.052   1.633 -0.7846 -0.7931  1.5939
17130TIP3    H272806   6.477   1.064   1.666 -0.0969 -0.8778 -1.1900
17131TIP3   OH272807   4.501   3.545  16.503 -0.5356 -0.7961 -0.0118
17131TIP3    H172808   4.587   3.510  16.483 -0.2710 -0.2608  0.1741
17131TIP3    H272809   4.466   3.574  16.419 -0.2714 -0.4289  0.0046
17132TIP3   OH272810   1.224   4.459  11.820 -0.1189  0.2122  0.0833
17132TIP3    H172811   1.299   4.421  11.865 -1.6189 -0.0476  2.6112
17132TIP3    H272812   1.254   4.546  11.792  1.8383 -0.8591 -1.2931
17133TIP3   OH272813   3.018   2.562   3.461 -0.9835  0.4005 -0.2640
17133TIP3    H172814   3.111   2.562   3.439 -1.2317 -0.9690 -1.4427
17133TIP3    H272815   3.003   2.646   3.504  0.7364  0.7480 -0.2998
17134TIP3   OH272816   1.785   5.612   1.033 -0.1114  0.3717 -0.1693
17134TIP3    H172817   1.807   5.578   0.946  0.8993 -1.4079  0.7442
17134TIP3    H272818   1.699   5.575   1.052  0.5000 -0.8115  0.3593
17135TIP3   OH272819   4.029   5.399   4.442  0.6155  0.2840  0.3902
17135TIP3    H172820   3.948   5.435   4.406  0.5250 -2.0125 -1.9207
17135TIP3    H272821   4.003   5.318   4.485  1.5550 -0.0554  0.3499
17136TIP3   OH272822   1.262   4.667  11.390  0.1589 -0.5374  0.1558
17136TIP3    H172823   1.284   4.726  11.462 -1.2379 -0.3963  0.4962
17136TIP3    H272824   1.203   4.718  11.334  2.0888 -0.2572 -1.7206
17137TIP3   OH272825   5.659   4.077  10.273 -0.1654 -0.0331  0.8405
17137TIP3    H172826   5.602   4.035  10.337  0.6512 -0.4714  1.3034
17137TIP3    H272827   5.726   4.012  10.254 -0.0068  0.3481  0.0535
17138TIP3   OH272828   0.457   1.775   3.525  0.6417 -0.1931 -0.5193
17138TIP3    H172829   0.387   1.750   3.585  0.6752 -0.7235 -0.7010
17138TIP3    H272830   0.536   1.734   3.562  0.5847 -0.9255 -1.1771
17139TIP3   OH272831   2.606   3.119   3.571 -0.2527 -0.4361 -0.2958
17139TIP3    H172832   2.535   3.184   3.577 -0.5925 -0.8948  1.3341
17139TIP3    H272833   2.564   3.036   3.596  0.8764 -0.6846  0.8765
17140TIP3   OH272834   5.670   0.432  12.425 -0.4534 -0.5795 -0.3673
17140TIP3    H172835   5.683   0.388  12.509  1.0932  0.1323 -0.1985
17140TIP3    H272836   5.685   0.364  12.359 -1.0261 -0.9818 -0.0942
17141TIP3   OH272837   3.545   0.381  12.490 -0.0049 -0.1955  0.3581
17141TIP3    H172838   3.564   0.401  12.398 -3.2578 -1.3124 -0.7053
17141TIP3    H272839   3.520   0.465  12.529  1.1279  0.2391  0.1769
17142TIP3   OH272840   4.915   1.757  16.000 -0.0652 -0.4014  0.0404
17142TIP3    H172841   4.982   1.821  16.024 -0.0173 -0.8812  1.2538
17142TIP3    H272842   4.835   1.791  16.040 -0.7242  0.5152 -1.9539
17143TIP3   OH272843   0.392   5.186  11.074  0.2875  0.0349 -0.1141
17143TIP3    H172844   0.442   5.172  10.994  0.2267  0.7620 -0.2827
17143TIP3    H272845   0.300   5.185  11.046  0.1876 -1.2131  0.1821
17144TIP3   OH272846   1.982   6.663  13.493  0.1132 -0.4927 -0.1964
17144TIP3    H172847   1.905   6.716  13.516  0.2977 -0.7287  1.0785
17144TIP3    H272848   2.035   6.663  13.573  2.2079  0.9353 -1.4978
17145TIP3   OH272849   1.526   1.544  15.396  0.7419  0.4913 -0.2947
17145TIP3    H172850   1.545   1.632  15.365  2.0738  0.2401 -0.2270
17145TIP3    H272851   1.571   1.537  15.480  0.4271 -0.1670 -0.1679
17146TIP3   OH272852   6.481   0.951  15.650  0.3120 -0.4225  0.3268
17146TIP3    H172853   6.552   0.953  15.586  1.3836 -0.6607  1.4638
17146TIP3    H272854   6.425   1.025  15.626  1.0238 -0.1335 -0.5050
17147TIP3   OH272855   1.930   4.956   3.936  0.0805  0.1964  0.3353
17147TIP3    H172856   1.886   4.952   4.021 -2.7064 -2.2223 -1.0433
17147TIP3    H272857   1.989   4.881   3.935 -1.0478 -0.7097 -0.3803
17148TIP3   OH272858   2.507   3.735  16.544 -0.0577  0.4551  0.1103
17148TIP3    H172859   2.516   3.776  16.458 -1.4076  0.3809 -0.0832
17148TIP3    H272860   2.579   3.672  16.548  1.0269  1.6250 -0.2716
17149TIP3   OH272861   4.593   1.050  14.847  0.2430  0.3573 -0.5382
17149TIP3    H172862   4.568   0.969  14.893  0.7445  0.3370 -0.2894
17149TIP3    H272863   4.538   1.117  14.887  1.7641  0.6325  1.2783
17150TIP3   OH272864   2.313   1.397   3.379  0.2970 -0.2668 -0.0310
17150TIP3    H172865   2.347   1.480   3.411  0.1693 -0.4839  0.6753
17150TIP3    H272866   2.265   1.420   3.300 -1.4592  0.6276  1.2357
17151TIP3   OH272867   5.540   4.537  13.768 -0.1067 -0.1185 -0.2624
17151TIP3    H172868   5.612   4.488  13.807  2.0120  2.5853 -0.4659
17151TIP3    H272869   5.525   4.495  13.683  1.4286 -0.5841 -0.3286
17152TIP3   OH272870   3.742   4.860   4.578 -0.3077 -0.1126 -0.4977
17152TIP3    H172871   3.764   4.909   4.499  0.1647  1.5861  0.6167
17152TIP3    H272872   3.675   4.797   4.551 -1.5928  1.7519 -1.8461
17153TIP3   OH272873   3.742   0.009  14.716  0.1362 -0.4705  0.3056
17153TIP3    H172874   3.758   0.091  14.763 -1.3717  0.1660 -0.2202
17153TIP3    H272875   3.798   0.014  14.639  0.3947 -0.1362  0.5112
17154TIP3   OH272876   5.172   2.916   1.457 -0.1511 -0.3254  0.5409
17154TIP3    H172877   5.238   2.985   1.464  0.1181 -0.2496 -2.0168
17154TIP3    H272878   5.092   2.962   1.432 -0.4044 -0.7678  0.5289
17155TIP3   OH272879   5.454   3.938   1.967 -0.1414 -0.4242  0.1643
17155TIP3    H172880   5.497   4.004   1.914  1.7254 -1.5206  0.2399
17155TIP3    H272881   5.491   3.949   2.055 -1.7590  0.1026  0.8198
17156TIP3   OH272882   5.607   0.640   6.229  0.1899 -0.1848 -0.2940
17156TIP3    H172883   5.571   0.660   6.142  0.4024  0.5097 -0.2276
17156TIP3    H272884   5.530   0.618   6.282 -0.1808  1.3712 -0.1293
17157TIP3   OH272885   0.223   6.132   0.931  0.0353  0.3833  0.2595
17157TIP3    H172886   0.210   6.204   0.869 -0.1698  0.6913  0.6559
17157TIP3    H272887   0.241   6.056   0.876 -0.1001  0.6635 -0.1771
17158TIP3   OH272888   6.137   0.212  11.631 -0.1076  0.3105 -0.1958
17158TIP3    H172889   6.192   0.137  11.612 -2.1386 -0.8703 -1.9082
17158TIP3    H272890   6.062   0.176  11.679 -0.5603  1.4184 -0.0328
17159TIP3   OH272891   0.146   5.413  14.435  0.5812  0.6469  0.2960
17159TIP3    H172892   0.184   5.500  14.420  1.1712  0.3400  0.0127
17159TIP3    H272893   0.052   5.430  14.443  0.6746  1.2986  0.0924
17160TIP3   OH272894   6.040   3.756   4.164  0.3021  0.6803  0.1853
17160TIP3    H172895   5.987   3.687   4.125 -0.0015  0.0975  1.5672
17160TIP3    H272896   5.994   3.780   4.245  0.7037  2.1132  0.0258
17161TIP3   OH272897   1.468   5.171  15.543 -0.6016 -0.1933  0.0374
17161TIP3    H172898   1.538   5.107  15.554 -0.8755 -0.6472 -0.7465
17161TIP3    H272899   1.460   5.214  15.628 -0.2496 -1.0360  0.5044
17162TIP3   OH272900   4.049   5.915   2.233  0.0162 -0.2182 -0.4733
17162TIP3    H172901   4.117   5.957   2.180  1.0574  1.6699  2.1581
17162TIP3    H272902   3.968   5.932   2.185  1.0259  0.1983 -2.1260
17163TIP3   OH272903   4.290   2.858  14.019 -0.1377  0.6132  0.3247
17163TIP3    H172904   4.197   2.875  14.033 -0.1075 -0.0054  1.3275
17163TIP3    H272905   4.328   2.858  14.107  0.4082 -1.4134  0.1246
17164TIP3   OH272906   0.582   5.752   5.864 -0.1512 -0.5542 -0.0243
17164TIP3    H172907   0.606   5.662   5.846 -1.8679 -0.8877 -0.8495
17164TIP3    H272908   0.488   5.756   5.846 -0.7416  0.6925  2.7856
17165TIP3   OH272909   4.054   5.765   0.761  0.7499 -0.5887 -0.4276
17165TIP3    H172910   4.079   5.679   0.797  0.9463 -0.3800 -0.0587
17165TIP3    H272911   3.962   5.775   0.787  0.9195 -0.3935  0.1210
17166TIP3   OH272912   5.491   4.439   3.580  0.5586  0.4695 -0.1778
17166TIP3    H172913   5.536   4.355   3.570 -1.7530 -0.7120 -1.5152
17166TIP3    H272914   5.464   4.441   3.672  0.1247 -0.5436 -0.2734
17167TIP3   OH272915   6.266   4.631   5.561  0.3720 -0.4034 -0.4911
17167TIP3    H172916   6.243   4.570   5.631 -0.7726 -0.7059 -1.1000
17167TIP3    H272917   6.265   4.717   5.603 -0.9993 -0.5112 -0.2613
17168TIP3   OH272918   2.353   2.822  15.638  0.0345  0.2641 -0.5319
17168TIP3    H172919   2.366   2.914  15.661  0.9168  0.0359 -0.0716
17168TIP3    H272920   2.415   2.807  15.567 -1.2507  0.4319 -1.7284
17169TIP3   OH272921   1.578   2.191   1.001  0.4656 -0.1294 -0.3959
17169TIP3    H172922   1.606   2.180   0.910 -0.7096  0.3913 -0.8380
17169TIP3    H272923   1.634   2.261   1.035  0.6827 -0.0919 -0.8230
17170TIP3   OH272924   2.683   6.423   2.199 -0.0047 -0.2159  0.2916
17170TIP3    H172925   2.776   6.402   2.204  0.0342  0.0453  0.7763
17170TIP3    H272926   2.681   6.517   2.183 -0.1743 -0.0002  1.4450
17171TIP3   OH272927   2.003   2.025  16.315 -0.5297 -0.3441  0.6419
17171TIP3    H172928   2.071   2.076  16.359 -0.0921 -0.4000  0.0519
17171TIP3    H272929   1.980   1.956  16.377  0.2634 -0.5793  0.6882
17172TIP3   OH272930   3.093   1.199   3.299 -0.0980  0.3801 -0.7681
17172TIP3    H172931   3.187   1.191   3.284  0.2274 -0.6326  1.3872
17172TIP3    H272932   3.086   1.247   3.382 -1.3552 -1.6713  0.3949
17173TIP3   OH272933   6.172   6.758   4.557 -0.1987  0.9454  0.3361
17173TIP3    H172934   6.199   6.725   4.471 -1.2154  0.4135  0.2034
17173TIP3    H272935   6.254   6.778   4.602  0.3635  0.6856 -0.5474
17174TIP3   OH272936   1.424   0.280   2.303 -0.2328 -0.0296 -0.2719
17174TIP3    H172937   1.407   0.194   2.343 -0.7523 -0.8805 -2.2345
17174TIP3    H272938   1.515   0.299   2.326 -0.0500 -1.1970  0.0247
17175TIP3   OH272939   0.851   1.969  15.811 -1.5002 -0.0906 -0.2295
17175TIP3    H172940   0.817   1.902  15.751 -0.7414 -0.1606 -0.5959
17175TIP3    H272941   0.782   1.981  15.875 -0.3994 -3.6817  1.9059
17176TIP3   OH272942   1.765   6.115  14.401  0.0503  0.2703 -0.7097
17176TIP3    H172943   1.827   6.172  14.446 -0.2911 -1.1229  1.7150
17176TIP3    H272944   1.751   6.042  14.462 -4.8448  1.0327 -0.5239
17177TIP3   OH272945   0.709   2.449  14.698  0.1783  0.1279 -0.0928
17177TIP3    H172946   0.799   2.451  14.728 -0.8756  1.4747  3.4439
17177TIP3    H272947   0.676   2.364  14.726 -0.4311  0.8513  1.5114
17178TIP3   OH272948   2.874   3.489   1.488  0.5865 -0.3220  0.0825
17178TIP3    H172949   2.871   3.557   1.556  1.6245  1.4385 -1.5313
17178TIP3    H272950   2.785   3.488   1.453  0.8790  1.2873 -0.8211
17179TIP3   OH272951   2.372   6.361   4.078  0.1720  0.2404  0.1393
17179TIP3    H172952   2.353   6.445   4.037  0.8350  0.8693  1.0780
17179TIP3    H272953   2.399   6.383   4.167  0.6072 -0.9502  0.3232
17180TIP3   OH272954   4.945   0.918   0.440 -0.2184 -0.0629  0.6023
17180TIP3    H172955   4.919   0.900   0.349 -0.0095 -0.7582  0.6737
17180TIP3    H272956   5.034   0.953   0.433 -0.4467  0.4932  0.4922
17181TIP3   OH272957   3.672   3.185  15.937 -0.2134 -0.2328  0.0282
17181TIP3    H172958   3.660   3.265  15.884  0.8179  0.0778  0.2362
17181TIP3    H272959   3.733   3.211  16.006  2.8441 -1.9682 -1.7796
17182TIP3   OH272960   5.322   3.643   0.523  0.5418  0.1430 -0.0950
17182TIP3    H172961   5.288   3.627   0.435 -0.9634  1.8160  0.1233
17182TIP3    H272962   5.414   3.666   0.510  0.2106  0.8416 -1.2862
17183TIP3   OH272963   5.248   6.763  11.786  0.6658  0.0034  0.5193
17183TIP3    H172964   5.249   6.856  11.762  0.7028  0.2811  1.5181
17183TIP3    H272965   5.323   6.753  11.845  0.8526 -0.7376  0.1570
17184TIP3   OH272966   6.419   5.876   3.411 -0.5363 -0.1631  0.0144
17184TIP3    H172967   6.367   5.956   3.419 -0.7328 -0.2255 -0.5818
17184TIP3    H272968   6.408   5.850   3.320  1.2608  0.3010 -0.3675
17185TIP3   OH272969   2.134   5.143   2.603  0.3058 -0.5357 -0.4535
17185TIP3    H172970   2.141   5.232   2.570 -0.7863 -0.5846 -0.8501
17185TIP3    H272971   2.221   5.105   2.591  0.3148 -0.0820 -1.9109
17186TIP3   OH272972   5.537   5.443  15.177 -0.2870  0.0379 -0.7299
17186TIP3    H172973   5.606   5.439  15.111  0.9087  2.1159  0.2769
17186TIP3    H272974   5.457   5.459  15.127 -0.1260 -2.4275 -1.9208
17187TIP3   OH272975   0.816   1.049  12.542  0.0992  0.6863  0.3238
17187TIP3    H172976   0.801   1.137  12.575 -2.0083  0.7526 -0.6187
17187TIP3    H272977   0.910   1.034  12.553  0.5371  3.1164  0.3019
17188TIP3   OH272978   5.654   5.348   4.102  0.2974 -0.2708 -0.2123
17188TIP3    H172979   5.714   5.397   4.159 -0.0981 -0.4541  0.3794
17188TIP3    H272980   5.650   5.399   4.021  0.3408  0.3718  0.1799
17189TIP3   OH272981   5.072   6.545  14.426  0.2050  0.4790 -0.9372
17189TIP3    H172982   5.043   6.637  14.426  1.8973  1.0579  0.4493
17189TIP3    H272983   5.033   6.509  14.347 -0.7469  2.3090 -1.3818
17190TIP3   OH272984   4.328   2.340  14.708 -0.1602  0.5185 -1.0137
17190TIP3    H172985   4.362   2.399  14.641 -0.4476  0.4473 -1.2223
17190TIP3    H272986   4.334   2.253  14.669  1.7244  0.2015 -0.1355
17191TIP3   OH272987   5.413   3.539  11.893 -0.3078 -0.0238  0.4429
17191TIP3    H172988   5.466   3.460  11.884 -0.0571  0.1430  0.4331
17191TIP3    H272989   5.397   3.546  11.987 -1.1470 -0.6108  0.3545
17192TIP3   OH272990   2.768   3.717   5.936  0.4363 -0.2883 -0.4886
17192TIP3    H172991   2.809   3.765   6.008  0.3037 -1.6110  0.5055
17192TIP3    H272992   2.813   3.749   5.858  1.0023  0.7453  0.2304
17193TIP3   OH272993   0.001   2.784  14.212 -0.6727 -0.2601  0.9267
17193TIP3    H172994   0.062   2.764  14.142 -1.4706 -0.7745  0.3553
17193TIP3    H272995  -0.049   2.859  14.180 -0.1441  0.3569  1.5222
17194TIP3   OH272996   1.575   2.949   2.167 -0.1531  0.1819 -0.2037
17194TIP3    H172997   1.607   3.000   2.242 -0.8910 -0.1899  0.3781
17194TIP3    H272998   1.512   2.888   2.205  0.4538 -0.9453 -0.9381
17195TIP3   OH272999   1.868   1.617  13.959 -0.0695  0.3340 -0.8953
17195TIP3    H173000   1.897   1.610  14.050 -0.9707  0.0148 -0.6233
17195TIP3    H273001   1.774   1.598  13.962 -0.3097  1.3054 -1.7584
17196TIP3   OH273002   5.580   1.625  11.487 -0.7815 -0.3923  0.6214
17196TIP3    H173003   5.550   1.710  11.455 -0.0268 -0.0169  0.8833
17196TIP3    H273004   5.566   1.628  11.581  1.2054  0.2912  0.9324
17197TIP3   OH273005   0.854   5.198  11.437  0.3759 -0.3209  0.0356
17197TIP3    H173006   0.874   5.280  11.391 -1.0015  1.0660  1.7233
17197TIP3    H273007   0.764   5.177  11.411 -0.1011  0.0046  1.2854
17198TIP3   OH273008   1.207   4.873  16.479 -0.5162  0.5485 -0.4149
17198TIP3    H173009   1.209   4.779  16.495 -0.4128  0.2750 -1.9275
17198TIP3    H273010   1.114   4.895  16.475 -0.5443  0.3384 -0.9684
17199TIP3   OH273011   1.435   4.606   5.782  0.7524  0.3808  0.0746
17199TIP3    H173012   1.413   4.688   5.827  1.0555  0.7982 -0.5180
17199TIP3    H273013   1.515   4.626   5.733  1.0708 -0.3993  0.2619
17200TIP3   OH273014   4.227   6.639  16.571 -0.1873 -0.1672  0.1070
17200TIP3    H173015   4.144   6.631  16.619  0.2145 -0.8960  0.6933
17200TIP3    H273016   4.268   6.553  16.579 -0.7785 -0.8282 -2.8564
17201TIP3   OH273017   2.553   5.911  11.377  0.4651 -0.0189 -0.6892
17201TIP3    H173018   2.570   5.879  11.288  0.3248 -2.1231 -0.0049
17201TIP3    H273019   2.467   5.953  11.371  1.5922  2.2542 -2.0915
17202TIP3   OH273020   3.475   2.586   5.366  0.3676 -0.5251  0.4318
17202TIP3    H173021   3.548   2.646   5.381 -0.5442  0.2362  2.1098
17202TIP3    H273022   3.403   2.621   5.419 -1.1710 -1.3887 -0.9619
17203TIP3   OH273023   5.668   1.000   1.944  0.5280 -0.0603 -0.4871
17203TIP3    H173024   5.595   0.965   1.996  0.9143 -0.7367 -0.3969
17203TIP3    H273025   5.635   0.998   1.854  0.4147 -0.3351 -0.4432
17204TIP3   OH273026   0.847   1.047  10.233  0.4474  0.4947 -0.0790
17204TIP3    H173027   0.764   1.070  10.276 -0.0347  0.3263 -0.9082
17204TIP3    H273028   0.899   1.128  10.238  0.6072  0.3330  1.2644
17205TIP3   OH273029   4.616   1.094  13.296 -0.3569 -0.2492 -0.3455
17205TIP3    H173030   4.678   1.081  13.368 -0.7274 -0.1868 -0.0160
17205TIP3    H273031   4.556   1.162  13.327 -0.6052 -0.3242 -0.6547
17206TIP3   OH273032   4.272   1.419   5.939 -0.0605 -0.0377 -0.1135
17206TIP3    H173033   4.273   1.454   6.028  0.2812  1.3606 -0.6417
17206TIP3    H273034   4.305   1.330   5.948 -1.1264 -0.3329  1.3048
17207TIP3   OH273035   5.386   0.711   0.033 -0.0138 -0.4655  0.2533
17207TIP3    H173036   5.431   0.785   0.074 -0.9863 -0.4779  1.4054
17207TIP3    H273037   5.449   0.639   0.038 -0.0702 -0.4438  1.7045
17208TIP3   OH273038   4.507   1.532   3.844  0.3314  0.1066  0.3588
17208TIP3    H173039   4.561   1.524   3.923 -0.6413 -1.9023  0.8854
17208TIP3    H273040   4.490   1.442   3.818  0.6416  0.7201 -2.2033
17209TIP3   OH273041   3.028   1.612  11.651 -0.1741 -0.5566  0.0464
17209TIP3    H173042   3.090   1.576  11.714 -0.4334 -1.8027 -0.3677
17209TIP3    H273043   2.948   1.629  11.701 -0.7725 -2.6375 -0.1058
17210TIP3   OH273044   6.717   4.998  10.487  0.1876 -0.4586 -0.1266
17210TIP3    H173045   6.738   4.960  10.402  1.3710 -1.2076  0.4755
17210TIP3    H273046   6.634   4.957  10.512 -0.6801  0.4958 -1.3307
17211TIP3   OH273047   1.357   2.926   1.768 -0.0769 -0.0498 -0.1190
17211TIP3    H173048   1.272   2.882   1.772 -0.3283  0.4678  0.2278
17211TIP3    H273049   1.411   2.868   1.713 -0.2726 -1.0183  0.6877
17212TIP3   OH273050   2.101   2.673   5.062  0.0079  0.7376  0.4855
17212TIP3    H173051   2.186   2.688   5.103  0.1021 -0.2050  0.6602
17212TIP3    H273052   2.118   2.607   4.995 -0.2255  1.9604 -0.8139
17213TIP3   OH273053   1.321   4.432   0.501  0.0226  0.4082  0.6582
17213TIP3    H173054   1.271   4.511   0.481  1.5926  1.1954 -0.4213
17213TIP3    H273055   1.335   4.435   0.596 -1.3086  0.5595  0.8572
17214TIP3   OH273056   3.433   2.411  17.019  0.1149 -0.3949  0.2654
17214TIP3    H173057   3.475   2.344  16.966  0.7166 -0.4709  0.8272
17214TIP3    H273058   3.377   2.363  17.080  1.3847 -0.4908  1.4156
17215TIP3   OH273059   4.957   2.898  15.921  0.3363  0.6287 -0.1169
17215TIP3    H173060   4.988   2.810  15.899  1.0262  0.3488  1.8545
17215TIP3    H273061   5.034   2.954  15.909  1.0252  0.3210  2.3174
17216TIP3   OH273062   1.175   5.474  16.777  0.2663  0.5752 -0.0952
17216TIP3    H173063   1.094   5.519  16.800 -0.0944 -0.0674 -0.1029
17216TIP3    H273064   1.227   5.541  16.732  0.1561  1.2734  0.7899
17217TIP3   OH273065   3.664   0.275   0.803  0.1852 -0.3178 -0.1156
17217TIP3    H173066   3.625   0.194   0.835  0.7206 -1.5475 -2.3920
17217TIP3    H273067   3.756   0.254   0.790  0.5729  1.0189  0.3091
17218TIP3   OH273068   3.974   2.233  15.417 -0.2131  0.7321 -0.2062
17218TIP3    H173069   3.943   2.301  15.477  2.5727  0.4003  1.7636
17218TIP3    H273070   3.979   2.154  15.471 -0.2055 -0.2493 -1.5981
17219TIP3   OH273071   2.246   4.548   2.522  0.0481  0.5793 -0.3417
17219TIP3    H173072   2.242   4.584   2.433 -1.6082  0.3786 -0.3674
17219TIP3    H273073   2.163   4.502   2.534  1.3606 -1.8124  0.3104
17220TIP3   OH273074   4.031   1.973  12.781  0.0579 -0.2339 -0.2007
17220TIP3    H173075   3.952   2.009  12.742 -0.4138 -0.8320  0.1783
17220TIP3    H273076   4.006   1.951  12.871  1.0489  0.8832  0.3791
17221TIP3   OH273077   6.812   0.980   0.061  0.2323 -0.3391  0.3147
17221TIP3    H173078   6.772   0.897   0.037  1.5621 -1.8068  2.7941
17221TIP3    H273079   6.741   1.033   0.096 -0.1210 -1.7876  1.9127
17222TIP3   OH273080   3.597   4.884  13.860 -0.1865 -0.2343  0.5514
17222TIP3    H173081   3.509   4.867  13.894 -0.1592  0.3253  0.9176
17222TIP3    H273082   3.656   4.847  13.925 -0.0941  2.2555  2.0316
17223TIP3   OH273083   6.269   5.911   2.547 -0.3557  0.2728  0.1575
17223TIP3    H173084   6.340   5.951   2.496 -1.1063  1.1325 -0.2403
17223TIP3    H273085   6.261   5.822   2.512  2.0838 -0.6898  1.8067
17224TIP3   OH273086   3.967   4.525   2.615  0.5097 -0.1209 -0.1977
17224TIP3    H173087   3.996   4.583   2.684  0.7986  1.6925 -1.7566
17224TIP3    H273088   3.941   4.445   2.660 -1.8744  1.8659  2.2989
17225TIP3   OH273089   1.496   2.741   2.853 -0.5287 -0.1766 -0.1182
17225TIP3    H173090   1.507   2.646   2.850  0.2933 -0.0879 -0.3586
17225TIP3    H273091   1.523   2.766   2.941  1.1638  0.0220 -0.6507
17226TIP3   OH273092   2.594   5.991   0.021 -0.0261 -0.2088  0.3505
17226TIP3    H173093   2.563   6.006  -0.068  3.2949 -0.7614 -1.0330
17226TIP3    H273094   2.684   6.023   0.021 -0.3327  1.0996  3.9858
17227TIP3   OH273095   0.094   2.438   0.151  0.3792 -0.3453  0.2145
17227TIP3    H173096   0.044   2.365   0.187 -0.6086  0.6438  0.9135
17227TIP3    H273097   0.109   2.497   0.225  3.2359 -0.8986  0.2035
17228TIP3   OH273098   4.350   3.998   4.389  0.4031 -0.0660  0.3973
17228TIP3    H173099   4.399   4.054   4.449  3.0104 -2.0418  0.2926
17228TIP3    H273100   4.306   3.935   4.447 -1.2143  1.0079  0.4178
17229TIP3   OH273101   1.300   5.126   4.634  0.2768 -0.4276 -0.3416
17229TIP3    H173102   1.207   5.149   4.641  0.2047 -0.9039  0.3668
17229TIP3    H273103   1.346   5.211   4.635 -0.0733 -0.2415  0.7003
17230TIP3   OH273104   2.176   2.853   1.379 -0.1119  0.3346 -0.1331
17230TIP3    H173105   2.236   2.923   1.407  0.3308 -0.4056  0.8142
17230TIP3    H273106   2.088   2.890   1.394  0.1164  0.6168  0.5652
17231TIP3   OH273107   6.263   5.505   0.364  0.2400  0.2813 -0.1111
17231TIP3    H173108   6.173   5.530   0.342  0.7547  1.4458 -0.9830
17231TIP3    H273109   6.256   5.414   0.390 -1.1545  0.2545 -0.4715
17232TIP3   OH273110   6.287   6.621   4.335  0.4935  0.2569  0.6085
17232TIP3    H173111   6.358   6.558   4.343 -0.0420 -0.4350 -0.0489
17232TIP3    H273112   6.232   6.587   4.265 -0.6833  0.5929  1.3462
17233TIP3   OH273113   4.171   5.738   5.675  0.1084 -0.7387 -0.2650
17233TIP3    H173114   4.158   5.698   5.761  0.6733 -1.1022 -0.3411
17233TIP3    H273115   4.084   5.765   5.648 -0.0290 -0.2791  0.5841
17234TIP3   OH273116   2.993   3.464   4.196 -0.6718 -0.5840 -0.0601
17234TIP3    H173117   2.929   3.421   4.139 -1.1132 -1.4971  1.0836
17234TIP3    H273118   3.045   3.392   4.232 -1.0949 -0.1494  1.5037
17235TIP3   OH273119   5.265   0.526  15.678  0.1416 -1.0416  0.1080
17235TIP3    H173120   5.281   0.432  15.673 -0.4062 -1.0948 -0.9765
17235TIP3    H273121   5.170   0.535  15.683  0.0618 -0.5218 -1.5688
17236TIP3   OH273122   2.552   4.124   4.114  0.1834  0.6821  0.2413
17236TIP3    H173123   2.485   4.104   4.179 -0.2353  0.6392 -0.2027
17236TIP3    H273124   2.624   4.161   4.165  1.2268 -2.3441  1.1780
17237TIP3   OH273125   6.071   2.950  11.833  0.1569 -0.4545  0.1480
17237TIP3    H173126   6.163   2.950  11.862  0.2241  1.6107  0.0296
17237TIP3    H273127   6.021   2.936  11.914  0.5040  1.1753  0.6855
17238TIP3   OH273128   6.567   4.534   4.846 -1.1666  0.2331 -0.4252
17238TIP3    H173129   6.478   4.505   4.823 -1.1491 -0.3250  0.2062
17238TIP3    H273130   6.606   4.557   4.762 -1.8697  0.3789 -0.7263
17239TIP3   OH273131   5.365   5.091   6.331 -0.0553 -0.2746 -0.4794
17239TIP3    H173132   5.313   5.144   6.391 -0.0030 -0.6832 -0.0627
17239TIP3    H273133   5.431   5.151   6.297 -2.6585  1.1431 -3.4987
17240TIP3   OH273134   0.535   3.926  14.170  0.2179 -0.4522  0.7450
17240TIP3    H173135   0.595   3.857  14.197  0.2009 -0.5877  0.4483
17240TIP3    H273136   0.591   3.992  14.130  0.1064 -0.9052 -0.1889
17241TIP3   OH273137   3.769   0.582  16.848 -0.0365  0.0755 -0.1509
17241TIP3    H173138   3.769   0.621  16.935 -1.7642 -2.0234  0.8838
17241TIP3    H273139   3.757   0.657  16.789  1.3882  1.5667  1.3432
17242TIP3   OH273140   5.457   6.504  11.347 -0.3969 -0.2524  0.0583
17242TIP3    H173141   5.420   6.553  11.421 -0.0576 -1.6776  1.2436
17242TIP3    H273142   5.533   6.556  11.320  0.0650 -0.1705  1.3910
17243TIP3   OH273143   0.600   3.717   2.601  0.5528 -0.2471  0.2251
17243TIP3    H173144   0.621   3.810   2.604  0.7857 -0.2804 -0.3116
17243TIP3    H273145   0.638   3.681   2.682  0.8252  0.0471  0.2295
17244TIP3   OH273146   1.316   3.071   1.340  0.0462 -0.1162  0.0261
17244TIP3    H173147   1.294   3.128   1.267 -0.3834  0.2563  0.4419
17244TIP3    H273148   1.243   3.008   1.345  0.5729 -0.7931 -0.5059
17245TIP3   OH273149   5.617   4.963  14.364  0.1747 -0.6282  0.0560
17245TIP3    H173150   5.629   4.990  14.455  0.6269  0.3300 -0.2745
17245TIP3    H273151   5.697   4.915  14.342  1.4005  1.6257 -0.6857
17246TIP3   OH273152   6.317   5.170   4.907  0.2290  0.4050 -0.2228
17246TIP3    H173153   6.285   5.248   4.952 -0.3299  0.4967 -0.7611
17246TIP3    H273154   6.238   5.124   4.880  0.5195 -0.9523  1.0748
17247TIP3   OH273155   6.003   4.716  16.954 -0.0714 -0.4700  0.1248
17247TIP3    H173156   6.047   4.678  17.030  0.2017 -1.2855 -0.4247
17247TIP3    H273157   5.959   4.795  16.988  2.5058  0.8956  0.5465
17248TIP3   OH273158   2.555   2.809   4.782 -0.8057 -0.5975  0.3113
17248TIP3    H173159   2.560   2.902   4.763  1.3875 -0.8941 -0.8655
17248TIP3    H273160   2.567   2.804   4.877 -0.0596  0.2713  0.2775
17249TIP3   OH273161   4.128   4.254   2.811  0.1933  0.8016  0.0263
17249TIP3    H173162   4.207   4.279   2.763  1.4454 -0.8024  1.1593
17249TIP3    H273163   4.084   4.192   2.753  0.4728  0.6628 -0.0409
17250TIP3   OH273164   5.439   4.270   4.965  0.0698  0.0882 -0.0321
17250TIP3    H173165   5.491   4.245   4.889 -0.2698 -1.4362  0.2007
17250TIP3    H273166   5.485   4.346   5.001 -0.0886  1.2267 -2.0572
17251TIP3   OH273167   0.531   2.900   5.847 -0.2987  0.0330 -0.0759
17251TIP3    H173168   0.583   2.876   5.769  0.5401 -0.7432  0.6899
17251TIP3    H273169   0.514   2.817   5.890 -2.8641  0.1795 -0.6682
17252TIP3   OH273170   0.702   4.657  11.983  0.1599 -0.1061  0.2536
17252TIP3    H173171   0.706   4.695  11.895  1.3970 -3.1401 -1.1403
17252TIP3    H273172   0.630   4.594  11.979  1.8153 -2.1215  0.4967
17253TIP3   OH273173   1.952   3.897   3.402 -0.5770 -0.0073  0.2896
17253TIP3    H173174   1.867   3.937   3.385  0.1208  1.0959 -0.7323
17253TIP3    H273175   2.006   3.968   3.436  0.4134 -0.2982 -0.6318
17254TIP3   OH273176   4.558   5.586   2.980  0.2637 -0.0953 -0.2287
17254TIP3    H173177   4.548   5.680   2.967  1.9233  0.2903  1.0415
17254TIP3    H273178   4.470   5.556   3.005 -0.1244  1.2363  0.0621
17255TIP3   OH273179   4.246   2.368  14.104  0.5879  0.0321 -0.3321
17255TIP3    H173180   4.303   2.327  14.170  0.0651 -0.1651  0.0037
17255TIP3    H273181   4.181   2.415  14.156 -0.1497 -0.5695 -0.7075
17256TIP3   OH273182   4.398   6.694   4.355 -0.0841 -0.4072 -0.3057
17256TIP3    H173183   4.416   6.758   4.425 -0.6848  0.0650 -0.5749
17256TIP3    H273184   4.335   6.634   4.394 -1.2402  0.4730 -0.7687
17257TIP3   OH273185   0.105   6.300  11.969  0.8707 -0.8558 -0.5485
17257TIP3    H173186   0.075   6.338  11.886  1.4413  0.6630 -0.0881
17257TIP3    H273187   0.045   6.227  11.985 -0.2626 -0.1644 -1.4829
17258TIP3   OH273188   1.399   4.706  13.744 -0.0755  0.3895  0.0522
17258TIP3    H173189   1.359   4.662  13.669 -1.6279 -0.1169  1.1266
17258TIP3    H273190   1.392   4.644  13.816  0.9048  1.0652  0.7643
17259TIP3   OH273191   4.301   5.668  12.399  0.0883  0.0639  0.1259
17259TIP3    H173192   4.376   5.704  12.445  0.2066 -1.7448  1.4463
17259TIP3    H273193   4.227   5.721  12.429  0.7272  1.5142 -0.7796
17260TIP3   OH273194   5.633   0.844   5.427  0.5354 -0.6339  0.1341
17260TIP3    H173195   5.627   0.796   5.345  0.0179  2.4109 -1.7648
17260TIP3    H273196   5.714   0.894   5.419 -0.6938  1.5029  0.3385
17261TIP3   OH273197   5.434   0.205   3.636 -0.5328  0.3335 -0.3072
17261TIP3    H173198   5.409   0.139   3.573 -0.6896 -0.7005  0.7967
17261TIP3    H273199   5.530   0.204   3.635 -0.5354  0.2559 -0.4566
17262TIP3   OH273200   2.789   0.815  13.816  0.2763 -0.3733  0.1229
17262TIP3    H173201   2.805   0.774  13.731  0.3541 -0.1728  0.0409
17262TIP3    H273202   2.820   0.905  13.806 -0.9170  0.0477 -0.0598
17263TIP3   OH273203   3.029   6.623  15.293 -0.2643 -0.3461 -0.0238
17263TIP3    H173204   3.120   6.650  15.286 -0.8200  1.3457 -1.3891
17263TIP3    H273205   3.031   6.529  15.275  1.4275 -0.8535  2.3029
17264TIP3   OH273206   2.515   1.954   1.083 -0.1523  0.2767 -0.6725
17264TIP3    H173207   2.578   1.970   1.153 -0.9812  0.3951  0.0682
17264TIP3    H273208   2.526   2.027   1.023  1.3104 -0.3779 -1.2522
17265TIP3   OH273209   1.965   2.385   4.122  0.4971 -0.2458 -0.4380
17265TIP3    H173210   1.940   2.434   4.200  0.4233 -2.4500  0.9845
17265TIP3    H273211   2.060   2.394   4.118  0.4734  0.1023 -0.2595
17266TIP3   OH273212   2.727   1.060  15.475  0.6608  0.2892 -0.7044
17266TIP3    H173213   2.817   1.092  15.487  0.0606  1.4213  1.2130
17266TIP3    H273214   2.681   1.087  15.554 -1.3762 -0.3451 -1.5983
17267TIP3   OH273215   5.243   5.132   4.728 -0.5562  0.6545 -0.0557
17267TIP3    H173216   5.281   5.136   4.640  0.8830  1.9905  0.5782
17267TIP3    H273217   5.182   5.058   4.724  0.1834  0.0758 -1.8909
17268TIP3   OH273218   4.945   2.363   6.050  0.4577  0.0247 -0.3072
17268TIP3    H173219   4.898   2.280   6.046  0.8717 -0.2815  0.7765
17268TIP3    H273220   5.032   2.339   6.081  0.5674  0.8674  0.0507
17269TIP3   OH273221   5.740   5.600   2.010 -0.0529  0.2490  0.3751
17269TIP3    H173222   5.675   5.551   1.959  0.3188 -3.6647  3.2224
17269TIP3    H273223   5.687   5.660   2.063 -0.9653  0.0963 -0.3351
17270TIP3   OH273224   6.161   0.845   6.258  0.9804  0.0446  0.2428
17270TIP3    H173225   6.074   0.881   6.277  0.1476 -1.1073 -1.2252
17270TIP3    H273226   6.161   0.759   6.299  1.0092 -0.4030 -0.6740
17271TIP3   OH273227   4.598   5.647  15.897 -0.5113  0.0104  0.2619
17271TIP3    H173228   4.601   5.701  15.977 -1.0924 -0.5863  0.6968
17271TIP3    H273229   4.588   5.710  15.826  1.2921  0.6580  0.5203
17272TIP3   OH273230   5.117   5.981   4.997  0.0357  0.4049  0.2318
17272TIP3    H173231   5.052   5.911   4.995 -0.7368  1.0587  1.2503
17272TIP3    H273232   5.072   6.057   4.959 -0.0551  1.0532  1.5919
17273TIP3   OH273233   3.856   4.667  14.612 -0.3991  0.1673  0.0493
17273TIP3    H173234   3.905   4.748  14.627 -0.3602 -0.1171  1.6991
17273TIP3    H273235   3.828   4.640  14.700 -2.7673 -0.1499 -0.7127
17274TIP3   OH273236   3.513   1.546   3.365  0.1243  0.5623  0.4269
17274TIP3    H173237   3.434   1.596   3.388  0.2024  0.6867  0.4271
17274TIP3    H273238   3.585   1.599   3.400  0.3304  1.3417 -1.0923
17275TIP3   OH273239   2.880   3.627  13.424 -0.2248  0.4226  0.2842
17275TIP3    H173240   2.796   3.614  13.382  0.8157  0.5877 -2.0039
17275TIP3    H273241   2.937   3.561  13.385  0.9942  1.0667  0.9134
17276TIP3   OH273242   3.864   1.830  10.646 -0.1315  0.3674 -0.2626
17276TIP3    H173243   3.843   1.741  10.619 -1.1325  0.9301 -1.4494
17276TIP3    H273244   3.950   1.848  10.607 -1.0501  0.7666 -2.2317
17277TIP3   OH273245   2.933   2.110   0.164 -0.1064  0.1414 -0.3624
17277TIP3    H173246   2.887   2.097   0.246 -0.0105 -0.6787 -0.4263
17277TIP3    H273247   2.866   2.097   0.097  0.1253 -0.6779 -0.4454
17278TIP3   OH273248   0.938   1.482  15.175  0.2332 -0.1109  0.5013
17278TIP3    H173249   0.914   1.473  15.083 -0.0464  0.5249  0.5036
17278TIP3    H273250   0.979   1.399  15.198  1.3640  0.1259 -0.5215
17279TIP3   OH273251   4.800   0.820   3.607  0.4974  0.3541 -0.0535
17279TIP3    H173252   4.877   0.878   3.610 -1.1872  2.7731 -0.1367
17279TIP3    H273253   4.737   0.868   3.554 -1.2063 -1.3959  0.2915
17280TIP3   OH273254   2.239   2.427   3.047 -0.0853  0.1206 -0.3478
17280TIP3    H173255   2.333   2.443   3.040 -0.1300  0.2897 -0.5719
17280TIP3    H273256   2.231   2.332   3.035  0.2115 -0.1530  1.3607
17281TIP3   OH273257   5.087   0.387   4.532 -0.7313 -0.0700 -0.3691
17281TIP3    H173258   5.178   0.363   4.553 -1.3147 -1.5760  0.6511
17281TIP3    H273259   5.050   0.308   4.494 -0.9912  1.2669 -3.0987
17282TIP3   OH273260   3.674   6.196  10.029  0.5062 -0.1161  0.1138
17282TIP3    H173261   3.596   6.165  10.076 -0.4502  1.1386 -0.5977
17282TIP3    H273262   3.649   6.282   9.995  1.9099 -0.0736 -0.8837
17283TIP3   OH273263   4.390   6.327  13.876 -1.0000  0.1752  0.0246
17283TIP3    H173264   4.419   6.273  13.802  1.0545  1.4988 -0.2273
17283TIP3    H273265   4.396   6.270  13.952  1.0954 -0.0537 -0.2426
17284TIP3   OH273266   3.462   5.888  15.959 -0.2684 -0.7031  0.6574
17284TIP3    H173267   3.401   5.926  16.022  0.0115 -0.3641  0.7263
17284TIP3    H273268   3.514   5.962  15.929 -0.3531 -0.8783  0.0775
17285TIP3   OH273269   4.719   4.256   0.647 -0.0215  0.0845  0.8619
17285TIP3    H173270   4.803   4.236   0.688  0.1048  1.5764  1.3766
17285TIP3    H273271   4.662   4.182   0.669  1.1230 -0.9160  0.5492
17286TIP3   OH273272   5.522   6.733  11.974  0.5878 -0.2897  0.1454
17286TIP3    H173273   5.550   6.649  11.937 -1.3575 -0.2243 -1.6383
17286TIP3    H273274   5.541   6.726  12.067  2.6677 -1.7560 -0.3142
17287TIP3   OH273275   6.347   0.746   5.302  0.2165 -0.0861 -0.1973
17287TIP3    H173276   6.263   0.790   5.288  0.5158  0.8648  0.8429
17287TIP3    H273277   6.325   0.673   5.360 -0.2523 -1.2331 -1.7786
17288TIP3   OH273278   3.063   3.624   2.618 -0.5108  0.1312 -0.1215
17288TIP3    H173279   3.003   3.583   2.556 -2.7110 -0.8796  2.4724
17288TIP3    H273280   3.009   3.688   2.665  1.3721  1.7534 -0.0228
17289TIP3   OH273281   4.443   0.171  15.504  0.1795 -0.1293 -0.2594
17289TIP3    H173282   4.382   0.231  15.462  1.4992  1.8910  0.5517
17289TIP3    H273283   4.493   0.132  15.433  0.3691  0.9621 -0.7342
17290TIP3   OH273284   4.837   4.450   4.609  0.2391 -0.3360 -0.2658
17290TIP3    H173285   4.892   4.528   4.596 -0.2476  0.1330  0.4669
17290TIP3    H273286   4.769   4.478   4.669 -2.2418 -0.2111 -2.9043
17291TIP3   OH273287   4.917   6.291  12.986  0.3271  0.1126 -0.0577
17291TIP3    H173288   4.942   6.203  12.958  0.2668 -0.4741  1.6249
17291TIP3    H273289   4.996   6.327  13.027  0.3371  0.8446 -0.6850
17292TIP3   OH273290   5.180   0.522  15.014  0.0032 -0.2717  0.1459
17292TIP3    H173291   5.204   0.570  14.935  4.5625 -0.3195  1.2452
17292TIP3    H273292   5.145   0.588  15.073 -0.9013  0.2452 -0.9378
17293TIP3   OH273293   5.876   2.686   6.027 -0.2035  0.3286 -0.2341
17293TIP3    H173294   5.803   2.737   5.991 -0.2044 -0.0840 -0.8273
17293TIP3    H273295   5.914   2.641   5.952 -0.7455 -1.2227  0.3765
17294TIP3   OH273296   6.109   6.320   4.067 -0.1281  0.2032 -0.4416
17294TIP3    H173297   6.173   6.269   4.118 -1.3423  1.4909  2.5923
17294TIP3    H273298   6.142   6.315   3.977  2.5005 -1.7496  0.4706
17295TIP3   OH273299   6.635   0.082  15.935  0.1639 -0.1900  0.3579
17295TIP3    H173300   6.720   0.039  15.943 -0.2653 -1.5369 -1.5729
17295TIP3    H273301   6.598   0.079  16.023  2.3817  1.0992  1.4153
17296TIP3   OH273302   5.620   5.069   2.886 -0.0813 -0.1075 -0.3770
17296TIP3    H173303   5.704   5.055   2.928  0.2298 -1.1384 -1.2923
17296TIP3    H273304   5.582   4.982   2.878 -0.4059  0.1239 -1.6180
17297TIP3   OH273305   1.966   3.866   1.494  0.6458  0.0054  0.6054
17297TIP3    H173306   2.004   3.867   1.406 -1.2664 -0.4907 -0.2820
17297TIP3    H273307   1.876   3.897   1.482  1.0447  2.3137  2.7832
17298TIP3   OH273308   2.111   1.350   4.877  0.7504 -0.0178  0.1724
17298TIP3    H173309   2.088   1.354   4.784  0.3542  2.0135  0.3121
17298TIP3    H273310   2.179   1.416   4.887  0.7884 -0.2208  1.3300
17299TIP3   OH273311   6.819   3.959   3.915 -0.3381  0.1533  0.5302
17299TIP3    H173312   6.799   4.053   3.913  1.1215  0.5369 -2.7801
17299TIP3    H273313   6.776   3.924   3.837  0.8004 -1.5481  0.6146
17300TIP3   OH273314   4.888   0.567   3.574  0.2148  0.3630 -0.1071
17300TIP3    H173315   4.868   0.660   3.559  0.6800  0.6042  0.7018
17300TIP3    H273316   4.912   0.562   3.667 -2.6868 -1.0905  0.6665
17301TIP3   OH273317   5.488   2.247   3.422 -1.0525 -0.3421 -0.1545
17301TIP3    H173318   5.507   2.169   3.369 -0.9979 -0.1375 -0.4431
17301TIP3    H273319   5.523   2.227   3.508 -0.1983 -0.2776 -0.4768
17302TIP3   OH273320   1.294   2.959   0.402  0.3973  0.0941 -0.1345
17302TIP3    H173321   1.384   2.962   0.369 -0.1061  1.2072 -1.5170
17302TIP3    H273322   1.284   3.039   0.453  0.4251 -0.4376  0.7254
17303TIP3   OH273323   6.712   2.361   3.750 -0.5532 -0.1714 -0.1602
17303TIP3    H173324   6.659   2.434   3.716  1.4422  2.1609  1.3930
17303TIP3    H273325   6.760   2.399   3.824  0.0560 -3.3089  1.2025
17304TIP3   OH273326   3.817   5.201   4.006  0.2070  0.3471  0.6098
17304TIP3    H173327   3.722   5.202   4.007  0.1892  0.5911 -0.3017
17304TIP3    H273328   3.842   5.286   3.969  0.7134 -0.4397 -0.9530
17305TIP3   OH273329   2.584   5.035   4.279  0.2187  0.2900  0.2603
17305TIP3    H173330   2.659   5.022   4.222 -1.5920  0.4749 -2.3072
17305TIP3    H273331   2.546   4.947   4.290 -0.2656  0.4632 -0.0172
17306TIP3   OH273332   3.330   1.499  14.069 -0.1615 -0.1534 -0.1360
17306TIP3    H173333   3.366   1.413  14.088  0.2177  0.4031  1.8185
17306TIP3    H273334   3.282   1.524  14.148  0.2358  1.6780 -0.4282
17307TIP3   OH273335   5.407   2.317   0.990 -0.1214 -0.2753  0.3546
17307TIP3    H173336   5.469   2.376   1.032 -0.9393  1.7301 -1.1149
17307TIP3    H273337   5.321   2.343   1.025 -0.7360  0.9743 -1.8960
17308TIP3   OH273338   2.220   1.951  13.908 -0.1103  0.7123 -0.3151
17308TIP3    H173339   2.146   1.918  13.958 -0.8828  0.8268 -1.3503
17308TIP3    H273340   2.248   2.030  13.955  0.5355 -0.3203  1.0988
17309TIP3   OH273341   3.166   3.527   4.741 -0.1759 -0.4699  0.6366
17309TIP3    H173342   3.167   3.579   4.821  1.1220 -1.4196  1.2777
17309TIP3    H273343   3.251   3.482   4.741 -0.4039 -0.9622 -0.9612
17310TIP3   OH273344   4.121   3.924  15.532 -0.2764  0.0700  0.0647
17310TIP3    H173345   4.134   4.018  15.516 -0.4592 -0.0467 -0.8404
17310TIP3    H273346   4.054   3.898  15.469 -0.9312 -0.4719  0.9703
17311TIP3   OH273347   5.703   2.649  11.996 -0.1652 -0.3842 -0.3833
17311TIP3    H173348   5.737   2.593  11.926  1.9190  0.2077  0.0977
17311TIP3    H273349   5.638   2.705  11.952 -1.0052 -1.9206 -1.2217
17312TIP3   OH273350   4.526   0.731  13.850  0.2196 -0.0189 -0.1014
17312TIP3    H173351   4.454   0.753  13.910  0.1995  2.8067 -1.0140
17312TIP3    H273352   4.548   0.814  13.808  3.2732 -1.0015 -0.7050
17313TIP3   OH273353   6.815   3.004   5.790  0.3000  0.5290  0.7013
17313TIP3    H173354   6.839   2.980   5.700 -1.8737  2.8005 -0.5772
17313TIP3    H273355   6.888   3.059   5.820  0.2870  1.0868 -0.2669
17314TIP3   OH273356   3.903   4.936  14.680  0.5405  0.2764  0.5973
17314TIP3    H173357   3.833   4.967  14.738  0.6657  0.0833  0.8518
17314TIP3    H273358   3.980   4.986  14.706  0.5890  0.2133  0.5754
17315TIP3   OH273359   4.968   0.490  16.076 -0.0318 -0.1234  0.1311
17315TIP3    H173360   4.877   0.506  16.100  0.1062  2.2652 -0.7165
17315TIP3    H273361   5.001   0.432  16.145 -1.3404  1.4767  2.2168
17316TIP3   OH273362   1.202   3.069  14.947 -0.5283  0.2181 -0.1019
17316TIP3    H173363   1.110   3.091  14.967 -0.4921  0.1892  0.0958
17316TIP3    H273364   1.251   3.101  15.022 -0.3749  0.2347 -0.2090
17317TIP3   OH273365   1.017   5.042   1.432  0.5911 -0.3208  0.3829
17317TIP3    H173366   1.056   5.103   1.369  1.7349  0.6323  1.9520
17317TIP3    H273367   1.050   4.956   1.405  0.1805 -0.0757 -0.9503
17318TIP3   OH273368   2.900   2.589  13.550 -1.1619 -0.1483  0.2450
17318TIP3    H173369   2.844   2.514  13.570 -0.8259 -1.3444 -2.7729
17318TIP3    H273370   2.989   2.560  13.570 -0.7459 -1.5885 -2.9761
17319TIP3   OH273371   4.593   4.865   4.839  0.0201  0.3234  0.6777
17319TIP3    H173372   4.555   4.896   4.757  0.3010  0.6078  0.6504
17319TIP3    H273373   4.534   4.899   4.907 -1.6031 -1.9563  0.5059
17320TIP3   OH273374   4.406   6.042  13.372  0.4788 -0.1584 -0.5201
17320TIP3    H173375   4.426   6.135  13.361  2.2674 -0.7058 -2.7484
17320TIP3    H273376   4.353   6.019  13.295 -0.1888 -0.9301  0.1480
17321TIP3   OH273377   6.563   0.295  10.685  0.0761 -0.1220  0.4657
17321TIP3    H173378   6.565   0.380  10.728 -0.1749 -0.1673  0.5631
17321TIP3    H273379   6.654   0.281  10.657 -0.2569  1.1797 -1.5092
17322TIP3   OH273380   3.448   0.295   1.394  0.2566 -0.2752  0.3273
17322TIP3    H173381   3.385   0.224   1.380 -2.0400  1.1192  2.5743
17322TIP3    H273382   3.451   0.305   1.489  1.0123  2.1830  0.1134
17323TIP3   OH273383   0.346   3.606   2.547 -0.1344 -0.6135  0.0144
17323TIP3    H173384   0.412   3.675   2.553 -1.7100  0.8026  2.4875
17323TIP3    H273385   0.371   3.544   2.616  0.1617 -1.5248 -0.8998
17324TIP3   OH273386   4.831   1.767  13.917 -0.6760  0.3467  0.4976
17324TIP3    H173387   4.849   1.686  13.964  1.3498  1.2795  1.4566
17324TIP3    H273388   4.875   1.757  13.833 -3.1919 -0.7915 -0.7806
17325TIP3   OH273389   4.958   4.318  15.424  0.3947 -0.0805 -0.2772
17325TIP3    H173390   4.893   4.273  15.371  0.9187 -0.5532 -0.5268
17325TIP3    H273391   4.929   4.410  15.426  1.3317  0.3381 -2.8780
17326TIP3   OH273392   6.011   6.524   2.167 -0.1691 -0.5674  0.1457
17326TIP3    H173393   5.972   6.610   2.151 -0.4578 -0.5804  0.7451
17326TIP3    H273394   5.954   6.462   2.122  0.9290 -0.3294 -1.6701
17327TIP3   OH273395   2.914   4.541   0.812  0.6838  0.1745  0.0368
17327TIP3    H173396   3.008   4.551   0.795  0.7682 -0.2283  0.2530
17327TIP3    H273397   2.876   4.525   0.725  0.9790 -0.8606  0.0875
17328TIP3   OH273398   5.703   3.858  15.706  0.1172  0.4736 -0.3023
17328TIP3    H173399   5.671   3.947  15.722 -0.8823  0.1024 -0.1519
17328TIP3    H273400   5.629   3.802  15.730  0.2168 -0.3333 -1.7740
17329TIP3   OH273401   4.581   0.719   0.088  0.1091  0.1584 -0.1612
17329TIP3    H173402   4.526   0.790   0.053  1.2378  0.7557 -0.7695
17329TIP3    H273403   4.579   0.652   0.020 -1.4263 -0.6863  0.6582
17330TIP3   OH273404   4.588   5.964  15.060 -0.6074 -0.0657 -0.0300
17330TIP3    H173405   4.611   6.056  15.073 -2.5158  0.4954 -0.2789
17330TIP3    H273406   4.644   5.935  14.988 -0.4521  1.0890 -0.3983
17331TIP3   OH273407   5.847   5.484   0.930  0.5333  0.4323 -0.1980
17331TIP3    H173408   5.918   5.542   0.902 -2.4332  3.6756 -1.7855
17331TIP3    H273409   5.852   5.484   1.026  2.2719  1.0813 -0.2587
17332TIP3   OH273410   5.386   4.714   0.639 -0.6822  0.1632  0.3451
17332TIP3    H173411   5.342   4.768   0.705 -0.7689  0.3167  0.1609
17332TIP3    H273412   5.323   4.707   0.567  0.4696  2.4296 -1.0018
17333TIP3   OH273413   1.909   0.722   0.431  0.0916 -0.0672  0.3187
17333TIP3    H173414   1.841   0.727   0.497 -0.4340  0.4119 -0.2478
17333TIP3    H273415   1.865   0.685   0.354  0.5622 -0.1055  0.0638
17334TIP3   OH273416   4.185   3.813  11.077  0.2257 -0.1731  0.3808
17334TIP3    H173417   4.134   3.830  11.157 -0.3435 -0.7831  0.1616
17334TIP3    H273418   4.126   3.838  11.006 -0.3229 -2.1676  0.0716
17335TIP3   OH273419   5.903   4.850  13.519  0.6993  0.2838 -0.0657
17335TIP3    H173420   5.833   4.889  13.466 -0.6937 -0.1584  1.3613
17335TIP3    H273421   5.976   4.912  13.511  0.3098  0.5589 -1.9198
17336TIP3   OH273422   1.055   2.210   4.194 -0.0932 -0.8650  0.5125
17336TIP3    H173423   0.973   2.172   4.226 -1.1036  0.8921  0.1360
17336TIP3    H273424   1.034   2.301   4.175  1.6160 -0.7079 -0.9247
17337TIP3   OH273425   3.303   4.953   4.186  0.0519  0.0905 -0.5905
17337TIP3    H173426   3.365   4.929   4.116  1.7220  1.7867  0.2251
17337TIP3    H273427   3.264   4.869   4.212  3.7636 -1.5545  0.4378
17338TIP3   OH273428   1.015   4.078  12.002 -0.3966  0.5074 -0.0453
17338TIP3    H173429   1.019   4.172  11.987 -1.5131  0.4726 -0.7414
17338TIP3    H273430   0.921   4.059  12.007 -0.1726 -0.3403  1.7279
17339TIP3   OH273431   5.620   1.038   0.409  0.4301 -0.4631  0.2311
17339TIP3    H173432   5.709   1.016   0.382 -0.3057 -0.4498 -2.5257
17339TIP3    H273433   5.620   1.133   0.419  0.8131 -0.5030  0.6022
17340TIP3   OH273434   2.900   6.397  11.952 -0.2620  0.1080  0.0122
17340TIP3    H173435   2.887   6.306  11.980 -0.5697 -0.3471 -1.5294
17340TIP3    H273436   2.962   6.433  12.016 -2.0344 -0.4082  2.1384
17341TIP3   OH273437   3.361   0.370   5.635 -0.3990  0.2251  0.6246
17341TIP3    H173438   3.395   0.321   5.710 -0.1395  1.2320  1.1875
17341TIP3    H273439   3.328   0.451   5.673 -0.7698  0.5166 -0.2898
17342TIP3   OH273440   5.896   0.107  12.972  0.2281 -0.3815 -0.0109
17342TIP3    H173441   5.882   0.083  12.880  1.3790 -0.0305 -0.2958
17342TIP3    H273442   5.830   0.173  12.990 -1.1837 -1.7266 -0.0383
17343TIP3   OH273443   3.000   0.350   4.623  0.4730 -0.5025  0.4983
17343TIP3    H173444   2.940   0.301   4.678  1.2163 -2.9267 -0.7152
17343TIP3    H273445   2.949   0.373   4.546  0.1437  0.6505  1.0373
17344TIP3   OH273446   6.794   2.922   2.465 -0.6353  0.2255  0.0224
17344TIP3    H173447   6.728   2.896   2.530 -1.9771  1.4388 -0.7737
17344TIP3    H273448   6.847   2.844   2.451 -1.6638 -0.6877  0.9927
17345TIP3   OH273449   4.111   6.002   3.350 -0.4762 -0.2632 -0.1862
17345TIP3    H173450   4.095   5.908   3.335 -1.2890  0.1039 -1.9041
17345TIP3    H273451   4.200   6.016   3.316 -0.2845 -0.4392  0.2374
17346TIP3   OH273452   6.085   0.009  16.284  0.0094 -0.1787 -0.2345
17346TIP3    H173453   6.153   0.074  16.305  0.7233 -1.1101  0.3961
17346TIP3    H273454   6.132  -0.060  16.237 -0.7263 -0.2842 -0.8118
17347TIP3   OH273455   2.250   5.939  12.734 -0.2562 -0.7936  0.2280
17347TIP3    H173456   2.276   6.027  12.760 -0.7299 -0.4927 -0.3287
17347TIP3    H273457   2.327   5.904  12.689 -1.0157  0.3799 -2.1165
17348TIP3   OH273458   1.715   3.340   4.765 -0.2721  0.3438  0.0856
17348TIP3    H173459   1.792   3.283   4.772 -0.6344 -0.2722 -0.7783
17348TIP3    H273460   1.666   3.323   4.846  1.0215  1.5699  1.1865
17349TIP3   OH273461   1.027   4.366  11.048  0.1052  0.2944  0.0111
17349TIP3    H173462   0.957   4.302  11.062 -1.7119  2.5932  2.3807
17349TIP3    H273463   1.025   4.383  10.954 -0.1740 -2.1103 -0.4998
17350TIP3   OH273464   4.955   3.264   0.178  0.5052  0.7735 -0.6268
17350TIP3    H173465   4.868   3.298   0.198  0.2842 -0.4124  0.5064
17350TIP3    H273466   4.939   3.176   0.145  1.3788 -0.4639  2.0227
17351TIP3   OH273467   0.238   5.958  16.935  0.3690 -0.3577 -0.9870
17351TIP3    H173468   0.170   5.901  16.897  1.8721 -2.1951 -1.0645
17351TIP3    H273469   0.211   5.968  17.026 -1.4444  1.2591 -1.6341
17352TIP3   OH273470   2.139   0.883   2.706  0.2303  0.2409 -0.2633
17352TIP3    H173471   2.214   0.924   2.663  0.2970 -0.9572 -1.3332
17352TIP3    H273472   2.119   0.807   2.652  0.2203 -1.2639  1.7497
17353TIP3   OH273473   4.983   0.273   3.958  0.1384 -0.3368 -0.6770
17353TIP3    H173474   4.938   0.285   3.875 -2.0564  0.8482  0.5636
17353TIP3    H273475   4.966   0.182   3.982  0.4521 -0.5724 -1.3332
17354TIP3   OH273476   6.406   3.812  15.311 -0.0267 -0.4124  0.2585
17354TIP3    H173477   6.461   3.734  15.313 -0.5022 -0.7389  1.1583
17354TIP3    H273478   6.405   3.838  15.219  1.0410 -0.8093  0.1173
17355TIP3   OH273479   6.310   6.742  14.918  0.2387 -0.1215 -0.3025
17355TIP3    H173480   6.270   6.660  14.945  0.0985  0.1802  0.4481
17355TIP3    H273481   6.357   6.773  14.996 -1.9800  1.8771  0.3638
17356TIP3   OH273482   5.495   0.781   0.276  0.6663 -0.1217 -0.0263
17356TIP3    H173483   5.525   0.852   0.333  0.6472 -0.4865  0.4396
17356TIP3    H273484   5.413   0.751   0.316  0.3098  0.0573 -0.6102
17357TIP3   OH273485   2.894   0.400  11.896 -0.2081  0.0641 -0.2819
17357TIP3    H173486   2.962   0.466  11.909 -0.5896  0.1523  1.4119
17357TIP3    H273487   2.940   0.316  11.907  0.0724  0.0395 -1.4623
17358TIP3   OH273488   2.816   1.268   4.604 -0.4782  0.0068  0.4187
17358TIP3    H173489   2.724   1.247   4.619 -0.3309 -0.2444  0.9975
17358TIP3    H273490   2.818   1.363   4.593 -0.5168  0.3156  2.7092
17359TIP3   OH273491   2.678   2.064  13.302 -0.0093  0.6995  0.5677
17359TIP3    H173492   2.637   2.140  13.261  0.8651 -0.8302 -3.6578
17359TIP3    H273493   2.617   1.992  13.286  1.4252 -0.4022 -0.1465
17360TIP3   OH273494   5.016   4.907  16.586 -0.1954 -0.1464 -0.1799
17360TIP3    H173495   5.017   5.001  16.564  0.7776  0.0388  0.6171
17360TIP3    H273496   5.055   4.864  16.510 -0.9578  0.0523 -0.6935
17361TIP3   OH273497   6.818   5.945  15.911  0.1881  0.3962  0.0439
17361TIP3    H173498   6.855   6.025  15.875 -1.2825  0.7422 -0.7988
17361TIP3    H273499   6.826   5.881  15.841  0.0466  0.2182  0.1900
17362TIP3   OH273500   1.337   4.703   5.507  0.2212 -0.5035 -0.3073
17362TIP3    H173501   1.406   4.765   5.533  0.4546 -0.7574 -0.3183
17362TIP3    H273502   1.382   4.619   5.502 -0.3147 -0.8695  0.7764
17363TIP3   OH273503   2.241   5.159  13.551  0.1266 -0.2175  0.1899
17363TIP3    H173504   2.326   5.167  13.595  0.1448  0.5850  0.0215
17363TIP3    H273505   2.233   5.065  13.533  0.7766 -0.3644  0.5968
17364TIP3   OH273506   0.271   1.375   3.755  0.1324 -0.1526  0.0122
17364TIP3    H173507   0.290   1.310   3.688 -1.3167 -1.4640  0.7931
17364TIP3    H273508   0.185   1.409   3.731 -1.1321 -1.7380  1.9051
17365TIP3   OH273509   3.360   1.073   0.830  0.0868 -0.2686  0.0855
17365TIP3    H173510   3.411   1.075   0.749  2.0006 -1.8926  1.1564
17365TIP3    H273511   3.410   1.015   0.888 -1.9359 -0.2539  1.9566
17366TIP3   OH273512   6.250   6.745  13.679 -0.1616 -0.1981 -0.3337
17366TIP3    H173513   6.302   6.748  13.599 -1.6116  0.9981 -1.2855
17366TIP3    H273514   6.188   6.673  13.665  0.7127 -1.1542  0.4987
17367TIP3   OH273515   3.214   2.882   2.781  0.2432  0.4612 -0.2032
17367TIP3    H173516   3.255   2.840   2.705 -0.9631 -1.9602  0.3562
17367TIP3    H273517   3.120   2.878   2.762 -0.0066  1.0245  0.8439
17368TIP3   OH273518   5.395   0.508  13.695  0.7171  0.0350  0.2560
17368TIP3    H173519   5.366   0.582  13.748 -0.0655  0.2241 -0.3974
17368TIP3    H273520   5.434   0.548  13.617  2.9279 -0.2218  1.1785
17369TIP3   OH273521   5.601   3.584   0.906 -0.2345  0.2414 -0.0898
17369TIP3    H173522   5.571   3.534   0.981  0.2583  0.1294  0.0339
17369TIP3    H273523   5.691   3.554   0.890 -0.0122  0.9145 -0.1549
17370TIP3   OH273524   6.520   5.720  11.456  0.0716 -0.8249 -0.2932
17370TIP3    H173525   6.448   5.657  11.445 -0.7519 -0.0925  0.6764
17370TIP3    H273526   6.560   5.726  11.369 -1.0203 -1.2739 -0.8532
17371TIP3   OH273527   6.674   3.114  12.681 -0.2978 -0.3120  0.6404
17371TIP3    H173528   6.671   3.128  12.776  1.5316 -3.4825  1.2911
17371TIP3    H273529   6.767   3.118  12.659 -0.6169 -0.5700 -0.8826
17372TIP3   OH273530   6.243   0.948  13.511 -0.1026 -0.2245  0.0318
17372TIP3    H173531   6.243   0.853  13.503  0.2443 -0.1756 -0.6468
17372TIP3    H273532   6.219   0.965  13.602 -1.0602 -0.9339 -0.0756
17373TIP3   OH273533   3.726   1.107   1.985 -0.1327  0.7845  0.1947
17373TIP3    H173534   3.654   1.150   1.939  0.1933  2.6557  1.3313
17373TIP3    H273535   3.716   1.014   1.964 -2.7018  1.0197  0.1002
17374TIP3   OH273536   5.495   6.386  15.217 -0.0077 -0.2734 -0.1210
17374TIP3    H173537   5.445   6.430  15.147 -1.6636 -0.7982  0.6774
17374TIP3    H273538   5.461   6.424  15.298  2.3026  0.7556  0.4507
17375TIP3   OH273539   1.261   0.496  17.016 -0.1501  1.0336  0.1432
17375TIP3    H173540   1.231   0.577  16.975 -0.1810  1.7222  1.5003
17375TIP3    H273541   1.271   0.435  16.942  3.0103  3.1465 -1.4318
17376TIP3   OH273542   0.593   6.288   5.043  0.0406  0.4156  0.1368
17376TIP3    H173543   0.522   6.225   5.055 -0.0851  0.5685  0.1951
17376TIP3    H273544   0.550   6.370   5.022  0.2177  0.4119 -0.2551
17377TIP3   OH273545   0.280   5.947   0.411  0.6160  0.1377 -0.1556
17377TIP3    H173546   0.274   5.852   0.408 -1.2626  0.2448 -1.3471
17377TIP3    H273547   0.364   5.967   0.369  1.2362 -0.9788  0.5107
17378TIP3   OH273548   3.474   5.452  11.422  0.3300 -0.3159 -0.0202
17378TIP3    H173549   3.502   5.361  11.432  1.8452  0.1631  0.3231
17378TIP3    H273550   3.378   5.448  11.427  0.4084 -1.4922  3.6801
17379TIP3   OH273551   2.724   0.618  15.169  0.9947  0.3251 -0.0219
17379TIP3    H173552   2.689   0.689  15.223  0.8213  2.4130 -2.6539
17379TIP3    H273553   2.664   0.545  15.184 -0.7342  1.7628  0.3821
17380TIP3   OH273554   2.632   3.117   5.815 -0.6444  0.2441  0.5748
17380TIP3    H173555   2.606   3.032   5.850 -0.2884 -0.2122 -0.2313
17380TIP3    H273556   2.727   3.118   5.821 -0.7009  1.0541  1.6007
17381TIP3   OH273557   1.387   0.668  14.657  0.3383  0.8428 -0.0460
17381TIP3    H173558   1.378   0.708  14.570  2.7312  1.7891  0.0608
17381TIP3    H273559   1.370   0.575  14.643 -0.5678  1.1617 -1.2614
17382TIP3   OH273560   6.505   0.063  16.508  0.4107 -0.3750 -0.1439
17382TIP3    H173561   6.452   0.115  16.568  0.8748  0.7414 -0.6797
17382TIP3    H273562   6.469  -0.025  16.515 -0.2565 -0.0374  0.9383
17383TIP3   OH273563   6.589   3.463  15.279  0.5478  0.0601  0.5678
17383TIP3    H173564   6.597   3.500  15.191  1.5393 -1.5854 -0.0850
17383TIP3    H273565   6.501   3.426  15.282  0.4668  0.2283  0.3071
17384TIP3   OH273566   6.308   4.104  16.319 -0.4440 -0.1437 -0.2174
17384TIP3    H173567   6.320   4.016  16.353  2.2536  0.3285  0.2808
17384TIP3    H273568   6.397   4.138  16.308 -1.3001  1.5484 -3.0332
17385TIP3   OH273569   0.974   1.253   0.464 -0.3998  0.4999 -0.1196
17385TIP3    H173570   0.909   1.221   0.526  1.1539  0.7825  1.7626
17385TIP3    H273571   1.057   1.249   0.512  0.8293  1.0900 -2.0762
17386TIP3   OH273572   0.399   5.472  15.090  0.1508 -0.1861  0.7671
17386TIP3    H173573   0.484   5.458  15.048 -0.5431  0.4833 -0.9646
17386TIP3    H273574   0.401   5.564  15.117 -0.5840  0.2817 -0.6993
17387TIP3   OH273575   2.185   1.549  14.221  0.2161  0.0024  0.1113
17387TIP3    H173576   2.094   1.573  14.202  0.7620  0.8012 -1.7827
17387TIP3    H273577   2.234   1.630  14.210  1.0646 -0.1996  2.0966
17388TIP3   OH273578   1.068   2.175   4.537 -0.2911  0.9838 -0.0852
17388TIP3    H173579   1.135   2.111   4.562  0.5826  2.4152  1.4606
17388TIP3    H273580   0.989   2.123   4.524  1.0727 -0.7774 -2.0377
17389TIP3   OH273581   4.584   0.468  11.968  0.8120  0.4980  0.1330
17389TIP3    H173582   4.578   0.555  12.008  1.6310  0.1478  1.0470
17389TIP3    H273583   4.571   0.407  12.041  0.8258 -0.1545 -0.3967
17390TIP3   OH273584   6.005   1.665  11.520  0.3963 -0.7082 -0.2289
17390TIP3    H173585   6.032   1.756  11.510  0.0370 -0.1469  2.8918
17390TIP3    H273586   5.927   1.657  11.464 -0.8668  1.5937  1.0630
17391TIP3   OH273587   6.746   5.501  14.889 -0.3412  0.3385  0.2312
17391TIP3    H173588   6.715   5.422  14.845  0.4325  0.1981 -0.0816
17391TIP3    H273589   6.830   5.475  14.927 -0.3415  0.8593  0.5888
17392TIP3   OH273590   6.096   5.293  16.512  0.1603  0.8583  0.3653
17392TIP3    H173591   6.126   5.377  16.477  0.5807  0.2245 -0.8376
17392TIP3    H273592   6.172   5.258  16.559  0.5948  0.3216 -0.7060
17393TIP3   OH273593   1.304   0.188   6.233  0.3648 -0.6602  0.3927
17393TIP3    H173594   1.312   0.155   6.323  0.2732 -0.3115  0.5332
17393TIP3    H273595   1.211   0.182   6.213  0.3719 -0.6516  0.3566
17394TIP3   OH273596   4.505   5.376  11.188 -0.2687  0.0908  0.3344
17394TIP3    H173597   4.411   5.395  11.178 -0.6939 -1.7551  0.5548
17394TIP3    H273598   4.531   5.427  11.265 -1.2179  0.1822  0.6072
17395TIP3   OH273599   1.416   4.611   1.527 -0.0327  0.2501  0.0564
17395TIP3    H173600   1.506   4.584   1.545  0.0379  0.2730 -0.2536
17395TIP3    H273601   1.415   4.629   1.433 -0.5983 -0.6663 -0.1281
17396TIP3   OH273602   5.159   1.947  11.400  0.5648  0.1745 -0.7289
17396TIP3    H173603   5.222   1.910  11.462  0.6940 -0.9489 -1.4859
17396TIP3    H273604   5.075   1.909  11.425  0.3386  0.9471 -0.2908
17397TIP3   OH273605   4.325   4.401  12.871 -0.5244 -0.0627  0.2003
17397TIP3    H173606   4.410   4.370  12.839 -0.5401 -1.0518  1.0780
17397TIP3    H273607   4.345   4.451  12.950 -0.8666 -1.6873  1.3567
17398TIP3   OH273608   5.798   0.546   2.454 -0.3762 -0.1085  0.4774
17398TIP3    H173609   5.838   0.514   2.373 -0.1609 -0.6276  0.7846
17398TIP3    H273610   5.706   0.519   2.448 -0.1462 -1.0195  0.8406
17399TIP3   OH273611   0.741   2.183  14.398 -0.2879 -0.0841  0.4129
17399TIP3    H173612   0.716   2.114  14.337  0.9608 -0.3490  0.1617
17399TIP3    H273613   0.718   2.149  14.485  1.0119 -1.1768  0.3626
17400TIP3   OH273614   6.015   5.192   0.778 -0.2411  0.0975  0.0955
17400TIP3    H173615   5.940   5.208   0.720 -0.2261  0.1805  0.0985
17400TIP3    H273616   5.994   5.110   0.823 -0.0595 -0.1977 -0.3420
17401TIP3   OH273617   3.782   5.292  12.884  0.1855 -0.4623 -0.4507
17401TIP3    H173618   3.839   5.344  12.827 -0.2724  1.1729  0.4972
17401TIP3    H273619   3.768   5.210  12.837  0.4268  0.5151 -2.3236
17402TIP3   OH273620   3.629   3.677  13.503 -0.1286 -0.1917 -0.0977
17402TIP3    H173621   3.712   3.630  13.503  0.3006  0.5452  0.0345
17402TIP3    H273622   3.641   3.747  13.438 -0.4538  0.2384  0.3021
17403TIP3   OH273623   2.366   2.587  13.662 -0.1983  0.4192  0.5905
17403TIP3    H173624   2.305   2.538  13.717  0.0529  1.1424  1.5468
17403TIP3    H273625   2.450   2.542  13.675 -0.6004 -0.9814 -1.2356
17404TIP3   OH273626   6.296   3.211   3.928  0.3907  0.2318 -0.2818
17404TIP3    H173627   6.251   3.141   3.881  0.3909  0.4194 -0.5599
17404TIP3    H273628   6.299   3.181   4.019  0.0801  0.0303 -0.3393
17405TIP3   OH273629   2.045   1.336  13.461  0.5099  0.8437  0.3957
17405TIP3    H173630   2.028   1.429  13.479 -0.3026  0.5734  1.0808
17405TIP3    H273631   2.053   1.296  13.547 -2.5480 -0.3227  0.2575
17406TIP3   OH273632   2.353   1.902  16.412 -0.3218 -0.5086  0.0317
17406TIP3    H173633   2.293   1.975  16.429  0.7620  0.1541  1.1755
17406TIP3    H273634   2.324   1.833  16.472 -0.6073 -0.6052 -0.2099
17407TIP3   OH273635   2.353   4.245  12.391  0.1475 -0.3466 -0.8833
17407TIP3    H173636   2.353   4.171  12.452  2.1757  1.2776  1.2943
17407TIP3    H273637   2.434   4.235  12.341  0.0079 -0.0280 -1.1786
17408TIP3   OH273638   0.276   5.034  15.254  0.3957  0.2277 -0.1084
17408TIP3    H173639   0.254   5.111  15.307 -0.1058  0.8480 -1.1887
17408TIP3    H273640   0.192   5.002  15.222  0.8039  1.0139 -2.0921
17409TIP3   OH273641   5.435   3.677  16.111  0.5635  0.1701 -0.0537
17409TIP3    H173642   5.357   3.621  16.119  1.2005 -0.8087 -0.4267
17409TIP3    H273643   5.415   3.753  16.165  0.3311 -1.1732  1.8853
17410TIP3   OH273644   4.228   6.286   2.628  0.0668  0.5525 -0.2724
17410TIP3    H173645   4.172   6.364   2.630  0.9083  1.2021 -0.9850
17410TIP3    H273646   4.168   6.214   2.609 -0.3574  1.4747 -2.9620
17411TIP3   OH273647   5.839   0.994  11.405 -0.0803 -0.1594 -0.5453
17411TIP3    H173648   5.761   0.981  11.351 -0.3999  0.1470 -0.1649
17411TIP3    H273649   5.912   0.990  11.343 -0.4767  0.7406 -1.0929
17412TIP3   OH273650   6.143   3.001  16.112 -0.6208 -0.3101  0.4562
17412TIP3    H173651   6.189   2.928  16.070  0.9923  0.9222 -0.0109
17412TIP3    H273652   6.078   2.959  16.167  0.3002 -2.1189  0.2516
17413TIP3   OH273653   3.749   5.607   5.824  0.0022  0.0293  0.6125
17413TIP3    H173654   3.770   5.648   5.908 -0.0144 -1.1722  1.2309
17413TIP3    H273655   3.656   5.583   5.832 -0.9400  2.7126 -0.9905
17414TIP3   OH273656   0.855   4.783   0.132 -0.0161  0.2199  0.3463
17414TIP3    H173657   0.927   4.745   0.182  0.6682  0.0276 -0.7447
17414TIP3    H273658   0.831   4.715   0.070 -0.6975  0.5329  0.2615
17415TIP3   OH273659   3.601   2.341  16.281  0.2527  0.4363 -0.2112
17415TIP3    H173660   3.578   2.434  16.279  1.4311  0.7828  1.0084
17415TIP3    H273661   3.559   2.308  16.361  0.9746  0.2478  0.0963
17416TIP3   OH273662   1.736   5.482  13.929  0.4243 -0.1505 -0.1839
17416TIP3    H173663   1.740   5.444  14.017  0.2979  0.7797  0.2366
17416TIP3    H273664   1.754   5.408  13.870 -1.0738 -1.1301  0.5258
17417TIP3   OH273665   3.125   0.045  14.019 -0.1117 -0.5135  0.7645
17417TIP3    H173666   3.188   0.078  13.955 -1.1497 -0.2823 -0.1684
17417TIP3    H273667   3.093   0.124  14.063 -1.9060 -0.2797 -0.8253
17418TIP3   OH273668   5.809   3.552  11.706  0.0284  0.3609  0.4042
17418TIP3    H173669   5.741   3.593  11.652 -1.1760  0.0788  1.6582
17418TIP3    H273670   5.869   3.623  11.728 -1.9946  1.5239  2.4995
17419TIP3   OH273671   2.699   1.950  15.548 -0.3277  0.0069  0.5647
17419TIP3    H173672   2.705   2.043  15.570  0.7397  0.3628 -1.0553
17419TIP3    H273673   2.621   1.920  15.594 -0.8064  1.7426  0.9868
17420TIP3   OH273674   0.343   1.706   3.259  0.0177 -0.4728  0.4187
17420TIP3    H173675   0.357   1.794   3.225 -2.6235 -0.0541  0.1929
17420TIP3    H273676   0.333   1.717   3.353 -0.2491 -0.5422  0.3988
17421TIP3   OH273677   0.753   1.563   3.778  0.3360  0.1572  0.7963
17421TIP3    H173678   0.707   1.571   3.862  1.1409 -0.8477  1.3537
17421TIP3    H273679   0.811   1.639   3.777 -0.4056  0.7381  0.6642
17422TIP3   OH273680   5.226   0.810   4.115 -0.1644 -0.1044  0.2370
17422TIP3    H173681   5.146   0.804   4.064 -0.5043 -0.9562  0.8472
17422TIP3    H273682   5.287   0.750   4.071  0.7437  1.7604 -1.2228
17423TIP3   OH273683   2.488   6.739  14.027 -0.1689 -0.0757 -0.4609
17423TIP3    H173684   2.407   6.787  14.039 -0.0399  0.2674 -0.9475
17423TIP3    H273685   2.464   6.647  14.043 -1.1259 -0.2453 -2.5921
17424TIP3   OH273686   3.398   3.955   0.112 -0.7228  1.1151  0.2143
17424TIP3    H173687   3.422   3.966   0.204 -0.3485  0.3194  0.2135
17424TIP3    H273688   3.382   3.861   0.102  0.0560  1.0687 -0.7222
17425TIP3   OH273689   3.751   4.397   4.617 -0.1222 -0.4972  0.2329
17425TIP3    H173690   3.753   4.408   4.712  0.0719  1.6010  0.0469
17425TIP3    H273691   3.714   4.480   4.585 -0.2726 -1.2047 -1.5175
17426TIP3   OH273692   1.559   0.951  12.346 -0.4486 -0.1020 -0.1260
17426TIP3    H173693   1.519   0.932  12.260 -0.9854  2.7127 -0.5992
17426TIP3    H273694   1.580   1.044  12.342 -0.4908  0.1164  2.8292
17427TIP3   OH273695   2.610   3.582   3.833 -0.4087 -0.3589 -0.0459
17427TIP3    H173696   2.689   3.532   3.812 -0.9256 -0.6664 -1.3451
17427TIP3    H273697   2.560   3.524   3.891 -0.0697 -0.4991  0.1112
17428TIP3   OH273698   2.585   4.638   6.521 -0.6827 -0.1776  0.1318
17428TIP3    H173699   2.660   4.698   6.526 -2.0793  1.8648 -1.4879
17428TIP3    H273700   2.621   4.557   6.485  0.6680  1.0071 -1.3345
17429TIP3   OH273701   0.028   4.174  15.475  0.3254  0.1586  0.5324
17429TIP3    H173702  -0.003   4.260  15.504 -0.1082  0.8176 -1.6937
17429TIP3    H273703   0.119   4.189  15.449  0.3247 -0.1161  0.3758
17430TIP3   OH273704   2.489   3.049   2.804  0.1907  0.2684  0.1321
17430TIP3    H173705   2.496   3.140   2.777 -1.6848  0.0466 -1.3359
17430TIP3    H273706   2.398   3.025   2.784  0.3271 -1.6234  1.4690
17431TIP3   OH273707   3.805   0.782   3.752  0.6378  0.4732 -0.5433
17431TIP3    H173708   3.840   0.697   3.778 -0.0236  0.5720  0.7077
17431TIP3    H273709   3.883   0.835   3.732  1.0686 -0.2679 -0.8766
17432TIP3   OH273710   2.200   3.430   5.151 -0.7039 -0.5095 -0.3992
17432TIP3    H173711   2.223   3.376   5.075  0.1174  0.5211 -0.9118
17432TIP3    H273712   2.208   3.370   5.225  0.6370 -0.9976 -0.9024
17433TIP3   OH273713   5.681   1.216   6.714  0.1384 -0.4691 -0.6509
17433TIP3    H173714   5.612   1.161   6.751 -1.3378 -1.6508 -4.6928
17433TIP3    H273715   5.762   1.170   6.735 -0.2363  0.2087  2.9554
17434TIP3   OH273716   4.146   0.993   1.292 -0.1653  0.3550 -0.1258
17434TIP3    H173717   4.197   1.066   1.258  0.4340 -0.3024 -0.6707
17434TIP3    H273718   4.204   0.918   1.286  0.2828  0.3043  3.1380
17435TIP3   OH273719   5.318   1.254   0.387 -0.3470  0.4831 -0.4908
17435TIP3    H173720   5.366   1.226   0.308 -2.9571 -0.5656 -1.8302
17435TIP3    H273721   5.327   1.349   0.387  1.4226  0.3515 -0.8584
17436TIP3   OH273722   0.839   3.902  10.590 -0.3515  0.1660  0.3208
17436TIP3    H173723   0.872   3.946  10.669 -0.0498 -0.6600  0.6600
17436TIP3    H273724   0.889   3.941  10.519  0.7982 -0.4919  0.7476
17437TIP3   OH273725   5.387   3.391  15.433 -0.4077  0.1435 -0.2030
17437TIP3    H173726   5.354   3.301  15.429 -1.2262  0.3855  0.8106
17437TIP3    H273727   5.311   3.446  15.416 -0.1575  0.6711  0.3438
17438TIP3   OH273728   2.661   0.627  12.608  0.3612 -0.3877 -0.6739
17438TIP3    H173729   2.679   0.652  12.517 -0.7576  0.2130 -0.7438
17438TIP3    H273730   2.646   0.532  12.604  1.4331 -0.5624 -0.9203
17439TIP3   OH273731   0.507   4.877   0.628 -0.2721 -0.4149  0.0437
17439TIP3    H173732   0.547   4.879   0.541  1.9334 -0.7468  0.9862
17439TIP3    H273733   0.530   4.961   0.668 -1.3977 -0.1993  0.2776
17440TIP3   OH273734   2.015   5.072  11.118 -0.3158 -0.0472  0.8883
17440TIP3    H173735   1.944   5.134  11.133  2.8865  3.6968  2.1938
17440TIP3    H273736   2.025   5.027  11.201 -3.8335 -4.1925 -0.5387
17441TIP3   OH273737   0.437   2.418  15.086  0.9849 -0.2236 -0.3599
17441TIP3    H173738   0.366   2.482  15.080 -0.9080 -1.9224  1.8353
17441TIP3    H273739   0.503   2.459  15.141 -0.0655  0.0352  0.7625
17442TIP3   OH273740   6.791   4.043   0.612 -0.4750  1.2198 -0.3048
17442TIP3    H173741   6.874   4.068   0.572  0.6634 -1.3300  0.2380
17442TIP3    H273742   6.748   3.989   0.545 -1.2404  1.7020 -0.2078
17443TIP3   OH273743   2.006   6.029   1.691 -0.3248  0.0034  0.0984
17443TIP3    H173744   2.015   5.955   1.631 -0.5662 -0.6634  0.8506
17443TIP3    H273745   2.079   6.087   1.670  0.3501 -0.8486  0.0271
17444TIP3   OH273746   2.829   0.398   0.614 -0.0364 -0.2794 -0.0008
17444TIP3    H173747   2.923   0.398   0.634 -0.5798 -1.6084  3.0804
17444TIP3    H273748   2.804   0.491   0.621  0.7281 -0.1277  1.1366
17445TIP3   OH273749   2.626   3.120  12.616  0.2685 -0.3532  0.4270
17445TIP3    H173750   2.677   3.152  12.542  0.2081  1.2557  1.0313
17445TIP3    H273751   2.596   3.033  12.590  0.0524  0.2701 -1.5303
17446TIP3   OH273752   3.234   2.066  16.709 -0.1504 -0.2452  0.6342
17446TIP3    H173753   3.215   2.154  16.741  0.1867 -0.2633  0.8912
17446TIP3    H273754   3.295   2.079  16.637 -2.6106 -0.0395 -1.5452
17447TIP3   OH273755   5.965   5.668  16.817  0.2642  0.2084  0.3324
17447TIP3    H173756   6.044   5.636  16.860 -0.3792  0.7495  1.9760
17447TIP3    H273757   5.994   5.695  16.730  1.5667 -1.0860  0.3321
17448TIP3   OH273758   5.008   4.254   4.751  0.6366  0.2636 -0.2392
17448TIP3    H173759   4.998   4.161   4.732 -1.9872  0.0926  1.4986
17448TIP3    H273760   4.933   4.296   4.709  1.5372  1.5563 -0.6253
17449TIP3   OH273761   2.982   4.390  15.470  0.3263 -0.4092 -0.0057
17449TIP3    H173762   2.912   4.442  15.511  0.1947 -0.6362  0.0557
17449TIP3    H273763   2.988   4.426  15.381 -0.2113 -0.7165 -0.1734
17450TIP3   OH273764   6.540   1.326  11.191 -0.3572  0.1798  0.1652
17450TIP3    H173765   6.500   1.271  11.125 -0.0913 -0.5727  0.6186
17450TIP3    H273766   6.519   1.284  11.274 -0.8285  1.1992  0.5840
17451TIP3   OH273767   2.541   2.024  16.218  0.0345  0.4209 -0.2540
17451TIP3    H173768   2.614   1.964  16.235  0.1182  0.5672 -0.0998
17451TIP3    H273769   2.471   1.994  16.276 -0.4860 -0.5382 -1.3360
17452TIP3   OH273770   5.918   4.593   2.656  0.6982  0.6553  0.3132
17452TIP3    H173771   5.865   4.555   2.727  0.0689  0.2306 -0.3718
17452TIP3    H273772   5.933   4.521   2.596  0.9082  1.1044 -0.1807
17453TIP3   OH273773   6.120   4.608  11.659  0.2543 -0.0492  0.2402
17453TIP3    H173774   6.156   4.527  11.695 -0.2301 -0.1035  0.6227
17453TIP3    H273775   6.032   4.614  11.697 -0.0164  0.2446 -0.4161
17454TIP3   OH273776   0.627   1.476  12.359 -0.8581 -0.1349 -0.0285
17454TIP3    H173777   0.593   1.386  12.358  2.9928 -1.7679 -1.4452
17454TIP3    H273778   0.629   1.499  12.452 -1.7672 -1.5511  0.3827
17455TIP3   OH273779   4.017   3.844  11.709  0.4488  0.0438 -0.2244
17455TIP3    H173780   4.022   3.879  11.798 -1.2572 -1.0969  0.3758
17455TIP3    H273781   4.008   3.920  11.653  0.8571  0.7446  0.6350
17456TIP3   OH273782   4.181   6.795  16.071  0.0236 -0.6179 -0.1981
17456TIP3    H173783   4.092   6.831  16.065  0.3260  0.6218  1.7578
17456TIP3    H273784   4.180   6.742  16.151  0.4662 -2.5135 -1.3825
17457TIP3   OH273785   2.682   1.286  12.792 -0.0967 -0.1796  0.3236
17457TIP3    H173786   2.625   1.299  12.868 -1.4032  0.2820 -0.6844
17457TIP3    H273787   2.622   1.288  12.717  0.9482 -2.1862 -0.6379
17458TIP3   OH273788   6.439   2.204   2.549  0.0796 -0.2757  0.2288
17458TIP3    H173789   6.403   2.290   2.571 -0.9515 -1.1281  2.0899
17458TIP3    H273790   6.422   2.150   2.626 -0.5481 -2.5519 -1.3872
17459TIP3   OH273791   4.928   4.930  13.483 -0.0811  0.2688  0.0389
17459TIP3    H173792   4.978   4.849  13.497  0.8513  1.0968  1.8366
17459TIP3    H273793   4.839   4.908  13.511 -0.2185 -0.5669 -1.0042
17460TIP3   OH273794   0.946   1.441  12.260 -0.2147 -0.3885  0.4887
17460TIP3    H173795   1.020   1.478  12.211 -0.4250 -0.7361 -0.1017
17460TIP3    H273796   0.878   1.508  12.255 -0.9995 -1.2435 -1.5323
17461TIP3   OH273797   6.672   6.511  14.627 -0.5015  0.0932 -0.0606
17461TIP3    H173798   6.664   6.599  14.665  2.0719  0.7184 -0.7436
17461TIP3    H273799   6.665   6.452  14.702  2.6555  1.1929  1.2994
17462TIP3   OH273800   4.382   1.437   0.147 -0.6320  0.0859 -0.1380
17462TIP3    H173801   4.340   1.512   0.104 -0.5203 -0.0022 -0.4014
17462TIP3    H273802   4.312   1.373   0.156 -0.8632  0.4279  0.5862
17463TIP3   OH273803   4.721   0.116  13.403 -0.9155  0.5020  0.2144
17463TIP3    H173804   4.664   0.133  13.478 -0.7867 -1.2298  0.7524
17463TIP3    H273805   4.791   0.060  13.438  0.7745  2.0368 -0.5690
17464TIP3   OH273806   2.694   5.165   0.405 -0.0227  0.1827 -0.1230
17464TIP3    H173807   2.661   5.172   0.315  1.0589  1.3217 -0.4687
17464TIP3    H273808   2.676   5.075   0.430 -0.8513 -0.0019 -1.2761
17465TIP3   OH273809   1.652   0.138  15.610  0.4511  0.2470 -0.1969
17465TIP3    H173810   1.605   0.083  15.673  2.8604 -3.8993 -1.6216
17465TIP3    H273811   1.587   0.158  15.542 -0.1774 -2.6298 -0.5683
17466TIP3   OH273812   3.756   5.755   3.770 -0.1920 -0.0075  0.5070
17466TIP3    H173813   3.700   5.700   3.825 -1.1616 -0.3871 -0.7793
17466TIP3    H273814   3.701   5.774   3.694  0.7607  1.2883  0.1179
17467TIP3   OH273815   0.651   3.536   2.395  0.2027  0.5252  0.1048
17467TIP3    H173816   0.624   3.607   2.453 -0.4045 -0.0791  0.5902
17467TIP3    H273817   0.617   3.457   2.438  0.7357 -0.0391 -0.4968
17468TIP3   OH273818   1.401   5.388  12.475 -0.4255 -0.6874 -0.7190
17468TIP3    H173819   1.329   5.359  12.531  0.8092 -0.2376  1.1789
17468TIP3    H273820   1.477   5.338  12.504  0.9785  1.8474  0.3173
17469TIP3   OH273821   3.765   5.111   0.285  0.1068  0.4655  0.2522
17469TIP3    H173822   3.765   5.042   0.218  0.5018  0.3968  0.3189
17469TIP3    H273823   3.807   5.071   0.360  0.9566  0.9936  0.0661
17470TIP3   OH273824   3.363   2.903   6.431  0.0421 -0.3865 -0.3505
17470TIP3    H173825   3.420   2.910   6.355 -1.4695  0.1716 -1.4976
17470TIP3    H273826   3.415   2.936   6.504  1.0040  0.5680 -1.4360
17471TIP3   OH273827   3.435   2.551  11.197 -0.2902  0.2407 -0.0943
17471TIP3    H173828   3.465   2.539  11.107  0.7091  2.3278 -0.1127
17471TIP3    H273829   3.348   2.590  11.188 -0.8795 -1.0518 -0.1148
17472TIP3   OH273830   5.936   2.637  16.020  0.2345  0.3135 -0.1787
17472TIP3    H173831   5.996   2.705  16.049  0.2711  1.2603 -2.2742
17472TIP3    H273832   5.991   2.559  16.011  0.6214  0.5267  0.3376
17473TIP3   OH273833   6.727   3.434   6.092 -0.1249 -0.1677 -0.8793
17473TIP3    H173834   6.722   3.479   6.176  1.3334 -0.2593 -0.7191
17473TIP3    H273835   6.731   3.504   6.027  0.8024 -0.0774 -0.7250
17474TIP3   OH273836   0.462   0.846  13.676  0.1292  0.0969 -0.0054
17474TIP3    H173837   0.449   0.752  13.693 -0.0353  0.1763  0.3178
17474TIP3    H273838   0.389   0.870  13.619  0.7034 -0.1788 -0.8795
17475TIP3   OH273839   2.914   6.458   4.452 -0.6866 -0.1342  0.3506
17475TIP3    H173840   2.972   6.412   4.513  1.9848  1.7020 -0.5990
17475TIP3    H273841   2.934   6.418   4.367  1.3538  2.2548 -0.4145
17476TIP3   OH273842   3.176   3.486  11.192 -0.2035  0.1971 -0.1336
17476TIP3    H173843   3.107   3.551  11.185 -0.7870 -0.5920 -2.7722
17476TIP3    H273844   3.209   3.476  11.103  1.7480 -1.1336  0.6731
17477TIP3   OH273845   0.447   6.372  16.833  0.1686  0.2173  0.4275
17477TIP3    H173846   0.421   6.344  16.745  2.0360  3.7241 -1.4635
17477TIP3    H273847   0.518   6.312  16.857 -1.2533 -1.6350  0.2385
17478TIP3   OH273848   3.111   2.433   0.933  0.0749  0.1075 -0.0116
17478TIP3    H173849   3.098   2.396   0.846 -1.7296  0.9446 -0.1432
17478TIP3    H273850   3.190   2.487   0.924 -1.1773  1.8032 -1.7389
17479TIP3   OH273851   3.044   4.392   2.445  0.7791  0.0170  0.6425
17479TIP3    H173852   3.059   4.485   2.426  1.4637 -0.3502 -0.7269
17479TIP3    H273853   2.949   4.385   2.454  0.6376  0.7003 -0.1437
17480TIP3   OH273854   4.605   0.846   5.585  0.0466  0.2023 -0.0811
17480TIP3    H173855   4.647   0.919   5.631 -1.0439  0.6468  0.2278
17480TIP3    H273856   4.512   0.855   5.604 -0.1739 -0.9542 -0.4975
17481TIP3   OH273857   4.365   4.651   4.502 -0.5419 -0.2309 -0.3312
17481TIP3    H173858   4.293   4.637   4.564 -0.8254  0.4570 -0.4944
17481TIP3    H273859   4.323   4.652   4.416 -0.1403 -1.2413 -0.5521
17482TIP3   OH273860   5.839   1.028   5.510  1.0203  0.0319  0.0131
17482TIP3    H173861   5.789   1.053   5.587  0.7061 -0.0884 -0.1499
17482TIP3    H273862   5.903   1.099   5.499 -0.6578  1.4651 -1.1547
17483TIP3   OH273863   0.023   5.459  16.658 -0.1330  0.3713  0.1590
17483TIP3    H173864  -0.070   5.436  16.664 -0.2017  0.2452 -1.1518
17483TIP3    H273865   0.025   5.535  16.600  0.6896 -0.4867 -0.9681
17484TIP3   OH273866   0.532   3.169  11.912  0.3573 -0.4184 -0.0943
17484TIP3    H173867   0.534   3.264  11.907  0.7703 -0.5018 -2.8259
17484TIP3    H273868   0.590   3.147  11.985  1.2717  1.3553 -0.2476
17485TIP3   OH273869   5.914   2.642   0.731 -0.0508 -0.2285 -0.2539
17485TIP3    H173870   5.911   2.548   0.746 -1.1501 -0.4036 -1.3745
17485TIP3    H273871   5.955   2.652   0.645 -1.4524  0.1955 -0.8955
17486TIP3   OH273872   6.530   4.956   1.800 -0.6379  0.5968 -0.3646
17486TIP3    H173873   6.569   4.992   1.880  0.9823 -0.1970 -0.7371
17486TIP3    H273874   6.517   4.863   1.820  0.9659  0.1082 -1.3865
17487TIP3   OH273875   4.524   6.061   2.175 -0.4664  0.0210 -0.6217
17487TIP3    H173876   4.552   6.151   2.194 -2.0734  0.9191 -2.1450
17487TIP3    H273877   4.570   6.007   2.240 -0.8931  2.1294  1.5793
17488TIP3   OH273878   1.087   6.702  16.529  0.4319 -0.8994 -0.2556
17488TIP3    H173879   1.064   6.675  16.440  0.1446 -1.4244 -0.0257
17488TIP3    H273880   1.045   6.637  16.586 -1.5571  0.8164  0.4049
17489TIP3   OH273881   5.392   5.978  16.807 -0.7087  0.0739 -0.5473
17489TIP3    H173882   5.385   6.049  16.871 -1.0249 -1.0753  0.7388
17489TIP3    H273883   5.481   5.985  16.773 -0.8579  1.3150 -0.7400
17490TIP3   OH273884   5.890   5.432   1.768 -0.8051  0.0091 -0.3207
17490TIP3    H173885   5.944   5.470   1.698 -1.8401  1.2154 -0.4847
17490TIP3    H273886   5.878   5.503   1.831 -0.8168 -0.7457  0.5415
17491TIP3   OH273887   6.718   6.700   3.466  0.0363  0.5714  0.1281
17491TIP3    H173888   6.747   6.729   3.553  1.0233  1.7729 -0.5644
17491TIP3    H273889   6.647   6.760   3.443 -0.8150 -0.2920  0.4444
17492TIP3   OH273890   3.297   5.044   3.885  0.9471  0.3408  0.4964
17492TIP3    H173891   3.295   4.948   3.877  0.5959  0.3761  0.1140
17492TIP3    H273892   3.216   5.067   3.930  0.4988  0.5313 -0.3715
17493TIP3   OH273893   3.851   0.061   0.604 -0.0281  0.0104  0.3058
17493TIP3    H173894   3.813  -0.027   0.601 -1.5794  0.6662 -1.5386
17493TIP3    H273895   3.932   0.051   0.654  0.1563 -2.5796 -0.3817
17494TIP3   OH273896   5.382   4.553  15.221 -0.2211  0.3434  0.2642
17494TIP3    H173897   5.340   4.527  15.303 -0.6648  1.0194  0.2524
17494TIP3    H273898   5.367   4.479  15.162  0.0558 -0.1226  0.7688
17495TIP3   OH273899   4.827   2.134  11.553  0.5409  0.4548  0.9575
17495TIP3    H173900   4.844   2.220  11.515 -0.9798  0.4126  0.1081
17495TIP3    H273901   4.796   2.080  11.480 -1.6295  0.1264  2.0249
17496TIP3   OH273902   2.095   3.885  15.941 -0.1930  0.0269 -0.2314
17496TIP3    H173903   2.000   3.896  15.948 -0.0954  1.2946 -0.6635
17496TIP3    H273904   2.129   3.906  16.028 -0.2495  0.2456 -0.2632
17497TIP3   OH273905   1.318   3.048  15.965 -0.4088  0.2532  0.2724
17497TIP3    H173906   1.389   2.989  15.989 -0.2488 -0.5059 -1.8394
17497TIP3    H273907   1.358   3.135  15.963  0.3117 -0.0857 -0.2975
17498TIP3   OH273908   2.671   4.542  12.287  0.5842 -0.2683  0.1542
17498TIP3    H173909   2.703   4.524  12.375  0.1430  0.3142  0.4460
17498TIP3    H273910   2.577   4.556  12.298  0.0666 -2.6053 -0.7866
17499TIP3   OH273911   0.760   3.383  15.297  0.3221 -0.1428  0.4341
17499TIP3    H173912   0.771   3.477  15.287 -2.1672  0.5846  3.1177
17499TIP3    H273913   0.825   3.357  15.362  1.2547 -0.4172 -0.5714
17500TIP3   OH273914   2.219   0.483  16.695  0.4708  0.0088 -0.2108
17500TIP3    H173915   2.151   0.540  16.731  1.9675  1.1041  1.0108
17500TIP3    H273916   2.181   0.395  16.700 -1.1553  0.6672 -0.3441
17501TIP3   OH273917   3.977   3.921   4.533 -0.3244 -0.1607  0.1550
17501TIP3    H173918   3.961   3.945   4.442 -2.7351  1.4007  0.8947
17501TIP3    H273919   3.891   3.896   4.567  0.4664 -0.4283  2.0989
17502TIP3   OH273920   2.139   2.482  11.981  0.2245  0.5506 -0.7166
17502TIP3    H173921   2.101   2.570  11.981 -1.0932  0.0090 -0.4043
17502TIP3    H273922   2.160   2.466  11.889 -2.0135  0.2007 -1.2210
17503TIP3   OH273923   4.330   5.323   0.868 -0.4855  0.1646  0.6976
17503TIP3    H173924   4.375   5.308   0.785 -2.2002  1.2193 -0.5048
17503TIP3    H273925   4.239   5.296   0.850 -1.3670  2.3864  1.5284
17504TIP3   OH273926   4.565   2.835  15.003  0.0162 -0.4852  0.6123
17504TIP3    H173927   4.629   2.765  15.006  2.0705  1.3259  2.4629
17504TIP3    H273928   4.487   2.799  15.047  1.0529 -1.5768  1.6165
17505TIP3   OH273929   0.654   3.110  12.921 -0.3046  0.5226 -0.7052
17505TIP3    H173930   0.594   3.138  12.852 -1.3751  1.4302  0.5272
17505TIP3    H273931   0.598   3.062  12.982  0.5397  0.0668 -0.2846
17506TIP3   OH273932   0.533   0.901  13.284  0.4111  0.2342  0.1911
17506TIP3    H173933   0.494   0.830  13.335  1.6372 -2.3115 -2.1832
17506TIP3    H273934   0.483   0.903  13.203  1.2256  1.2335 -0.3198
17507TIP3   OH273935   4.131   0.595  16.709 -0.1873 -0.1034  0.4692
17507TIP3    H173936   4.146   0.657  16.637  0.3281 -1.8706 -1.0125
17507TIP3    H273937   4.064   0.535  16.676 -1.2909  0.0900  2.1916
17508TIP3   OH273938   5.648   4.634   0.592  0.3906  0.3356  0.0814
17508TIP3    H173939   5.680   4.635   0.682  0.8914 -0.5113 -0.0810
17508TIP3    H273940   5.567   4.685   0.595  0.8271  1.0026  0.8457
17509TIP3   OH273941   3.394   6.457   5.247  0.4033 -0.2890 -0.2475
17509TIP3    H173942   3.411   6.479   5.156  0.4863 -0.3885 -0.2558
17509TIP3    H273943   3.377   6.541   5.289 -1.1763 -0.3489 -0.6728
17510TIP3   OH273944   2.104   1.345   0.315  0.3984  0.0627  0.5649
17510TIP3    H173945   2.049   1.286   0.366  0.5350 -1.7130 -1.2515
17510TIP3    H273946   2.193   1.323   0.341  0.5402 -1.7125 -1.2210
17511TIP3   OH273947   4.022   2.626  13.184 -0.7298  0.0384  0.6456
17511TIP3    H173948   3.972   2.545  13.195  0.2873 -0.7297 -0.2526
17511TIP3    H273949   4.000   2.656  13.096 -0.1476  0.0725  0.5115
17512TIP3   OH273950   2.788   6.461  15.516  0.3401  0.2726 -0.4426
17512TIP3    H173951   2.711   6.406  15.528  0.2142  0.7041  0.8298
17512TIP3    H273952   2.837   6.453  15.598  1.2630  0.6093 -0.9389
17513TIP3   OH273953   4.384   4.933  13.411  0.3282  0.1040 -0.4778
17513TIP3    H173954   4.454   4.998  13.420  0.0714  0.2777  0.4405
17513TIP3    H273955   4.322   4.956  13.480 -0.4516 -0.2783 -1.0375
17514TIP3   OH273956   5.524   0.480   6.561  0.3568 -0.2419  0.1750
17514TIP3    H173957   5.519   0.384   6.554 -1.2253 -0.2891  1.4305
17514TIP3    H273958   5.457   0.512   6.500  2.6874  0.2695 -2.3719
17515TIP3   OH273959   4.539   2.381  16.633 -0.2019  0.2860 -0.4476
17515TIP3    H173960   4.524   2.443  16.704 -1.5994 -0.7340  0.1886
17515TIP3    H273961   4.514   2.428  16.553 -1.7256  0.4131  0.0748
17516TIP3   OH273962   5.838   1.370   6.005 -0.4109 -0.0385 -0.1651
17516TIP3    H173963   5.790   1.309   6.060 -0.1362 -1.2317 -1.2115
17516TIP3    H273964   5.930   1.346   6.017 -0.1556  1.1640  0.5573
17517TIP3   OH273965   6.374   1.821  12.487  0.7406  0.5875 -0.1203
17517TIP3    H173966   6.319   1.745  12.508 -0.9789  1.8089  0.0570
17517TIP3    H273967   6.452   1.784  12.446 -0.6846 -1.2100 -1.3874
17518TIP3   OH273968   3.290   0.105  10.865 -0.0856 -0.5138  0.9703
17518TIP3    H173969   3.373   0.153  10.854 -0.2893 -0.4772 -0.5841
17518TIP3    H273970   3.274   0.065  10.780 -0.9683 -1.6889  1.6641
17519TIP3   OH273971   3.486   4.115  12.218 -0.1411 -0.7130 -0.4211
17519TIP3    H173972   3.517   4.066  12.294  0.4467  0.1490 -0.1030
17519TIP3    H273973   3.483   4.206  12.246  0.2681 -0.3499 -1.4788
17520TIP3   OH273974   0.847   5.384   0.721  0.1065 -0.1017  0.0587
17520TIP3    H173975   0.756   5.411   0.729 -0.2665 -1.6382  1.6481
17520TIP3    H273976   0.895   5.445   0.777 -0.2791 -0.6917  1.0526
17521TIP3   OH273977   3.136   4.200   1.532  0.6391  0.7201  0.3552
17521TIP3    H173978   3.132   4.251   1.613  1.5645  1.8474 -0.2654
17521TIP3    H273979   3.224   4.163   1.531  0.6326  0.7107 -0.1308
17522TIP3   OH273980   4.560   6.080   1.890 -0.0329 -0.1656  0.2130
17522TIP3    H173981   4.535   6.086   1.982  1.3962 -1.8009  0.7848
17522TIP3    H273982   4.656   6.082   1.891  0.0656 -1.7358 -1.0468
17523TIP3   OH273983   6.707   4.255  12.394 -0.1698  0.4065  0.2744
17523TIP3    H173984   6.683   4.346  12.412 -1.3205 -0.0213  0.9802
17523TIP3    H273985   6.649   4.203  12.449  0.6451 -0.7628  0.0755
17524TIP3   OH273986   5.761   3.708   0.047  0.2308 -0.5256 -0.3310
17524TIP3    H173987   5.736   3.793   0.012  0.2520 -1.3997 -2.7048
17524TIP3    H273988   5.723   3.706   0.135 -0.1883  1.7065 -0.4007
17525TIP3   OH273989   6.721   5.511  12.079  0.2013 -0.5317  0.1322
17525TIP3    H173990   6.768   5.450  12.137 -0.9975  0.1221  1.8694
17525TIP3    H273991   6.679   5.455  12.014 -0.3366 -1.5170  1.3044
17526TIP3   OH273992   2.930   3.011   5.140 -0.2196  0.8267 -0.3572
17526TIP3    H173993   2.939   3.015   5.045  3.3616  1.5245 -0.1568
17526TIP3    H273994   2.994   2.945   5.167 -2.4773 -0.7442  1.5395
17527TIP3   OH273995   2.277   3.813  13.563 -0.7825  0.0352  0.3820
17527TIP3    H173996   2.259   3.889  13.508 -2.4767 -1.1928 -0.8921
17527TIP3    H273997   2.372   3.809  13.569 -0.4988  0.2397 -2.5178
17528TIP3   OH273998   1.040   5.982  14.649 -0.0006 -0.6013  0.1715
17528TIP3    H173999   1.018   6.066  14.608 -0.5427 -1.0776 -0.5466
17528TIP3    H274000   0.961   5.960  14.700  0.8857  0.2798  2.0251
17529TIP3   OH274001   0.443   2.151   2.993  0.4433  0.1407  0.3370
17529TIP3    H174002   0.366   2.197   2.957  0.3394 -0.1597  0.1734
17529TIP3    H274003   0.517   2.191   2.948  0.4242  0.8049  0.8864
17530TIP3   OH274004   1.010   0.292  12.887  0.6353 -0.0389  0.0584
17530TIP3    H174005   0.938   0.317  12.944  0.6638  1.5087 -0.5192
17530TIP3    H274006   1.088   0.326  12.931  1.0052 -1.4122  0.5176
17531TIP3   OH274007   1.411   2.466  13.812  0.0369 -0.1182  0.6983
17531TIP3    H174008   1.379   2.409  13.882 -0.6920  2.7447  2.8923
17531TIP3    H274009   1.331   2.498  13.770  0.4542 -1.1269 -0.9804
17532TIP3   OH274010   0.733   6.661   3.930 -0.7505  0.0665  0.1058
17532TIP3    H174011   0.777   6.656   4.015 -0.8317 -1.1710  0.0997
17532TIP3    H274012   0.754   6.748   3.897  0.0030  0.2461  1.0117
17533TIP3   OH274013   0.916   1.927   1.606 -0.4837  0.3023  0.0444
17533TIP3    H174014   0.907   1.992   1.676  0.2706 -0.9047  1.3269
17533TIP3    H274015   0.998   1.882   1.627 -0.5969 -0.5344 -1.2543
17534TIP3   OH274016   1.630   6.268  15.464  0.1980 -0.0019  0.2843
17534TIP3    H174017   1.633   6.319  15.383 -0.8856 -0.1173  0.1551
17534TIP3    H274018   1.721   6.253  15.486  0.5377  1.6501  0.1161
17535TIP3   OH274019   0.434   3.080  13.071 -0.1524  0.2417  0.0839
17535TIP3    H174020   0.345   3.056  13.045 -0.1608  0.3141  0.0450
17535TIP3    H274021   0.456   3.019  13.141 -0.7558  1.0822  1.0422
17536TIP3   OH274022   5.267   2.791  14.128  0.4117 -0.1931 -0.3975
17536TIP3    H174023   5.353   2.773  14.088  1.0511  0.5034  0.6146
17536TIP3    H274024   5.210   2.722  14.093  1.5329 -1.0475 -0.6165
17537TIP3   OH274025   1.583   0.662  12.054 -0.6373  0.0519 -0.4208
17537TIP3    H174026   1.661   0.667  12.109 -0.2257 -1.8616 -0.7531
17537TIP3    H274027   1.531   0.738  12.079  0.7380  0.6635  0.7267
17538TIP3   OH274028   4.476   3.775   2.976 -0.3872  0.2616  0.0715
17538TIP3    H174029   4.474   3.783   3.071 -1.5292  0.7919  0.0150
17538TIP3    H274030   4.569   3.768   2.955 -0.1466 -0.2594  1.2493
17539TIP3   OH274031   5.268   2.211   5.911 -0.1276 -0.3540  0.3530
17539TIP3    H174032   5.223   2.256   5.983  0.8788  0.0478  0.7621
17539TIP3    H274033   5.308   2.135   5.952  1.4236  0.4937  0.5005
17540TIP3   OH274034   1.143   6.549   5.371  0.2841  0.0360  0.1092
17540TIP3    H174035   1.209   6.485   5.344  1.1510  0.1582  1.7954
17540TIP3    H274036   1.072   6.496   5.406  1.6413 -0.0948  2.9436
17541TIP3   OH274037   2.030   5.587   2.681 -0.4140 -0.8366  0.3398
17541TIP3    H174038   1.942   5.604   2.714 -0.1105  2.4323 -0.1483
17541TIP3    H274039   2.084   5.656   2.720  1.6939 -2.0220 -0.3176
17542TIP3   OH274040   4.946   3.232   1.109 -0.5984  0.7027  0.1047
17542TIP3    H174041   4.877   3.262   1.050 -0.7247  0.9898  0.3925
17542TIP3    H274042   4.914   3.148   1.143 -0.3403  0.3393 -0.5435
17543TIP3   OH274043   6.379   4.056   5.595 -0.0569 -0.0054 -0.1729
17543TIP3    H174044   6.419   3.979   5.635  0.1758 -1.4289 -2.9050
17543TIP3    H274045   6.290   4.029   5.575 -0.7315  1.2861  0.9187
17544TIP3   OH274046   2.118   4.032  15.180  0.2481  0.4520 -0.0898
17544TIP3    H174047   2.202   3.991  15.201 -0.3996 -1.1096 -0.3838
17544TIP3    H274048   2.054   3.981  15.229 -0.5614  1.4791 -0.0534
17545TIP3   OH274049   0.350   0.221   4.308 -0.3411  0.3988  0.2429
17545TIP3    H174050   0.321   0.133   4.283  0.1604  0.5601 -0.9472
17545TIP3    H274051   0.444   0.213   4.320  0.0163  1.1593 -1.7421
17546TIP3   OH274052   0.578   1.659   5.344 -0.3588  0.4010 -0.0095
17546TIP3    H174053   0.623   1.611   5.414  1.0467  2.0982  0.3118
17546TIP3    H274054   0.638   1.654   5.270 -0.6754  0.7756 -0.2892
17547TIP3   OH274055   1.325   5.303  12.095 -0.2393  0.0977 -0.3242
17547TIP3    H174056   1.321   5.365  12.167 -3.2779  1.7107 -1.6824
17547TIP3    H274057   1.411   5.317  12.055 -0.3837  2.6536  0.1280
17548TIP3   OH274058   0.716   3.688   1.563  0.5196 -0.6548  0.6071
17548TIP3    H174059   0.738   3.702   1.471  1.6804 -1.3221  0.7669
17548TIP3    H274060   0.620   3.694   1.566  0.4447 -0.9329 -0.6991
17549TIP3   OH274061   6.065   4.163   2.914 -0.2517  0.2057  0.0004
17549TIP3    H174062   6.155   4.139   2.934 -0.3319 -0.2070 -0.1063
17549TIP3    H274063   6.072   4.228   2.844  0.0573  2.3546  1.9327
17550TIP3   OH274064   4.322   5.736  16.290  0.1646 -0.0377 -0.3790
17550TIP3    H174065   4.339   5.656  16.339  0.6937  0.3398  0.0728
17550TIP3    H274066   4.409   5.765  16.260  0.1229  0.9426  0.3926
17551TIP3   OH274067   1.937   6.702   0.508 -0.0930 -0.6249  0.0941
17551TIP3    H174068   2.023   6.690   0.468  0.8704  1.9194  1.1593
17551TIP3    H274069   1.936   6.640   0.581  1.1725 -0.1811  0.5152
17552TIP3   OH274070   5.263   6.507  13.733  0.4449  0.2860  0.0515
17552TIP3    H174071   5.354   6.523  13.756  1.7454 -0.7776 -3.6810
17552TIP3    H274072   5.246   6.564  13.658 -1.4454 -0.6640 -0.3195
17553TIP3   OH274073   0.313   1.073   2.034 -0.0759  0.3414  0.3284
17553TIP3    H174074   0.359   1.130   1.973 -0.2125 -1.0216 -1.1420
17553TIP3    H274075   0.382   1.033   2.086  0.0337  1.6274  1.2106
17554TIP3   OH274076   2.219   3.697   4.766 -0.5208  0.1871 -0.2766
17554TIP3    H174077   2.260   3.617   4.735 -1.6792 -0.1737 -0.9403
17554TIP3    H274078   2.280   3.732   4.831  2.1161  1.0395 -2.9533
17555TIP3   OH274079   4.717   6.101  11.286  0.1035 -0.2013  0.3107
17555TIP3    H174080   4.713   6.055  11.370  0.2737  0.4049  0.6553
17555TIP3    H274081   4.635   6.076  11.241  1.0354 -2.3590 -0.3291
17556TIP3   OH274082   3.457   6.261  14.394  0.2949 -0.4280 -0.0793
17556TIP3    H174083   3.478   6.202  14.322  1.1705  1.2547 -1.2710
17556TIP3    H274084   3.432   6.203  14.466 -1.3411 -2.1386 -1.9224
17557TIP3   OH274085   6.764   0.219  13.518  0.6343 -0.3856  0.1382
17557TIP3    H174086   6.803   0.189  13.436 -0.8794  1.0319 -1.1844
17557TIP3    H274087   6.825   0.283  13.553  0.7854 -0.1841 -0.4830
17558TIP3   OH274088   1.104   4.460  13.410 -0.2181  0.2471  0.2916
17558TIP3    H174089   1.177   4.398  13.414  0.6259  1.2520  1.0727
17558TIP3    H274090   1.026   4.406  13.426  0.0383 -1.2357 -2.8609
17559TIP3   OH274091   2.994   0.871   1.763  0.2309 -0.1316 -0.3206
17559TIP3    H174092   2.944   0.944   1.725  0.7196 -0.4217 -1.5778
17559TIP3    H274093   3.076   0.912   1.792  0.3023 -0.0858 -0.5785
17560TIP3   OH274094   6.769   4.394   4.078  0.2980  1.4018  0.5356
17560TIP3    H174095   6.694   4.454   4.070 -3.0469 -2.4784 -0.9447
17560TIP3    H274096   6.779   4.383   4.173 -0.6915  2.3884  0.7888
17561TIP3   OH274097   0.230   3.502   2.905 -0.5211  0.0518 -0.0940
17561TIP3    H174098   0.178   3.501   2.825 -1.4293 -4.6712  0.2999
17561TIP3    H274099   0.319   3.482   2.876 -0.4345  0.3687 -0.0571
17562TIP3   OH274100   6.362   1.622  10.931 -0.1850  0.3001 -0.5007
17562TIP3    H174101   6.379   1.716  10.928  1.0078  0.0853 -0.9783
17562TIP3    H274102   6.356   1.595  10.839 -1.0574 -0.0087 -0.3644
17563TIP3   OH274103   4.345   6.779  10.718  0.2955 -0.8673  0.0285
17563TIP3    H174104   4.358   6.703  10.662 -1.8999 -0.5378 -1.0351
17563TIP3    H274105   4.250   6.793  10.717  0.6075  1.6754  0.4611
17564TIP3   OH274106   2.936   0.946   0.143 -0.1940 -0.5382 -0.9596
17564TIP3    H174107   2.973   0.858   0.140  0.3514 -0.3228 -0.6279
17564TIP3    H274108   2.858   0.937   0.197  1.1804 -0.3630  1.1830
17565TIP3   OH274109   3.123   5.125   5.995  0.3859  0.0880  0.4204
17565TIP3    H174110   3.055   5.070   6.034  1.0564  0.3294  2.0284
17565TIP3    H274111   3.204   5.076   6.011  0.8125  0.8001  0.4631
17566TIP3   OH274112   1.416   4.341   4.091  0.0184  0.4878  0.1033
17566TIP3    H174113   1.363   4.415   4.120  0.1431  0.5929  0.0634
17566TIP3    H274114   1.415   4.347   3.996  2.7521  2.4045  0.0771
17567TIP3   OH274115   0.742   5.197   4.257  0.0280  0.2424  0.4407
17567TIP3    H174116   0.751   5.289   4.235  1.3014  0.3880  1.4313
17567TIP3    H274117   0.703   5.197   4.345  0.3062 -0.1512  0.5680
17568TIP3   OH274118   4.664   3.372  13.376  0.4487 -0.2430 -0.1585
17568TIP3    H174119   4.693   3.460  13.351 -0.5779 -0.1606 -1.1511
17568TIP3    H274120   4.592   3.387  13.438 -0.8673 -0.2924 -1.5901
17569TIP3   OH274121   5.841   5.844  14.632  0.5815 -0.5034  0.3055
17569TIP3    H174122   5.756   5.816  14.667  0.4650 -3.0487 -1.7585
17569TIP3    H274123   5.819   5.913  14.569  0.2707  0.1325  1.0842
17570TIP3   OH274124   4.756   1.264  15.309  0.1888  0.2060  0.2996
17570TIP3    H174125   4.770   1.194  15.245  1.9454  0.2266  0.5895
17570TIP3    H274126   4.668   1.296  15.291  0.8989  0.7796 -2.6632
17571TIP3   OH274127   6.002   3.745  12.762  0.1859  0.0282 -0.2549
17571TIP3    H174128   6.087   3.701  12.773 -1.1202 -2.7469 -0.2462
17571TIP3    H274129   5.969   3.754  12.851  0.4957  1.2697 -0.2452
17572TIP3   OH274130   5.106   3.776   4.810 -0.4231 -0.3253 -0.0478
17572TIP3    H174131   5.130   3.699   4.758 -2.7192 -0.1816 -1.4712
17572TIP3    H274132   5.158   3.847   4.772  0.6217 -0.8835  0.3024
17573TIP3   OH274133   1.933   5.459  12.434 -0.2398  0.0869  0.1518
17573TIP3    H174134   2.022   5.430  12.451  0.7343  1.1923 -2.5325
17573TIP3    H274135   1.912   5.424  12.348 -1.9363  0.9249  0.1771
17574TIP3   OH274136   4.995   3.443   5.419 -0.3990 -0.4177  0.1771
17574TIP3    H174137   5.089   3.460   5.414 -0.3938 -0.7324 -1.2825
17574TIP3    H274138   4.968   3.483   5.502  0.7525  0.9520 -0.0665
17575TIP3   OH274139   0.209   4.883   1.329 -0.0874  0.1583  0.1630
17575TIP3    H174140   0.229   4.794   1.356  0.3630  0.2551  0.1615
17575TIP3    H274141   0.148   4.873   1.256  2.5449 -0.3228 -2.1451
17576TIP3   OH274142   1.218   4.072   1.358  0.5596 -0.0353 -0.8324
17576TIP3    H174143   1.311   4.092   1.345  0.4759 -0.3258 -2.0356
17576TIP3    H274144   1.196   4.111   1.442  1.8111 -0.0882 -0.4655
17577TIP3   OH274145   2.710   0.688   1.561  0.1343  0.1625  0.0869
17577TIP3    H174146   2.674   0.775   1.546 -0.9057 -0.3339 -0.4473
17577TIP3    H274147   2.640   0.628   1.532  0.3059 -0.8511  1.6445
17578TIP3   OH274148   1.643   5.203   3.578  0.0963  0.1755  0.1099
17578TIP3    H174149   1.630   5.129   3.637  0.8845 -0.6823 -0.7678
17578TIP3    H274150   1.646   5.279   3.636 -0.7898 -0.4587  1.0172
17579TIP3   OH274151   3.791   4.826   0.878 -0.7299 -0.6857  0.3645
17579TIP3    H174152   3.807   4.835   0.784  0.1065 -1.3475  0.4328
17579TIP3    H274153   3.842   4.896   0.918 -1.8231  0.1930  0.2882
17580TIP3   OH274154   0.445   3.549  10.808  0.5717 -0.0476  0.3042
17580TIP3    H174155   0.390   3.566  10.884 -1.0578  0.0043 -0.8134
17580TIP3    H274156   0.528   3.591  10.828  0.5365 -0.8592  2.4339
17581TIP3   OH274157   6.374   0.541  16.374 -0.0912  0.3053  0.3891
17581TIP3    H174158   6.448   0.557  16.432  0.9159  1.6694 -1.1803
17581TIP3    H274159   6.328   0.467  16.413  0.8876  0.7713  2.5449
17582TIP3   OH274160   2.458   5.354   2.568  0.3431 -0.0568 -0.3571
17582TIP3    H174161   2.532   5.307   2.608  2.0912  1.2959 -1.8044
17582TIP3    H274162   2.399   5.373   2.641  1.3563 -1.2902  0.8368
17583TIP3   OH274163   2.354   3.244   6.307  0.4653  0.0613  0.6924
17583TIP3    H174164   2.277   3.290   6.340  0.7736 -0.1173  1.7049
17583TIP3    H274165   2.422   3.311   6.302 -0.1339  0.5655 -1.6945
17584TIP3   OH274166   5.882   3.938  13.086  0.1540 -0.2263 -0.2726
17584TIP3    H174167   5.967   3.954  13.046  0.4897 -0.5094  0.3089
17584TIP3    H274168   5.890   3.850  13.124 -1.1130 -1.1545 -2.0480
17585TIP3   OH274169   3.015   2.056   3.935  0.3260 -0.6304  0.3314
17585TIP3    H174170   3.070   2.008   3.997  1.8304 -0.0522 -0.4935
17585TIP3    H274171   3.011   1.999   3.858 -1.5610 -1.3633  0.9294
17586TIP3   OH274172   3.593   4.145  13.942  0.0264 -0.0970 -0.1226
17586TIP3    H174173   3.586   4.077  14.009 -0.4654  1.9544  2.0257
17586TIP3    H274174   3.515   4.133  13.888 -1.1969  0.0278  1.5284
17587TIP3   OH274175   2.941   1.421  11.136 -0.4413 -0.2310  0.0817
17587TIP3    H174176   3.014   1.358  11.136  0.9566  1.3281 -0.4605
17587TIP3    H274177   2.982   1.506  11.153 -2.0365  0.8240 -1.0516
17588TIP3   OH274178   4.263   0.018   3.627  0.1849 -0.0503 -0.2430
17588TIP3    H174179   4.264   0.023   3.722 -0.4970  1.2584 -0.2815
17588TIP3    H274180   4.287   0.106   3.598 -1.6648  0.1836 -1.2443
17589TIP3   OH274181   2.346   4.672  16.615  0.6203 -0.4965  0.1566
17589TIP3    H174182   2.355   4.756  16.570 -0.4101 -1.7349 -2.6285
17589TIP3    H274183   2.313   4.694  16.702  0.3496  1.9605 -0.4944
17590TIP3   OH274184   2.117   1.169   1.049  0.1899  0.6719  0.2589
17590TIP3    H174185   2.122   1.155   1.144  2.4306 -0.6971 -0.0078
17590TIP3    H274186   2.201   1.209   1.026 -0.9531  2.5241 -0.9641
17591TIP3   OH274187   2.107   2.444  15.454 -0.6353  0.4736  0.2843
17591TIP3    H174188   2.074   2.533  15.440  0.3856  0.8631  0.2935
17591TIP3    H274189   2.172   2.431  15.384  1.5842  0.9572  2.1534
17592TIP3   OH274190   2.177   0.127  13.599 -0.1125 -0.0805  0.3357
17592TIP3    H174191   2.261   0.164  13.572 -1.2625  1.9075 -0.7732
17592TIP3    H274192   2.140   0.193  13.657 -0.8260 -1.0260  0.9666
17593TIP3   OH274193   5.946   0.536   6.523 -0.4572 -0.0070 -0.3909
17593TIP3    H174194   5.899   0.456   6.498 -0.4181 -0.4445  0.8824
17593TIP3    H274195   5.982   0.517   6.609  1.0507  0.7625 -0.8221
17594TIP3   OH274196   5.961   3.682   3.037 -0.0516  0.0859 -0.0677
17594TIP3    H174197   5.952   3.666   3.131 -1.1701 -1.3155 -0.3751
17594TIP3    H274198   5.927   3.770   3.024  0.6778  0.5305  0.9037
17595TIP3   OH274199   6.316   4.508   4.262  0.1401  0.3796 -0.0313
17595TIP3    H174200   6.312   4.518   4.357  0.5378  0.3254 -0.0071
17595TIP3    H274201   6.345   4.418   4.249  0.9697  0.6611 -0.1904
17596TIP3   OH274202   6.817   1.316  14.113  0.2097  0.4216  0.0679
17596TIP3    H174203   6.784   1.394  14.069  1.3639  0.8058 -0.1584
17596TIP3    H274204   6.741   1.280  14.159 -0.3769  1.5883  0.0519
17597TIP3   OH274205   2.898   3.396  15.964 -0.6591 -0.5155 -0.2564
17597TIP3    H174206   2.945   3.436  15.891 -3.0241  0.5613 -1.2700
17597TIP3    H274207   2.850   3.323  15.924  0.2465 -1.7510  0.8065
17598TIP3   OH274208   3.228   0.585   3.299  0.3489 -0.0570 -0.4633
17598TIP3    H174209   3.183   0.662   3.264 -0.0813  0.5984  1.4123
17598TIP3    H274210   3.164   0.515   3.293 -0.5595  0.5850  1.0278
17599TIP3   OH274211   6.813   2.089  15.309 -0.5200 -0.3102  0.5242
17599TIP3    H174212   6.807   2.036  15.388  0.3845 -0.3889  0.5501
17599TIP3    H274213   6.881   2.153  15.329 -0.3478 -0.2796 -0.1654
17600TIP3   OH274214   4.422   6.285   6.114 -0.2014  0.0507 -0.5508
17600TIP3    H174215   4.339   6.250   6.147 -0.0539 -0.6360 -0.8891
17600TIP3    H274216   4.480   6.283   6.190 -0.6865  1.2117 -0.1249
17601TIP3   OH274217   0.670   1.934  13.236  0.3345 -0.2645 -0.3821
17601TIP3    H174218   0.755   1.932  13.281 -0.1262  0.5964  0.5689
17601TIP3    H274219   0.683   1.994  13.163  1.5177 -2.7758 -2.4223
17602TIP3   OH274220   5.850   1.069  14.761 -0.0789 -0.5828  0.0125
17602TIP3    H174221   5.866   1.018  14.681  1.1387  1.4927 -1.1591
17602TIP3    H274222   5.813   1.006  14.823 -2.0253 -2.0705 -2.4815
17603TIP3   OH274223   5.514   5.491  13.341  0.4755  0.6980  0.4165
17603TIP3    H174224   5.582   5.513  13.278  0.6614  1.0967  0.7463
17603TIP3    H274225   5.543   5.409  13.380  0.9030  0.9923  0.7314
17604TIP3   OH274226   5.216   5.848   1.529  0.3363 -0.3761  0.5091
17604TIP3    H174227   5.195   5.767   1.576  1.4663 -0.2476  1.2711
17604TIP3    H274228   5.142   5.860   1.469 -0.1937 -1.5903  0.8749
17605TIP3   OH274229   3.787   5.640   6.368  0.5916 -0.5423 -0.3674
17605TIP3    H174230   3.822   5.706   6.428 -0.1694 -1.5148  1.2109
17605TIP3    H274231   3.820   5.557   6.402 -1.1730 -1.2566 -0.3123
17606TIP3   OH274232   0.875   4.284   4.071 -0.5016 -0.2656 -0.0535
17606TIP3    H174233   0.813   4.213   4.055 -0.8909 -0.3137  1.5102
17606TIP3    H274234   0.942   4.245   4.129 -0.9000  0.6941  1.1092
17607TIP3   OH274235   0.556   3.988   2.185 -0.4087 -0.5090  0.2558
17607TIP3    H174236   0.513   3.929   2.123 -1.1964  1.7868 -1.5365
17607TIP3    H274237   0.487   4.048   2.213  0.7437  0.7295  0.5237
17608TIP3   OH274238   4.714   5.852   0.892 -0.9240 -0.3689  0.0427
17608TIP3    H174239   4.703   5.941   0.925 -2.2010 -0.8001  0.8512
17608TIP3    H274240   4.742   5.863   0.801 -2.2000  0.8788 -0.2270
17609TIP3   OH274241   0.215   5.733   6.581 -0.3131  0.2119  0.1651
17609TIP3    H174242   0.287   5.725   6.644 -1.3197  0.4310  1.3784
17609TIP3    H274243   0.258   5.757   6.499  0.8886  1.9665  1.2368
17610TIP3   OH274244   5.691   0.625  14.995  0.1766  0.1614  0.9339
17610TIP3    H174245   5.613   0.572  14.986  0.6911 -0.6409  1.0948
17610TIP3    H274246   5.760   0.575  14.951  0.2362  1.7180 -0.8838
17611TIP3   OH274247   2.224   0.799   1.951  0.1384  0.1005  0.1586
17611TIP3    H174248   2.198   0.891   1.949  0.2592  0.1219 -0.9294
17611TIP3    H274249   2.278   0.792   2.030 -0.3634  0.8220  0.5769
17612TIP3   OH274250   5.053   1.508  12.286  0.2306 -0.7334 -0.4154
17612TIP3    H174251   5.129   1.458  12.257  1.0322  1.1804 -1.8228
17612TIP3    H274252   4.978   1.459  12.252  0.7527 -2.6499  0.9868
17613TIP3   OH274253   1.349   6.805  11.127 -0.1171 -0.6260  0.1109
17613TIP3    H174254   1.288   6.734  11.110 -0.2936 -0.2392 -1.0158
17613TIP3    H274255   1.367   6.842  11.040  1.1658 -0.2812  0.4950
17614TIP3   OH274256   3.071   5.447  11.981  0.3592  0.1051 -0.3279
17614TIP3    H174257   3.063   5.353  11.968  1.1520  0.3792 -3.7691
17614TIP3    H274258   3.129   5.457  12.057  0.8634 -2.1600 -0.3702
17615TIP3   OH274259   3.074   5.663   5.779 -0.1982 -0.1312 -0.0128
17615TIP3    H174260   2.998   5.694   5.828  0.6959 -0.0654  1.4040
17615TIP3    H274261   3.038   5.609   5.709 -1.6081  1.0175 -0.2310
17616TIP3   OH274262   4.408   6.092  13.032 -0.3803 -0.3742 -0.8891
17616TIP3    H174263   4.360   6.144  13.096  1.6814  1.2929 -0.5860
17616TIP3    H274264   4.477   6.151  13.000  0.6868 -2.2306 -2.2064
17617TIP3   OH274265   1.127   3.754   0.683  0.4121  0.9645 -0.0961
17617TIP3    H174266   1.103   3.817   0.615  0.1814  1.2693  0.2656
17617TIP3    H274267   1.047   3.742   0.734  0.0796 -0.6149 -0.9386
17618TIP3   OH274268   1.154   1.021  15.833 -0.1658 -0.3003 -0.0757
17618TIP3    H174269   1.186   0.971  15.909  0.2932  1.3026  0.8402
17618TIP3    H274270   1.198   1.106  15.840 -2.2714  0.9037 -0.5333
17619TIP3   OH274271   1.638   0.646   2.258 -0.2783  0.2091  0.2717
17619TIP3    H174272   1.605   0.567   2.215 -1.8590  0.9651  0.0149
17619TIP3    H274273   1.713   0.673   2.205 -0.8365 -0.1030 -0.7045
17620TIP3   OH274274   2.220   1.829  12.257  0.0182 -0.5235  0.4202
17620TIP3    H174275   2.244   1.921  12.254 -0.3407 -0.3541  1.8555
17620TIP3    H274276   2.259   1.796  12.339 -0.9628 -1.2981  0.6068
17621TIP3   OH274277   1.674   5.260  12.545  0.3679 -0.3590  0.5711
17621TIP3    H174278   1.712   5.337  12.500  0.2328  0.1203  1.2645
17621TIP3    H274279   1.726   5.186  12.513  0.5533  0.0282 -0.0486
17622TIP3   OH274280   1.163   2.069  15.983  0.4226 -0.3866  0.7001
17622TIP3    H174281   1.158   1.973  15.982  1.2650 -0.4294  0.3960
17622TIP3    H274282   1.148   2.095  15.893 -1.8488 -0.1006  1.1042
17623TIP3   OH274283   6.283   2.501  13.402 -0.5904 -0.4395 -0.5627
17623TIP3    H174284   6.378   2.504  13.398 -0.6319  1.1442 -0.7135
17623TIP3    H274285   6.264   2.438  13.472  0.5968  0.6204  0.7555
17624TIP3   OH274286   1.387   0.046   3.840 -0.8556 -0.6877 -0.0557
17624TIP3    H174287   1.295   0.053   3.814 -0.7740 -1.0207 -0.4451
17624TIP3    H274288   1.421  -0.027   3.788  0.0832  0.5568 -1.2673
17625TIP3   OH274289   3.221   0.178   2.133  0.1297  0.3932 -0.0485
17625TIP3    H174290   3.185   0.119   2.067 -0.8999  0.2920  0.5786
17625TIP3    H274291   3.193   0.265   2.105 -0.1401  0.3698  0.1467
17626TIP3   OH274292   3.620   1.903  16.622  0.5553 -0.0709  0.3018
17626TIP3    H174293   3.695   1.911  16.562  0.7450 -0.5190  0.4743
17626TIP3    H274294   3.566   1.980  16.604  1.6890  0.9310  1.0572
17627TIP3   OH274295   1.123   2.392  11.111  0.1884  0.0798 -0.2985
17627TIP3    H174296   1.143   2.340  11.033  1.6698 -0.7760  0.6051
17627TIP3    H274297   1.104   2.480  11.078 -1.7756 -0.8354 -1.8167
17628TIP3   OH274298   2.152   5.876   4.966  0.8241 -0.1284 -0.0353
17628TIP3    H174299   2.175   5.959   4.924  1.2095 -0.5228 -0.6128
17628TIP3    H274300   2.119   5.821   4.894  1.1500 -0.6843  0.2356
17629TIP3   OH274301   5.568   3.251   0.031 -0.6503  0.2449  0.8715
17629TIP3    H174302   5.575   3.265  -0.064 -0.3852 -2.2480  0.4464
17629TIP3    H274303   5.474   3.249   0.048 -0.7466 -1.0475  0.3074
17630TIP3   OH274304   1.336   6.123   0.439  0.4064 -0.5836 -0.1506
17630TIP3    H174305   1.422   6.080   0.436 -0.5471 -2.5763 -1.2104
17630TIP3    H274306   1.283   6.073   0.377 -1.2088  1.3303 -0.3969
17631TIP3   OH274307   4.162   1.409  14.440  0.5521 -0.1785  0.7436
17631TIP3    H174308   4.184   1.428  14.531  0.5563  1.1665  0.4832
17631TIP3    H274309   4.245   1.417  14.392  0.6823 -1.5444  0.6962
17632TIP3   OH274310   6.229   0.817   2.454  0.2287 -0.5365  0.6231
17632TIP3    H174311   6.174   0.834   2.530 -0.9671  0.4306 -0.4123
17632TIP3    H274312   6.316   0.847   2.480 -0.3768  0.7448  1.2809
17633TIP3   OH274313   3.390   6.360  16.934  0.3897  0.4309  0.3903
17633TIP3    H174314   3.479   6.361  16.971  1.7318 -1.0184 -2.4714
17633TIP3    H274315   3.352   6.279  16.967  1.2315 -0.3845 -0.5685
17634TIP3   OH274316   2.279   2.706  14.198  0.3836  0.0029  0.2879
17634TIP3    H174317   2.319   2.783  14.239  0.8709  0.0921 -0.3457
17634TIP3    H274318   2.348   2.641  14.195 -0.1247 -0.5951  1.1349
17635TIP3   OH274319   0.195   2.656  12.922 -0.3404  0.0976 -0.4523
17635TIP3    H174320   0.180   2.564  12.903 -0.6886  0.1586 -0.4791
17635TIP3    H274321   0.154   2.704  12.850  0.0979  0.2658 -0.5932
17636TIP3   OH274322   4.127   2.561  15.256 -0.7098 -0.2831 -0.1365
17636TIP3    H174323   4.068   2.575  15.330  1.5350  1.1055  1.5146
17636TIP3    H274324   4.158   2.471  15.267  1.9487  0.7996  2.5885
17637TIP3   OH274325   0.674   6.799  15.243 -0.1295 -0.3776  0.0052
17637TIP3    H174326   0.594   6.830  15.285 -0.7088  0.1561 -1.4192
17637TIP3    H274327   0.649   6.787  15.151  1.3575 -0.4560 -0.4048
17638TIP3   OH274328   0.563   0.710  14.622  0.4543 -0.1022  0.1135
17638TIP3    H174329   0.497   0.692  14.689 -0.5245  0.8314 -0.5722
17638TIP3    H274330   0.573   0.805  14.622  1.0852 -0.1589 -0.4689
17639TIP3   OH274331   5.173   4.328  16.466 -0.0625 -0.5668  0.2548
17639TIP3    H174332   5.108   4.367  16.408 -1.6399 -0.9087  1.7072
17639TIP3    H274333   5.214   4.260  16.413 -0.7398 -0.2138 -0.7627
17640TIP3   OH274334   3.442   1.302  15.785  0.4183  0.1168 -0.0578
17640TIP3    H174335   3.461   1.361  15.858 -1.2382  0.8047 -0.1265
17640TIP3    H274336   3.347   1.310  15.772  0.7272  0.5359 -2.7066
17641TIP3   OH274337   6.711   6.093   5.280  0.3430 -0.2520  0.2343
17641TIP3    H174338   6.632   6.121   5.326  1.7125  2.8608  0.9033
17641TIP3    H274339   6.765   6.051   5.347 -0.1012 -1.1185  0.0732
17642TIP3   OH274340   5.233   3.154   0.501 -0.0113  1.2693 -0.3486
17642TIP3    H174341   5.296   3.222   0.477  0.2704  0.4481 -2.1391
17642TIP3    H274342   5.281   3.072   0.490 -0.4106  0.7235  1.5691
17643TIP3   OH274343   6.172   1.177  15.249 -0.7019  0.2708 -0.1386
17643TIP3    H174344   6.107   1.239  15.216  0.6823  2.1212  0.4425
17643TIP3    H274345   6.202   1.129  15.171 -1.8797  0.2167 -0.5745
17644TIP3   OH274346   2.854   1.346   1.166 -0.6721 -0.6048 -0.1279
17644TIP3    H174347   2.865   1.315   1.076 -2.5050 -0.1036 -0.5640
17644TIP3    H274348   2.875   1.439   1.162 -0.4041 -0.6555  0.0514
17645TIP3   OH274349   4.348   3.307   2.456  0.4520 -0.2001 -0.2983
17645TIP3    H174350   4.283   3.371   2.483 -1.5605 -1.5232 -1.7181
17645TIP3    H274351   4.404   3.354   2.394  1.4649  1.1832  1.5668
17646TIP3   OH274352   2.774   4.121   4.866 -0.3245  0.0080  0.6892
17646TIP3    H174353   2.769   4.160   4.953 -2.9873  1.4617  0.0071
17646TIP3    H274354   2.769   4.196   4.806 -1.2415 -1.1214 -0.7032
17647TIP3   OH274355   3.738   6.565  16.577  0.0524 -0.5574  0.2989
17647TIP3    H174356   3.743   6.534  16.486 -1.2102  1.0994 -0.4010
17647TIP3    H274357   3.702   6.491  16.626  0.5071 -1.3881 -0.5940
17648TIP3   OH274358   5.602   5.373   1.237  0.1280 -0.4880 -0.4043
17648TIP3    H174359   5.696   5.357   1.228  0.3198  0.1366  0.3443
17648TIP3    H274360   5.591   5.396   1.329 -0.6208  0.3602 -0.6976
17649TIP3   OH274361   0.417   2.757   2.009  0.2464  0.4571 -0.0096
17649TIP3    H174362   0.335   2.727   1.972 -0.0120  0.5588  0.4740
17649TIP3    H274363   0.392   2.825   2.071  0.6166 -0.1656  0.8400
17650TIP3   OH274364   6.222   2.080   3.046 -0.1824 -0.2625  0.0379
17650TIP3    H174365   6.269   2.121   3.119  0.4268 -2.0292  0.6978
17650TIP3    H274366   6.287   2.022   3.006 -1.6164 -2.5270  0.7588
17651TIP3   OH274367   5.457   2.018   2.183 -0.1232  0.5486  0.2812
17651TIP3    H174368   5.448   1.963   2.105 -0.5792 -2.1145  2.0817
17651TIP3    H274369   5.374   2.064   2.190 -0.6529 -0.3580  0.0287
17652TIP3   OH274370   3.099   3.299   3.511 -0.4063 -0.7555  0.3424
17652TIP3    H174371   3.007   3.277   3.529 -0.4381  0.8385  2.5107
17652TIP3    H274372   3.099   3.327   3.420 -2.3987  0.5669  0.6781
17653TIP3   OH274373   3.095   2.771   5.120 -0.2509 -0.3194 -0.1538
17653TIP3    H174374   3.118   2.749   5.029 -0.5477  0.8333 -0.5333
17653TIP3    H274375   3.169   2.740   5.171  0.7289  0.5457 -0.9999
17654TIP3   OH274376   1.338   6.681   2.853  0.0900  0.5564 -0.0971
17654TIP3    H174377   1.362   6.647   2.767 -2.1629 -0.6872 -0.3077
17654TIP3    H274378   1.421   6.707   2.892  1.4756 -1.2676 -1.6310
17655TIP3   OH274379   2.963   6.600  11.717  0.7208  0.5186 -0.3108
17655TIP3    H174380   2.962   6.530  11.782  1.4437  0.9542  0.1880
17655TIP3    H274381   3.056   6.611  11.695  0.3914 -0.6100 -2.5332
17656TIP3   OH274382   4.570   1.310   6.108  0.0194  0.2553  0.2322
17656TIP3    H174383   4.553   1.294   6.201 -1.0679  1.2141  0.2155
17656TIP3    H274384   4.541   1.400   6.093  0.7193  0.3122 -0.9192
17657TIP3   OH274385   5.525   2.878   4.019 -0.2315 -0.7641  0.4202
17657TIP3    H174386   5.572   2.889   4.102  0.0725  0.8097  0.0741
17657TIP3    H274387   5.485   2.963   4.003 -1.8358 -1.5945 -0.1473
17658TIP3   OH274388   0.497   1.819   1.092 -0.0492  0.2053 -0.0917
17658TIP3    H174389   0.527   1.768   1.167 -0.8979 -1.6295 -0.9357
17658TIP3    H274390   0.568   1.810   1.028 -0.0505  0.3831 -0.1181
17659TIP3   OH274391   5.125   5.157   5.682 -0.2180 -0.5162  0.7010
17659TIP3    H174392   5.089   5.213   5.614  3.8417 -0.2541 -1.5028
17659TIP3    H274393   5.132   5.214   5.759  0.3691  0.9243 -0.3806
17660TIP3   OH274394   1.955   5.130   4.674 -0.0867  0.2517  0.8852
17660TIP3    H174395   1.997   5.172   4.749 -1.4819  2.9434  0.2658
17660TIP3    H274396   1.874   5.093   4.709 -0.1527  0.4439  0.9370
17661TIP3   OH274397   3.258   0.165   3.658 -0.3129  0.1505  0.1986
17661TIP3    H174398   3.305   0.188   3.738 -0.7244  0.4048  0.3722
17661TIP3    H274399   3.190   0.232   3.650  0.4273  0.7986 -0.9757
17662TIP3   OH274400   1.581   5.470   1.910  0.0432 -0.3482 -0.4103
17662TIP3    H174401   1.673   5.459   1.885 -0.6261 -1.0510 -2.8624
17662TIP3    H274402   1.552   5.382   1.935  0.1974  0.0062  1.0851
17663TIP3   OH274403   2.987   0.854  15.799 -0.1597  0.4606 -0.4714
17663TIP3    H174404   3.050   0.900  15.854  2.3013  0.1329 -2.8449
17663TIP3    H274405   2.902   0.883  15.832  1.1242  0.5487  3.1967
17664TIP3   OH274406   3.787   3.278  11.827  0.1874  0.2599 -0.3884
17664TIP3    H174407   3.810   3.213  11.893 -0.5390 -0.3147 -0.6791
17664TIP3    H274408   3.832   3.249  11.747 -0.8301 -0.4052 -0.7449
17665TIP3   OH274409   1.746   2.721  15.688  0.1324 -0.1888  0.2264
17665TIP3    H174410   1.652   2.734  15.693  0.2850  1.9203 -1.0281
17665TIP3    H274411   1.782   2.773  15.759  0.3661 -0.9256  0.6547
17666TIP3   OH274412   1.809   3.542  16.740  0.1113  0.3038  0.4893
17666TIP3    H174413   1.731   3.563  16.791 -0.1670 -2.2002  1.2563
17666TIP3    H274414   1.777   3.484  16.671  1.0859  0.3904 -0.0555
17667TIP3   OH274415   0.561   5.376   0.153 -0.2419  0.4208  0.3853
17667TIP3    H174416   0.473   5.341   0.171 -0.1009  0.0015  0.2716
17667TIP3    H274417   0.546   5.442   0.085 -0.8405  2.3713  2.3037
17668TIP3   OH274418   5.547   0.350  16.422 -0.1678  0.5118  0.0269
17668TIP3    H174419   5.457   0.326  16.402  0.4437 -1.1663 -0.8484
17668TIP3    H274420   5.559   0.435  16.379 -0.4720 -0.6102 -2.4548
17669TIP3   OH274421   1.946   3.971   5.182  0.1773 -0.0564 -0.6949
17669TIP3    H174422   1.936   4.065   5.171 -1.0893  0.0972  1.2453
17669TIP3    H274423   2.019   3.961   5.242 -0.2681 -0.2331 -0.1679
17670TIP3   OH274424   5.793   2.166  13.159 -0.5221  0.4300 -0.0386
17670TIP3    H174425   5.710   2.212  13.171 -0.7524  0.4736 -1.6666
17670TIP3    H274426   5.836   2.211  13.086  0.6076 -0.0667  0.2911
17671TIP3   OH274427   6.356   4.856  12.315 -0.4277  0.0443  0.7067
17671TIP3    H174428   6.310   4.928  12.272 -0.2347 -0.5015 -0.4308
17671TIP3    H274429   6.433   4.841  12.260 -0.2457 -0.7570  1.1741
17672TIP3   OH274430   5.281   1.642   4.530 -0.0063 -0.0818  0.3025
17672TIP3    H174431   5.296   1.647   4.435  0.4116 -2.4192  0.1799
17672TIP3    H274432   5.368   1.628   4.567 -0.1953  0.6064  1.0285
17673TIP3   OH274433   4.431   0.335   6.065 -0.3117 -0.3066 -0.1817
17673TIP3    H174434   4.339   0.347   6.085 -1.2096 -1.6280 -2.9923
17673TIP3    H274435   4.477   0.389   6.129 -3.0650  1.5373  0.4140
17674TIP3   OH274436   3.156   5.920   5.849  0.3700  0.1928 -0.0155
17674TIP3    H174437   3.161   5.902   5.943 -2.1403  0.6143  0.2563
17674TIP3    H274438   3.135   5.836   5.809  1.7741 -0.0578 -0.2794
17675TIP3   OH274439   4.616   3.547  13.811 -0.2111 -0.0997 -0.8128
17675TIP3    H174440   4.581   3.463  13.839  1.8517 -0.7779 -0.1378
17675TIP3    H274441   4.673   3.575  13.883 -3.2623  3.5179  0.5204
17676TIP3   OH274442   3.427   1.921   4.018 -0.2928  0.2972  0.0482
17676TIP3    H174443   3.519   1.896   4.013 -0.1630  0.5862  0.7603
17676TIP3    H274444   3.429   2.016   4.030 -0.7530  0.6121 -2.0613
17677TIP3   OH274445   2.896   2.821  12.948  0.4496 -0.2397  0.3381
17677TIP3    H174446   2.860   2.735  12.925 -0.4624  0.2198 -0.0247
17677TIP3    H274447   2.836   2.855  13.015 -0.3524  0.9075 -0.8942
17678TIP3   OH274448   5.067   1.085  12.012 -0.1789  0.1549 -0.0102
17678TIP3    H174449   4.984   1.039  12.005 -0.7039  1.1536 -0.4904
17678TIP3    H274450   5.044   1.177  12.019  0.8931  0.4979 -0.6596
17679TIP3   OH274451   2.701   0.894  14.671 -0.0058  0.0163  0.7046
17679TIP3    H174452   2.661   0.928  14.752 -0.3229  0.0810  0.5237
17679TIP3    H274453   2.761   0.963  14.644  0.6246 -0.3063  1.2621
17680TIP3   OH274454   4.899   3.924   5.453  0.3516 -0.0945  0.1382
17680TIP3    H174455   4.978   3.951   5.406  0.0742  2.4110  0.9891
17680TIP3    H274456   4.857   3.861   5.395  3.6805 -2.7843  0.3035
17681TIP3   OH274457   5.066   0.404  13.290  0.1067  0.1210 -0.5613
17681TIP3    H174458   5.078   0.460  13.213 -1.1135  1.3561  0.1053
17681TIP3    H274459   4.984   0.357  13.272 -0.0840  0.2758 -0.0931
17682TIP3   OH274460   3.853   1.021   2.478  0.0506 -0.7308 -0.4440
17682TIP3    H174461   3.793   1.019   2.404  1.1172  0.3602 -1.3776
17682TIP3    H274462   3.798   1.042   2.553 -1.2128 -2.8197 -0.7193
17683TIP3   OH274463   2.753   4.096   3.351  0.0641  0.2909  0.5504
17683TIP3    H174464   2.848   4.089   3.346  0.0028 -0.1969 -0.2600
17683TIP3    H274465   2.728   4.039   3.424  0.2270 -1.7230 -0.8516
17684TIP3   OH274466   1.114   3.953   3.262 -0.6627 -0.1801 -0.2026
17684TIP3    H174467   1.145   4.040   3.286 -0.3902 -0.6450  1.2153
17684TIP3    H274468   1.079   3.917   3.343 -0.1813 -1.6429 -0.6220
17685TIP3   OH274469   6.811   0.363   4.931  0.5374  0.1319 -0.3409
17685TIP3    H174470   6.744   0.403   4.877 -0.1737  0.9520  1.0877
17685TIP3    H274471   6.816   0.418   5.009  2.9432  0.1578 -0.4223
17686TIP3   OH274472   4.479   5.147  16.785 -0.5802 -0.2397 -0.1182
17686TIP3    H174473   4.465   5.081  16.718 -1.9592  0.1033 -0.2069
17686TIP3    H274474   4.426   5.118  16.859  0.3035 -0.2041  0.5471
17687TIP3   OH274475   4.065   6.561  16.349  0.3684 -0.0701 -0.0394
17687TIP3    H174476   4.152   6.545  16.312  0.2960 -2.3933  0.6171
17687TIP3    H274477   4.082   6.587  16.439  0.4292  2.7576 -0.7649
17688TIP3   OH274478   1.236   6.649  16.934 -0.0619  0.1768 -0.0870
17688TIP3    H174479   1.210   6.598  17.010  0.9956 -0.6584 -0.2549
17688TIP3    H274480   1.287   6.722  16.970  1.0931 -0.6398 -0.0086
17689TIP3   OH274481   0.759   3.435   3.623 -0.3744  0.0593 -0.2266
17689TIP3    H174482   0.721   3.425   3.536 -0.8207  0.8433 -0.1268
17689TIP3    H274483   0.807   3.353   3.638 -1.1884 -0.5247 -0.7612
17690TIP3   OH274484   5.240   2.277   3.825 -0.3570 -0.0555 -0.2744
17690TIP3    H174485   5.155   2.317   3.807 -0.3243 -0.5618 -1.6609
17690TIP3    H274486   5.295   2.304   3.752  0.9983  1.0963  1.1172
17691TIP3   OH274487   1.637   4.190  14.090  0.0128  0.0191  0.1314
17691TIP3    H174488   1.670   4.119  14.144 -2.0341 -0.1942  1.1911
17691TIP3    H274489   1.634   4.266  14.149 -2.7853 -0.3534  0.6254
17692TIP3   OH274490   1.543   3.998   0.502  0.6553  0.1960  0.0455
17692TIP3    H174491   1.597   3.950   0.440 -1.7643 -2.3261 -0.3156
17692TIP3    H274492   1.576   3.972   0.588  0.1692 -1.1815 -0.1684
17693TIP3   OH274493   3.029   3.516  13.980  0.2972  0.3073 -0.4792
17693TIP3    H174494   3.029   3.471  13.895 -0.2465  0.8512 -0.7761
17693TIP3    H274495   2.991   3.452  14.041  0.0399  0.1644 -0.7852
17694TIP3   OH274496   2.514   2.463   0.154  0.1207  0.1415 -0.2659
17694TIP3    H174497   2.523   2.429   0.065  2.0650  1.8539 -0.8235
17694TIP3    H274498   2.441   2.525   0.149 -0.1416 -0.1907 -0.5396
17695TIP3   OH274499   6.267   6.430   2.105  0.1472 -0.4782 -0.0510
17695TIP3    H174500   6.205   6.361   2.128  0.7236 -1.1245 -0.3985
17695TIP3    H274501   6.226   6.511   2.136 -0.2910 -1.0352  0.8534
17696TIP3   OH274502   4.083   4.854   5.007  0.1138  0.0669  0.1258
17696TIP3    H174503   4.048   4.920   5.066 -1.2283  0.4091 -1.0076
17696TIP3    H274504   4.037   4.774   5.030 -0.8401  0.3253 -0.7839
17697TIP3   OH274505   0.313   2.808   4.117 -0.5028 -0.3552 -0.4196
17697TIP3    H174506   0.380   2.816   4.185  0.2864 -2.2220 -0.9025
17697TIP3    H274507   0.250   2.877   4.137 -0.1664 -0.6813  2.0271
17698TIP3   OH274508   0.290   3.774   1.912  0.1712 -0.2825 -0.4604
17698TIP3    H174509   0.226   3.845   1.921 -0.8575 -0.8333 -2.6854
17698TIP3    H274510   0.245   3.697   1.947 -0.3749 -0.6317 -1.8565
17699TIP3   OH274511   4.239   4.669   0.173 -0.3749 -0.2205  0.0924
17699TIP3    H174512   4.271   4.626   0.094  2.2622  0.9149  0.4486
17699TIP3    H274513   4.184   4.603   0.215 -2.1735 -0.7541 -2.7784
17700TIP3   OH274514   0.571   6.498   0.857 -0.4567  0.2717  0.1575
17700TIP3    H174515   0.591   6.517   0.949  0.3467  1.6090 -0.2700
17700TIP3    H274516   0.544   6.582   0.821  1.8273  0.3958 -1.4701
17701TIP3   OH274517   4.308   4.433   5.270  0.4403 -0.1556  0.1704
17701TIP3    H174518   4.297   4.461   5.179  0.1862 -1.3295 -0.1819
17701TIP3    H274519   4.395   4.392   5.271 -0.4896 -2.2686 -0.1531
17702TIP3   OH274520   2.881   0.991   6.329 -0.1241 -0.0031  0.0758
17702TIP3    H174521   2.848   0.912   6.286 -1.0400  0.8651 -0.8653
17702TIP3    H274522   2.946   0.958   6.392 -0.5046 -1.4980 -0.2634
17703TIP3   OH274523   4.927   2.843   2.307 -0.3580 -0.1479  0.2434
17703TIP3    H174524   4.974   2.794   2.375 -0.2789 -2.4986 -1.3890
17703TIP3    H274525   4.976   2.924   2.297  0.4574 -0.3952  1.9672
17704TIP3   OH274526   3.415   0.451   2.796  0.4235  0.1483 -0.6990
17704TIP3    H174527   3.339   0.473   2.849 -1.7200 -1.0819 -3.0491
17704TIP3    H274528   3.482   0.424   2.859 -1.3205  0.5975  1.4301
17705TIP3   OH274529   3.081   2.973  14.517 -0.0104  0.1387 -1.3136
17705TIP3    H174530   3.050   2.915  14.587 -1.9644  1.1147 -1.3007
17705TIP3    H274531   3.173   2.948  14.505  1.4062  1.7984  3.5363
17706TIP3   OH274532   3.269   0.906   1.880  0.2319  0.2453  0.7581
17706TIP3    H174533   3.213   0.943   1.949 -0.3425  0.5181  0.1559
17706TIP3    H274534   3.305   0.983   1.835 -1.3046  0.1285 -0.7757
17707TIP3   OH274535   2.159   4.012  10.734  0.6224  0.3863 -0.5364
17707TIP3    H174536   2.072   4.001  10.697  0.9040 -1.0202 -0.8345
17707TIP3    H274537   2.154   3.973  10.821  0.9267  0.3535 -0.5305
17708TIP3   OH274538   1.765   4.430   2.292  0.5527 -0.0782 -0.5559
17708TIP3    H174539   1.681   4.409   2.333  0.6439 -0.0348 -0.3460
17708TIP3    H274540   1.817   4.350   2.301  1.0129  0.3251  0.5272
17709TIP3   OH274541   2.714   3.463  14.237  0.0176 -0.6789 -0.8123
17709TIP3    H174542   2.685   3.518  14.164 -2.0593  0.3078  0.6785
17709TIP3    H274543   2.670   3.379  14.222  1.1919 -1.1802 -1.7096
17710TIP3   OH274544   1.845   4.499   3.759 -0.2568  0.0032 -0.1565
17710TIP3    H174545   1.906   4.507   3.686  0.5842 -2.3805  0.1866
17710TIP3    H274546   1.877   4.423   3.809 -2.4254 -0.1681  1.1025
17711TIP3   OH274547   3.214   0.456  13.698  0.1459  0.0945 -0.3650
17711TIP3    H174548   3.244   0.545  13.716 -0.6091  0.5543 -1.3339
17711TIP3    H274549   3.293   0.402  13.708  0.3866  0.6854  1.3635
17712TIP3   OH274550   4.835   5.185  12.375  0.0030 -0.1798 -0.6085
17712TIP3    H174551   4.816   5.197  12.282 -2.2319 -0.7643 -0.2948
17712TIP3    H274552   4.786   5.255  12.418 -0.0992 -0.7387  0.1955
17713TIP3   OH274553   5.486   1.043   0.652  0.3787 -0.0989 -0.0722
17713TIP3    H174554   5.523   1.027   0.565 -0.2214 -0.6433 -0.2360
17713TIP3    H274555   5.460   0.957   0.683 -0.9694  0.2832 -0.0759
17714TIP3   OH274556   3.310   6.346   1.967 -0.4087  0.2122  0.9391
17714TIP3    H174557   3.275   6.258   1.951  0.2830  0.2332 -0.8658
17714TIP3    H274558   3.234   6.397   1.994 -1.2568 -0.4245 -0.1363
17715TIP3   OH274559   0.689   4.334   3.852  0.0724  0.3269  0.5892
17715TIP3    H174560   0.755   4.316   3.785 -0.5588 -1.3315  0.3583
17715TIP3    H274561   0.740   4.354   3.930  0.8544 -0.3654  0.2733
17716TIP3   OH274562   3.022   4.624   2.935 -0.3415  0.4978  0.7048
17716TIP3    H174563   2.962   4.605   3.006  0.6216  0.9143  1.6636
17716TIP3    H274564   3.059   4.539   2.911 -0.7006  0.3505  0.6812
17717TIP3   OH274565   1.060   0.169  11.545 -0.6348  0.0161 -0.0318
17717TIP3    H174566   1.023   0.081  11.548 -1.2120  0.2196 -0.6762
17717TIP3    H274567   0.984   0.227  11.544 -0.3067  0.4677 -0.8691
17718TIP3   OH274568   0.566   6.783   2.149 -0.0586  0.1700  0.1804
17718TIP3    H174569   0.646   6.834   2.139  1.3728 -1.7918  0.9699
17718TIP3    H274570   0.510   6.812   2.077  0.7162  2.6690  0.4969
17719TIP3   OH274571   4.430   5.459   3.981 -0.1844  0.5826  0.3286
17719TIP3    H174572   4.423   5.485   4.073  1.0934 -1.1071  0.9419
17719TIP3    H274573   4.365   5.390   3.970  1.5663 -1.2415  0.7937
17720TIP3   OH274574   4.590   4.415  15.263 -0.1463 -0.5001 -0.7177
17720TIP3    H174575   4.628   4.349  15.321 -0.4949  0.0357  0.1366
17720TIP3    H274576   4.554   4.481  15.322 -1.3009 -0.3725 -1.5241
17721TIP3   OH274577   1.090   4.211  13.634 -0.5879  0.6013  0.6606
17721TIP3    H174578   1.165   4.151  13.632 -0.8776  0.1664  1.8143
17721TIP3    H274579   1.054   4.208  13.545  1.3190  1.5650 -0.1987
17722TIP3   OH274580   5.643   2.123  16.552  0.4950  0.4924  0.4348
17722TIP3    H174581   5.598   2.042  16.527 -0.4221 -0.3619  4.1578
17722TIP3    H274582   5.734   2.096  16.568  0.8412  0.8264 -0.8639
17723TIP3   OH274583   5.755   0.446   5.785  0.2073 -0.1031 -0.0809
17723TIP3    H174584   5.835   0.496   5.803 -0.0277  0.5679 -0.8471
17723TIP3    H274585   5.782   0.379   5.722  0.3246 -0.3591  0.2397
17724TIP3   OH274586   2.747   6.038   2.561 -0.2829  0.3331 -0.1235
17724TIP3    H174587   2.839   6.038   2.585 -0.2125 -0.2176 -0.3680
17724TIP3    H274588   2.701   6.003   2.637 -0.1912 -0.2383 -0.3251
17725TIP3   OH274589   4.915   6.757  13.503 -0.0565  0.0410 -0.1713
17725TIP3    H174590   5.008   6.740  13.493  0.0972  0.5934  0.2681
17725TIP3    H274591   4.902   6.773  13.596 -0.9482 -1.9879  0.0978
17726TIP3   OH274592   1.393   0.268   0.265  1.1757 -0.4745  0.9600
17726TIP3    H174593   1.488   0.276   0.256  1.3433 -0.2637  2.5290
17726TIP3    H274594   1.372   0.319   0.344 -0.5932  1.5166 -0.6738
17727TIP3   OH274595   0.165   3.954  15.053 -0.4794 -0.5014 -0.8178
17727TIP3    H174596   0.201   3.866  15.064  1.3454 -0.0176 -2.2813
17727TIP3    H274597   0.238   4.013  15.072 -2.2229  0.8767  2.2900
17728TIP3   OH274598   3.212   0.527   0.366 -0.0262 -0.4398  0.4926
17728TIP3    H174599   3.278   0.549   0.431  0.7819 -0.0726 -0.4196
17728TIP3    H274600   3.215   0.432   0.359 -1.1470 -0.6105  2.0209
17729TIP3   OH274601   5.909   3.953   2.803  0.4572  0.3235 -0.0794
17729TIP3    H174602   5.959   4.014   2.858 -0.3771  0.8779  0.0795
17729TIP3    H274603   5.965   3.940   2.726 -0.1253  2.7871 -1.0063
17730TIP3   OH274604   6.218   0.549   3.130 -0.5485 -0.2239 -0.4213
17730TIP3    H174605   6.251   0.465   3.162  0.6560  0.2597 -0.3349
17730TIP3    H274606   6.182   0.592   3.208  3.6343  1.5452  0.7906
17731TIP3   OH274607   4.812   1.409   6.203  0.1081  0.5578  0.4845
17731TIP3    H174608   4.739   1.361   6.164  0.6494 -0.4392  0.6725
17731TIP3    H274609   4.774   1.493   6.229 -0.8586  0.2336  0.1655
17732TIP3   OH274610   0.398   4.560   1.844 -0.0980  0.2315 -1.0430
17732TIP3    H174611   0.393   4.653   1.868 -0.6857  0.1688 -0.9037
17732TIP3    H274612   0.413   4.515   1.928  0.0597  0.1866 -1.0942
17733TIP3   OH274613   0.237   3.267   1.541  0.0431  0.1491  0.3357
17733TIP3    H174614   0.315   3.320   1.525  0.1149  0.2903  1.1014
17733TIP3    H274615   0.228   3.213   1.463  0.2132  0.9880 -0.2760
17734TIP3   OH274616   3.587   1.030   4.417 -0.3369 -0.5503  0.2726
17734TIP3    H174617   3.530   0.960   4.448 -0.4811 -1.1467 -1.2430
17734TIP3    H274618   3.529   1.092   4.373 -0.0465 -0.1548  0.4329
17735TIP3   OH274619   4.917   4.317   0.363 -0.7370 -0.0352 -0.4608
17735TIP3    H174620   4.933   4.365   0.445 -0.4880  1.0909 -1.1447
17735TIP3    H274621   5.003   4.283   0.339 -0.4568  1.0933 -1.1259
17736TIP3   OH274622   4.670   3.800   1.875  0.2689 -0.5355 -0.3049
17736TIP3    H174623   4.629   3.885   1.858  1.2193 -0.0554 -0.2452
17736TIP3    H274624   4.610   3.756   1.935 -0.3511 -0.0081 -0.5285
17737TIP3   OH274625   4.099   5.959  15.322 -0.1018  0.1595  0.4981
17737TIP3    H174626   4.092   6.001  15.407 -0.2349 -1.4062  1.2942
17737TIP3    H274627   4.192   5.965  15.300  0.2352 -0.8851  1.5484
17738TIP3   OH274628   5.976   5.055  12.486 -0.4413 -0.7730  0.0807
17738TIP3    H174629   5.951   5.039  12.577 -0.3866  0.1334  0.2622
17738TIP3    H274630   5.898   5.032  12.436 -0.8264 -0.3086  0.4477
17739TIP3   OH274631   3.134   0.949  16.004  0.2228 -0.1285 -0.0671
17739TIP3    H174632   3.177   0.873  16.044 -0.6327 -0.1267  0.8828
17739TIP3    H274633   3.199   1.019  16.011  0.3858 -0.3357  0.6199
17740TIP3   OH274634   0.690   6.784   1.115 -0.6938  0.5363 -0.5802
17740TIP3    H174635   0.624   6.810   1.180 -0.0462  2.3288 -0.5760
17740TIP3    H274636   0.773   6.794   1.161 -0.3690 -1.9989 -0.4830
17741TIP3   OH274637   0.890   6.515   3.703  0.2921 -0.0552 -0.2314
17741TIP3    H174638   0.810   6.486   3.659  0.1222 -0.4122  0.3061
17741TIP3    H274639   0.862   6.533   3.793  1.0197 -1.1675  0.2258
17742TIP3   OH274640   6.435   4.054   5.313  0.4075 -0.2002 -0.0739
17742TIP3    H174641   6.369   3.984   5.318  0.1041 -0.1189 -2.3098
17742TIP3    H274642   6.497   4.032   5.382  0.4211 -2.8071 -0.8091
17743TIP3   OH274643   5.690   1.732   3.577  0.2827 -0.6411 -0.3839
17743TIP3    H174644   5.752   1.660   3.580  0.0671 -0.8543 -0.9468
17743TIP3    H274645   5.706   1.774   3.493  0.5708  0.1182  0.0407
17744TIP3   OH274646   5.268   3.391  11.042 -0.0323  0.0469  0.0745
17744TIP3    H174647   5.239   3.425  10.958 -1.4595  1.4027  1.0714
17744TIP3    H274648   5.198   3.332  11.070 -0.0793  0.4189  0.7715
17745TIP3   OH274649   1.025   4.374  12.003  0.9054  0.3096  0.0835
17745TIP3    H174650   1.059   4.419  11.926 -0.1215  0.1673 -0.4744
17745TIP3    H274651   1.014   4.443  12.068  1.3604  0.5083 -0.0504
17746TIP3   OH274652   2.684   2.389   0.617 -0.5724  0.4568 -0.1666
17746TIP3    H174653   2.759   2.422   0.567  0.7601 -1.0196  0.7818
17746TIP3    H274654   2.721   2.327   0.679 -2.5061  0.2566  0.8768
17747TIP3   OH274655   6.593   1.876  13.930  0.9339 -0.3009  0.0775
17747TIP3    H174656   6.575   1.855  13.838 -0.1020  1.1736 -0.0964
17747TIP3    H274657   6.509   1.861  13.974  0.6660  1.5394  0.2721
17748TIP3   OH274658   1.329   6.136   0.081  0.7540 -0.1179 -0.6412
17748TIP3    H174659   1.269   6.077   0.035  0.5877  0.1734 -0.7978
17748TIP3    H274660   1.278   6.215   0.097  1.2526  0.3239 -1.2170
17749TIP3   OH274661   3.430   1.571   3.846 -0.6359  0.6764  0.4966
17749TIP3    H174662   3.348   1.593   3.801 -1.9656  1.1752  3.0131
17749TIP3    H274663   3.484   1.649   3.835 -1.2474  1.1045  0.4435
17750TIP3   OH274664   2.989   3.213  13.738 -0.2900  0.7744  0.9997
17750TIP3    H174665   3.082   3.201  13.719 -0.7402 -1.0160 -0.2933
17750TIP3    H274666   2.953   3.251  13.658 -1.0790 -0.8794  0.5288
17751TIP3   OH274667   1.865   4.119   5.927 -0.0160 -0.3788  0.2417
17751TIP3    H174668   1.808   4.150   5.857 -0.4164  1.5540  1.3489
17751TIP3    H274669   1.809   4.064   5.982  0.1564 -1.4334 -0.6069
17752TIP3   OH274670   6.677   3.253  16.598 -0.0464  0.2267 -0.0344
17752TIP3    H174671   6.725   3.189  16.650  0.5415  0.0688 -0.7564
17752TIP3    H274672   6.588   3.218  16.594  0.0282 -0.0257  0.4233
17753TIP3   OH274673   4.822   6.378   4.678  0.0579  0.0778 -0.1173
17753TIP3    H174674   4.775   6.298   4.654  0.7477 -0.9569  1.7788
17753TIP3    H274675   4.914   6.353   4.675  0.4023  1.3784 -1.3438
17754TIP3   OH274676   3.289   6.257   5.410 -0.3676 -0.3229 -0.2321
17754TIP3    H174677   3.291   6.198   5.335  4.4574 -2.9624  1.4804
17754TIP3    H274678   3.310   6.343   5.374  0.0675 -1.1624 -2.0938
17755TIP3   OH274679   6.040   6.290   0.251  0.0188 -0.4973  0.0824
17755TIP3    H174680   6.115   6.336   0.289 -1.0437 -0.5776  2.4869
17755TIP3    H274681   5.984   6.359   0.216  0.6238 -0.3434 -0.5866
17756TIP3   OH274682   4.220   4.938   4.761 -0.2066 -0.0909  0.1013
17756TIP3    H174683   4.137   4.929   4.715  0.3496  2.6168 -1.6664
17756TIP3    H274684   4.196   4.938   4.854 -2.2988  1.1637 -0.3696
17757TIP3   OH274685   2.414   2.528   2.101 -0.2169  0.3749 -0.0247
17757TIP3    H174686   2.415   2.622   2.083  0.7547  0.0176 -2.1396
17757TIP3    H274687   2.349   2.492   2.041 -1.7326 -0.1972  1.8267
17758TIP3   OH274688   3.973   0.929   4.726  0.6837  0.1931 -0.3049
17758TIP3    H174689   3.966   0.928   4.631 -1.0737  0.1577 -0.2082
17758TIP3    H274690   3.895   0.976   4.755  2.0062  1.6217  1.0730
17759TIP3   OH274691   3.700   5.920   4.126  0.0208 -0.5800  0.0876
17759TIP3    H174692   3.747   5.903   4.208 -1.5817  0.9896  1.4175
17759TIP3    H274693   3.763   5.968   4.072  1.1789 -1.8388  0.2467
17760TIP3   OH274694   1.361   5.764   6.497 -0.5750 -0.2031  0.1916
17760TIP3    H174695   1.417   5.701   6.451 -0.8297  0.1797 -0.6713
17760TIP3    H274696   1.275   5.723   6.497 -0.6902  0.0375 -0.1575
17761TIP3   OH274697   1.035   3.117   6.109  0.2145  0.5907 -0.8937
17761TIP3    H174698   1.100   3.102   6.178 -0.3741  2.7179  0.2324
17761TIP3    H274699   1.025   3.032   6.066  1.7056 -0.4474  0.6742
17762TIP3   OH274700   6.714   3.624   5.070  0.0006  0.0060 -0.3265
17762TIP3    H174701   6.785   3.650   5.010 -0.9671  2.6050 -0.4472
17762TIP3    H274702   6.661   3.703   5.080 -0.9082 -0.8700  2.5559
17763TIP3   OH274703   4.187   6.113  13.850 -0.5306  0.4438  0.5421
17763TIP3    H174704   4.230   6.046  13.904 -0.0179  0.4193  0.1088
17763TIP3    H274705   4.213   6.196  13.890 -1.1780  0.3944  1.0894
17764TIP3   OH274706   4.699   4.675  14.289 -0.4320 -0.0164 -0.2488
17764TIP3    H174707   4.766   4.743  14.287  0.2751 -0.6185  1.2873
17764TIP3    H274708   4.748   4.593  14.288 -1.1359 -0.4723  0.8396
17765TIP3   OH274709   4.767   3.768   0.675 -0.0789 -0.3058  0.2771
17765TIP3    H174710   4.859   3.747   0.695 -0.2933 -0.2017  1.4171
17765TIP3    H274711   4.716   3.712   0.733 -0.7626 -0.7643 -0.7450
17766TIP3   OH274712   6.700   0.721  11.812  0.3474  0.4814 -0.0324
17766TIP3    H174713   6.611   0.688  11.822 -0.0180  1.6802  0.9338
17766TIP3    H274714   6.727   0.693  11.724 -0.2987 -1.4228  0.3266
17767TIP3   OH274715   5.576   0.974   3.325 -0.1660 -0.3903  0.5025
17767TIP3    H174716   5.573   0.931   3.240  0.1123 -0.3196  0.4590
17767TIP3    H274717   5.653   1.030   3.322  0.6080 -1.3771  1.2795
17768TIP3   OH274718   2.107   2.307  14.453 -0.3304  0.4231  0.0919
17768TIP3    H174719   2.123   2.401  14.456  0.1339  0.3964 -0.9317
17768TIP3    H274720   2.011   2.299  14.455 -0.3993  0.9711 -0.6316
17769TIP3   OH274721   5.926   4.846   0.301 -0.0370 -0.5724 -0.5205
17769TIP3    H174722   5.875   4.764   0.303 -2.2864  0.6821 -2.2374
17769TIP3    H274723   6.004   4.824   0.250  0.0033 -1.9333  0.0799
17770TIP3   OH274724   2.129   4.944  15.846  0.4271  0.8150  0.0141
17770TIP3    H174725   2.142   4.905  15.933 -2.1753  1.6791  0.9088
17770TIP3    H274726   2.181   5.024  15.848  0.6615  0.6571  0.6606
17771TIP3   OH274727   1.633   1.683   1.866 -0.2355  0.1204  0.3168
17771TIP3    H174728   1.596   1.618   1.927  0.0518 -0.2235  0.1331
17771TIP3    H274729   1.582   1.673   1.786  1.9963 -2.3651 -0.9451
17772TIP3   OH274730   1.252   6.322  14.399 -0.1741  0.4635  0.3688
17772TIP3    H174731   1.295   6.291  14.479 -0.3526 -0.1406  0.2368
17772TIP3    H274732   1.175   6.267  14.391  0.2930 -0.0600 -0.6763
17773TIP3   OH274733   4.845   4.447  11.693 -0.7692 -0.4426  0.4329
17773TIP3    H174734   4.826   4.359  11.725 -0.2545 -0.7709 -0.1248
17773TIP3    H274735   4.851   4.437  11.598  0.6514 -0.0952  0.4601
17774TIP3   OH274736   6.237   3.544  13.550  0.0412 -0.7615  0.0957
17774TIP3    H174737   6.256   3.488  13.474 -2.0437  0.5931 -1.5365
17774TIP3    H274738   6.262   3.632  13.521 -2.4676  0.0575  0.2360
17775TIP3   OH274739   0.750   6.240   3.429 -0.0404 -0.3198  0.0399
17775TIP3    H174740   0.755   6.219   3.523 -0.0814 -1.2010 -0.1509
17775TIP3    H274741   0.761   6.156   3.385  0.5800  0.1711 -0.7652
17776TIP3   OH274742   0.769   1.194  13.653 -0.2092 -0.2656 -0.6446
17776TIP3    H174743   0.749   1.101  13.661 -2.5247  0.1110 -1.3805
17776TIP3    H274744   0.748   1.216  13.563  2.6800  0.5147 -1.2370
17777TIP3   OH274745   1.550   4.454   3.750  0.1510 -0.8786  0.4260
17777TIP3    H174746   1.541   4.501   3.668 -0.4258 -1.2667  0.2653
17777TIP3    H274747   1.645   4.449   3.764  0.2308 -0.0767  0.2190
17778TIP3   OH274748   3.630   4.977   3.126  0.1031 -0.2221 -0.6917
17778TIP3    H174749   3.586   4.949   3.206  1.2784  1.3272  0.5420
17778TIP3    H274750   3.573   5.044   3.089 -0.7940 -1.4232 -1.5992
17779TIP3   OH274751   0.278   3.178  13.681 -0.1697 -0.3233 -0.2354
17779TIP3    H174752   0.365   3.161  13.644  0.5912  2.6740 -0.1581
17779TIP3    H274753   0.292   3.176  13.776 -0.0721  0.4834 -0.2250
17780TIP3   OH274754   3.487   0.217   5.840  0.2004 -0.6154  0.0830
17780TIP3    H174755   3.475   0.142   5.782  1.5550 -0.9439  0.1922
17780TIP3    H274756   3.450   0.189   5.923 -0.3924 -0.7000 -0.2042
17781TIP3   OH274757   2.732   6.439  11.276  0.2438  0.5080  0.2251
17781TIP3    H174758   2.686   6.396  11.348  1.0234  1.0601  1.0659
17781TIP3    H274759   2.822   6.409  11.284  0.1575 -0.2176 -1.1432
17782TIP3   OH274760   3.845   2.084   5.381  0.1421  0.1362 -0.5016
17782TIP3    H174761   3.878   1.994   5.393  0.8072 -0.0072 -2.8520
17782TIP3    H274762   3.757   2.082   5.419  0.8647 -0.9194  1.2872
17783TIP3   OH274763   0.947   3.961  16.425 -0.2768  0.0984 -0.1667
17783TIP3    H174764   0.869   3.950  16.369  1.6506  0.0133 -3.0485
17783TIP3    H274765   0.951   4.055  16.442 -1.1169  0.0777  0.2023
17784TIP3   OH274766   2.681   3.243  16.899  0.4323 -0.0972 -0.1857
17784TIP3    H174767   2.661   3.306  16.968 -1.9676 -0.0185 -0.8372
17784TIP3    H274768   2.749   3.285  16.846 -0.0683  1.3010  0.2505
17785TIP3   OH274769   5.889   5.263  13.134 -0.1519 -0.4499 -0.4033
17785TIP3    H174770   5.849   5.331  13.188  0.0837  0.2559 -1.0977
17785TIP3    H274771   5.816   5.225  13.085 -0.3468 -1.0087  0.3068
17786TIP3   OH274772   3.577   3.142   1.435 -0.2362 -0.3756  0.1802
17786TIP3    H174773   3.589   3.220   1.381 -0.5560  0.8613  1.8123
17786TIP3    H274774   3.605   3.168   1.522 -1.3292 -1.7640  0.9999
17787TIP3   OH274775   2.953   1.301   2.027  0.2363  0.0051 -0.5299
17787TIP3    H174776   2.934   1.300   2.121 -0.2664 -3.1171 -0.5688
17787TIP3    H274777   3.047   1.289   2.021  0.1519 -0.8008 -0.3931
17788TIP3   OH274778   4.702   4.217   4.358  0.3611 -0.2270 -0.1277
17788TIP3    H174779   4.721   4.277   4.430 -0.1964 -1.0928  0.7786
17788TIP3    H274780   4.783   4.169   4.344  0.7856  0.6809 -0.8058
17789TIP3   OH274781   6.375   6.019  15.525 -0.2068 -0.4876 -0.5482
17789TIP3    H174782   6.318   6.001  15.450 -0.2686 -0.6191 -0.4710
17789TIP3    H274783   6.330   5.979  15.600  0.8477 -2.1844 -0.7625
17790TIP3   OH274784   5.702   3.151  12.080 -0.0673 -0.0600  0.1996
17790TIP3    H174785   5.775   3.114  12.131 -1.2113 -0.7962  1.3703
17790TIP3    H274786   5.743   3.186  12.001  1.3732 -1.7638  0.1436
17791TIP3   OH274787   3.602   6.607   5.449 -0.5777  0.2874 -0.1292
17791TIP3    H174788   3.650   6.541   5.398 -0.8949  1.2153 -1.7001
17791TIP3    H274789   3.584   6.564   5.532  3.6637  0.1287  0.9738
17792TIP3   OH274790   2.870   4.999   4.851  0.3013 -0.4097  0.1765
17792TIP3    H174791   2.940   4.971   4.792 -0.6351 -2.1450 -0.1824
17792TIP3    H274792   2.903   4.979   4.939  0.9258  0.4137  0.1475
17793TIP3   OH274793   5.377   4.618   2.225  0.4947  0.0565 -0.0257
17793TIP3    H174794   5.452   4.675   2.205 -1.2325  1.6476 -2.7056
17793TIP3    H274795   5.318   4.674   2.275  0.8592 -1.0695  1.7410
17794TIP3   OH274796   1.834   5.007   4.190 -0.2186  0.6434 -0.7004
17794TIP3    H174797   1.841   5.053   4.274  0.9336 -1.0183  0.1637
17794TIP3    H274798   1.759   4.949   4.201  1.4865 -1.5385  0.2699
17795TIP3   OH274799   4.095   2.214  16.714  0.4809  0.2201  0.1096
17795TIP3    H174800   4.187   2.190  16.715  0.4997  0.1818 -1.1708
17795TIP3    H274801   4.087   2.278  16.643 -0.4441  0.3493  0.3111
17796TIP3   OH274802   2.648   5.448   0.211 -0.1292  0.2334  0.8142
17796TIP3    H174803   2.641   5.512   0.141  1.9194  1.5085  1.6846
17796TIP3    H274804   2.664   5.365   0.166 -1.4725  0.5136 -0.2704
17797TIP3   OH274805   4.121   5.818   3.108  0.5985 -0.3293 -0.1368
17797TIP3    H174806   4.111   5.788   3.018 -1.2914  0.2431 -0.1700
17797TIP3    H274807   4.178   5.894   3.102  1.8044 -1.2352 -0.6108
17798TIP3   OH274808   4.235   5.405  11.153 -0.0402 -0.2901 -0.0402
17798TIP3    H174809   4.156   5.400  11.206  0.9869 -0.9658  1.4889
17798TIP3    H274810   4.236   5.323  11.103  1.0204 -1.5928  1.9753
17799TIP3   OH274811   0.049   4.667   4.511 -0.1858 -0.2565 -0.4266
17799TIP3    H174812  -0.017   4.612   4.553 -0.0393 -0.3564 -0.3222
17799TIP3    H274813   0.094   4.608   4.450 -0.5227 -0.0629 -0.8567
17800TIP3   OH274814   2.203   4.806   4.783 -0.5227 -0.2521 -0.3482
17800TIP3    H174815   2.231   4.831   4.695  1.4803 -1.5039 -0.1364
17800TIP3    H274816   2.258   4.857   4.842 -0.0716 -1.2520  0.1289
17801TIP3   OH274817   2.914   3.287   2.141 -0.4447 -0.2311 -0.0600
17801TIP3    H174818   2.878   3.210   2.185 -0.9770  0.0009 -0.0937
17801TIP3    H274819   2.961   3.334   2.210  0.8884 -1.1745 -0.2653
17802TIP3   OH274820   5.671   4.621  10.920 -0.0254  0.0157 -0.7723
17802TIP3    H174821   5.693   4.696  10.866 -2.0391  0.5602 -0.9378
17802TIP3    H274822   5.581   4.639  10.950  0.6308 -0.7437  1.9142
17803TIP3   OH274823   0.658   3.305  10.301 -0.1465  0.1528  0.2091
17803TIP3    H174824   0.573   3.294  10.345 -0.9577  1.4113 -0.9525
17803TIP3    H274825   0.719   3.328  10.371 -0.5538 -1.5845  1.1831
17804TIP3   OH274826   2.616   2.624  12.669 -0.1222 -0.8020 -0.2088
17804TIP3    H174827   2.587   2.715  12.672 -0.2489 -0.8661  1.0887
17804TIP3    H274828   2.669   2.618  12.589  2.0648  1.0789  0.9788
17805TIP3   OH274829   1.469   6.361   4.655 -0.3984 -0.0296 -0.1009
17805TIP3    H174830   1.375   6.361   4.675 -0.5556 -0.5977 -0.8230
17805TIP3    H274831   1.474   6.378   4.561  0.2842  1.3532  0.1514
17806TIP3   OH274832   6.651   2.958  13.648  0.0916 -0.4180 -0.7024
17806TIP3    H174833   6.685   3.037  13.692 -0.6300 -0.5079  0.0508
17806TIP3    H274834   6.557   2.960  13.666  0.1173 -1.6433 -0.3494
17807TIP3   OH274835   2.958   4.152  13.260 -0.0006  0.1891 -0.0993
17807TIP3    H174836   2.953   4.187  13.349 -2.3177  0.3477 -0.2251
17807TIP3    H274837   2.936   4.227  13.204  1.0973  0.0029 -0.7929
17808TIP3   OH274838   2.436   6.598  12.228  0.0944 -0.2049  0.2256
17808TIP3    H174839   2.419   6.691  12.241  1.9325  0.1922  0.0748
17808TIP3    H274840   2.353   6.562  12.197 -0.2300  1.6854 -1.2346
17809TIP3   OH274841   3.623   2.173  11.941  0.3313  0.4993  0.0594
17809TIP3    H174842   3.528   2.188  11.932  0.8450  4.0355 -1.2092
17809TIP3    H274843   3.657   2.186  11.853  1.8698 -3.3559 -0.0900
17810TIP3   OH274844   5.417   5.113   5.857 -0.2775 -0.2828  0.1810
17810TIP3    H174845   5.339   5.162   5.832 -0.4197  1.3903  3.3489
17810TIP3    H274846   5.485   5.179   5.866  0.9281 -1.4105 -0.2713
17811TIP3   OH274847   6.613   3.516  16.346  0.2006  0.1026 -0.4033
17811TIP3    H174848   6.634   3.562  16.265  0.1556 -1.0902 -1.1262
17811TIP3    H274849   6.625   3.423  16.324 -1.4964 -0.3579  0.4286
17812TIP3   OH274850   4.333   3.542   2.912 -0.5642  0.0791  0.1734
17812TIP3    H174851   4.340   3.638   2.905  0.1284  0.1090  1.0686
17812TIP3    H274852   4.410   3.509   2.866  0.8116  0.0822  2.3468
17813TIP3   OH274853   5.760   5.791   0.053 -0.0511  0.2565 -0.2514
17813TIP3    H174854   5.795   5.817  -0.031 -0.4630  1.1241 -0.1682
17813TIP3    H274855   5.834   5.799   0.114  0.0830  0.2591 -0.4149
17814TIP3   OH274856   5.108   5.859   0.957  0.0932  0.1628  0.5998
17814TIP3    H174857   5.159   5.892   1.031  1.6619  1.3674 -0.9368
17814TIP3    H274858   5.032   5.918   0.953 -0.1876 -0.1220  1.4217
17815TIP3   OH274859   4.512   3.165   4.117 -0.3136  1.1940  0.0563
17815TIP3    H174860   4.504   3.070   4.123 -0.8856  1.2620  0.4069
17815TIP3    H274861   4.603   3.183   4.140 -0.1689  0.7244 -0.1397
17816TIP3   OH274862   4.630   6.206   6.347  0.7262  0.0681  0.4039
17816TIP3    H174863   4.721   6.235   6.358  0.8636 -0.2346  0.0790
17816TIP3    H274864   4.628   6.118   6.385  0.8110 -0.3203 -0.4759
17817TIP3   OH274865   2.804   1.459   2.906 -0.4330 -0.4269 -0.2780
17817TIP3    H174866   2.809   1.552   2.926 -1.6139 -0.2712 -0.5903
17817TIP3    H274867   2.792   1.417   2.992 -0.4269 -0.2331 -0.1823
17818TIP3   OH274868   3.422   3.927  15.172 -0.2267  0.2793 -0.5002
17818TIP3    H174869   3.481   3.999  15.152  0.3743  0.4824  1.7121
17818TIP3    H274870   3.412   3.880  15.090  2.1651  0.8702 -1.1945
17819TIP3   OH274871   1.514   2.538   1.816  0.3602 -0.4862  0.2017
17819TIP3    H174872   1.493   2.473   1.749 -2.5315  0.6982 -0.1877
17819TIP3    H274873   1.500   2.622   1.774  1.7860  0.3941  1.3631
17820TIP3   OH274874   1.225   0.743   3.603  0.2861 -0.1311  0.0814
17820TIP3    H174875   1.258   0.655   3.617 -2.0095 -0.9540  0.8295
17820TIP3    H274876   1.221   0.782   3.691  2.8925  1.4206 -0.3937
17821TIP3   OH274877   0.780   5.519  15.975  0.2048 -0.0355  0.2076
17821TIP3    H174878   0.689   5.533  16.002  0.6763  2.1019  0.9331
17821TIP3    H274879   0.781   5.538  15.882 -0.0690  0.1323  0.2380
17822TIP3   OH274880   6.013   3.292   4.775 -0.0643  0.3813  0.0783
17822TIP3    H174881   6.044   3.206   4.803  0.5492  0.7327  0.5140
17822TIP3    H274882   5.989   3.280   4.683  1.1462  0.0237 -0.2110
17823TIP3   OH274883   5.956   6.554  13.146  0.0737 -0.1731 -0.6345
17823TIP3    H174884   6.049   6.564  13.168 -0.5031  0.8399  1.6572
17823TIP3    H274885   5.938   6.462  13.165 -0.0827  0.3616  2.2203
17824TIP3   OH274886   0.790   2.860   2.513 -0.0467  0.0162  0.7791
17824TIP3    H174887   0.765   2.807   2.589 -0.0993 -0.9421  0.1071
17824TIP3    H274888   0.712   2.861   2.458  0.6131 -1.0070 -0.2146
17825TIP3   OH274889   3.937   1.779  14.373  0.3373  0.0306  0.5086
17825TIP3    H174890   3.997   1.748  14.305 -0.2563 -1.8282  0.7834
17825TIP3    H274891   3.901   1.860  14.338  0.2466 -0.7434 -1.2927
17826TIP3   OH274892   1.172   4.572  10.365  0.2712 -0.2363 -0.5371
17826TIP3    H174893   1.106   4.557  10.433  1.7880 -0.5549  0.9324
17826TIP3    H274894   1.143   4.517  10.292 -0.5324 -1.1772  0.4474
17827TIP3   OH274895   0.638   3.760  11.875  0.9679 -0.7275  0.4983
17827TIP3    H174896   0.717   3.764  11.821  0.5255  2.0430 -0.1000
17827TIP3    H274897   0.566   3.759  11.811  0.4552 -2.3601  1.0496
17828TIP3   OH274898   4.819   0.997  11.825 -0.1499  0.5047 -0.0693
17828TIP3    H174899   4.867   0.916  11.811  0.0341  0.6968 -0.5454
17828TIP3    H274900   4.727   0.973  11.810 -0.1818  0.1956  0.6048
17829TIP3   OH274901   0.483   6.790  16.772 -0.0266 -0.5807 -0.0185
17829TIP3    H174902   0.414   6.856  16.785  0.0983 -0.6592  1.1657
17829TIP3    H274903   0.475   6.765  16.680 -2.6569 -1.7310  0.4152
17830TIP3   OH274904   2.846   4.211  12.344 -0.0270 -0.0900  0.2110
17830TIP3    H174905   2.762   4.170  12.365 -0.1617  0.4468  0.7642
17830TIP3    H274906   2.901   4.140  12.311 -0.3022 -0.6829  1.0093
17831TIP3   OH274907   4.482   2.583   0.173  0.1162  0.5727  0.2008
17831TIP3    H174908   4.535   2.647   0.221 -0.2151  1.6599 -0.8358
17831TIP3    H274909   4.532   2.567   0.093 -0.6337  0.8683 -0.3377
17832TIP3   OH274910   5.682   1.326   0.427  0.1061 -0.4189  0.4939
17832TIP3    H174911   5.671   1.417   0.454 -1.8833 -0.5953  0.4142
17832TIP3    H274912   5.706   1.331   0.334  0.1357  0.0280  0.5249
17833TIP3   OH274913   3.187   2.688  11.482  0.0703 -0.1824  0.4949
17833TIP3    H174914   3.171   2.755  11.416  1.4838 -1.2258 -0.9671
17833TIP3    H274915   3.160   2.729  11.564  0.6112  2.0767 -0.3734
17834TIP3   OH274916   0.045   3.451  11.019  0.2334  0.3386  0.8744
17834TIP3    H174917   0.109   3.518  11.042  0.3658  0.4016  0.3471
17834TIP3    H274918  -0.038   3.499  11.012  0.5091  0.6546 -0.5276
17835TIP3   OH274919   0.068   5.846  13.282  0.0722 -0.1378 -0.2120
17835TIP3    H174920   0.002   5.791  13.324  1.3220 -2.3579 -0.9989
17835TIP3    H274921   0.115   5.787  13.223  0.5197  2.1296 -2.2988
17836TIP3   OH274922   6.028   4.151   4.809 -0.2462 -0.5650  0.3504
17836TIP3    H174923   6.017   4.245   4.826  1.9322 -0.2379  0.3120
17836TIP3    H274924   6.041   4.113   4.896 -0.2788 -0.7020  0.2946
17837TIP3   OH274925   4.191   4.585   4.206  0.0756  0.1616 -0.3900
17837TIP3    H174926   4.215   4.494   4.226 -0.0046  0.2399  0.0673
17837TIP3    H274927   4.096   4.583   4.201  0.0800  0.2000 -0.4790
17838TIP3   OH274928   0.842   6.606   2.233  0.0611  0.0535  0.0126
17838TIP3    H174929   0.866   6.618   2.141  2.3331 -0.5234  0.4834
17838TIP3    H274930   0.902   6.539   2.266  0.3099  1.3074  2.3126
17839TIP3   OH274931   4.765   6.325   4.359  0.4630  0.0738 -0.2233
17839TIP3    H174932   4.733   6.259   4.298  0.2528 -0.4403  0.4374
17839TIP3    H274933   4.847   6.290   4.393 -0.0789 -0.2569  0.7768
17840TIP3   OH274934   4.057   2.014  13.297 -0.4800 -0.3924  0.3864
17840TIP3    H174935   3.976   1.966  13.281 -0.9706  0.7939 -0.8400
17840TIP3    H274936   4.057   2.030  13.392 -1.6301 -0.4849  0.4134
17841TIP3   OH274937   2.424   5.701   3.110 -0.2720  0.2742 -0.1777
17841TIP3    H174938   2.497   5.700   3.172 -0.3095  1.0817 -0.1148
17841TIP3    H274939   2.365   5.768   3.143 -0.5671  0.3173 -0.7780
17842TIP3   OH274940   6.699   0.735   5.375  0.2453  0.5905 -0.0152
17842TIP3    H174941   6.728   0.724   5.465  0.7202  0.1810 -0.2113
17842TIP3    H274942   6.779   0.751   5.325  0.1436 -0.4720 -0.5545
17843TIP3   OH274943   5.738   3.092  13.275 -0.4514  0.6090  0.4328
17843TIP3    H174944   5.700   3.135  13.352 -0.7212 -0.9461  1.2106
17843TIP3    H274945   5.740   2.999  13.298 -1.0258  0.0229 -1.6320
17844TIP3   OH274946   1.888   5.743  14.769 -0.5962 -0.3094  0.1566
17844TIP3    H174947   1.905   5.804  14.840 -1.2327  1.0243 -0.8050
17844TIP3    H274948   1.830   5.677  14.809  0.2025 -0.3876  1.2394
17845TIP3   OH274949   5.845   3.560   2.830  0.1916 -0.5202  0.4035
17845TIP3    H174950   5.893   3.624   2.778  0.6090  1.2344  2.7763
17845TIP3    H274951   5.887   3.563   2.917 -1.6486 -1.8729  1.4106
17846TIP3   OH274952   1.765   1.926   3.333 -0.2738  0.0925  0.8915
17846TIP3    H174953   1.780   1.935   3.238 -0.3776 -0.0757  0.8600
17846TIP3    H274954   1.725   1.840   3.343  0.8640 -0.4164  1.2116
17847TIP3   OH274955   4.896   1.871  10.878  0.0973  0.8409  0.2634
17847TIP3    H174956   4.899   1.823  10.961  1.1992 -0.3141 -0.4110
17847TIP3    H274957   4.982   1.911  10.870  0.5925 -0.4093 -1.0674
17848TIP3   OH274958   3.353   0.006   5.724 -0.3682  0.4285 -0.7500
17848TIP3    H174959   3.279   0.025   5.667 -1.4726 -0.4220  0.3467
17848TIP3    H274960   3.314  -0.034   5.802  1.4356 -2.6458 -1.2741
17849TIP3   OH274961   5.715   0.140  10.910 -0.1586 -0.1283  0.0947
17849TIP3    H174962   5.666   0.059  10.895  1.2924 -1.0369  0.0965
17849TIP3    H274963   5.691   0.196  10.837 -3.1251  0.4661  1.3876
17850TIP3   OH274964   0.945   4.500  10.802  0.1022 -0.1957  0.2734
17850TIP3    H174965   0.856   4.531  10.783  0.0063 -1.3364 -1.3357
17850TIP3    H274966   0.980   4.477  10.717  1.2977 -1.4960  1.0913
17851TIP3   OH274967   6.094   5.044  11.807 -0.2633  0.6071  0.1898
17851TIP3    H174968   6.040   5.118  11.779 -1.7029 -0.5306 -0.1616
17851TIP3    H274969   6.048   5.008  11.882  2.0817  1.9052  2.3742
17852TIP3   OH274970   3.665   3.774   5.594  0.8240  0.0033  0.2445
17852TIP3    H174971   3.742   3.741   5.639 -0.3490 -1.3133  1.3796
17852TIP3    H274972   3.624   3.696   5.556 -0.6958  0.4457  0.8940
17853TIP3   OH274973   0.184   4.614   3.458  0.6546  0.2078  0.3222
17853TIP3    H174974   0.259   4.675   3.463  0.5189  0.2896  2.0953
17853TIP3    H274975   0.161   4.598   3.549  1.8479 -3.9877  0.0970
17854TIP3   OH274976   2.833   4.836  13.825 -0.0487  0.0362  0.1668
17854TIP3    H174977   2.797   4.875  13.905  2.5575  1.5625  0.7210
17854TIP3    H274978   2.849   4.744  13.848  0.8967  0.5130  1.5427
17855TIP3   OH274979   2.839   1.319   2.677  0.1020 -0.3815  0.0437
17855TIP3    H174980   2.814   1.377   2.748 -0.3972 -0.1155 -0.3363
17855TIP3    H274981   2.764   1.322   2.617  0.9296  0.2065 -0.9922
17856TIP3   OH274982   0.004   2.249   3.520 -0.3681 -0.2266 -0.0008
17856TIP3    H174983  -0.052   2.174   3.503 -0.5162 -0.1104 -0.0279
17856TIP3    H274984  -0.009   2.270   3.612  0.3583 -0.7920  0.2342
17857TIP3   OH274985   1.337   5.942   4.326 -0.1582 -0.0352  0.3925
17857TIP3    H174986   1.309   6.034   4.325  0.0271  0.0350 -0.9335
17857TIP3    H274987   1.369   5.927   4.415  0.8839  1.5153  0.3229
17858TIP3   OH274988   4.247   4.707  13.595  0.0994 -0.5822  0.6933
17858TIP3    H174989   4.171   4.758  13.568  0.9483  1.3214  1.7048
17858TIP3    H274990   4.285   4.675  13.512 -2.1209 -2.2188  0.2024
17859TIP3   OH274991   0.286   1.905  13.550 -0.2749  0.4077  0.2182
17859TIP3    H174992   0.332   1.967  13.607 -0.8727  1.1479 -0.0942
17859TIP3    H274993   0.250   1.959  13.480 -0.3289 -0.3744 -0.3705
17860TIP3   OH274994   2.976   0.104   3.605  0.5176  0.2826  0.2804
17860TIP3    H174995   3.005   0.195   3.597  1.6763 -0.0921  0.1125
17860TIP3    H274996   2.979   0.086   3.699 -2.4685  1.2625  0.6706
17861TIP3   OH274997   3.959   5.254  16.123  0.0302 -0.0420 -0.0825
17861TIP3    H174998   3.946   5.230  16.031 -1.0899  0.2427 -0.0079
17861TIP3    H274999   3.910   5.188  16.172  0.4851 -0.0911  0.3174
17862TIP3   OH275000   4.293   1.591   2.677 -0.8000 -0.3399 -0.2170
17862TIP3    H175001   4.367   1.646   2.703 -0.0066 -1.6411  0.3771
17862TIP3    H275002   4.311   1.569   2.586  0.1012 -1.4483  0.1978
17863TIP3   OH275003   3.429   1.076  10.434  0.1342  0.0746  0.0968
17863TIP3    H175004   3.441   0.987  10.399 -1.9513  0.5816 -2.2185
17863TIP3    H275005   3.376   1.121  10.368  2.5630  3.6502  0.2878
17864TIP3   OH275006   4.571   5.153   0.148 -0.6575 -0.6966  0.0475
17864TIP3    H175007   4.502   5.218   0.160 -0.6631 -0.5237 -0.8565
17864TIP3    H275008   4.546   5.081   0.206 -0.2636  0.3900  1.6073
17865TIP3   OH275009   5.916   4.642   1.052  0.5234  0.3270 -0.4061
17865TIP3    H175010   5.883   4.719   1.100  0.5160 -0.2191  0.4935
17865TIP3    H275011   6.002   4.625   1.090  0.2878 -0.4419 -0.2030
17866TIP3   OH275012   2.512   0.996  13.828  0.5174 -0.2564 -0.1438
17866TIP3    H175013   2.460   1.060  13.780 -0.9379  0.4157  2.1781
17866TIP3    H275014   2.451   0.960  13.893  2.8531  0.4363  2.6055
17867TIP3   OH275015   3.960   5.626  14.385  0.6816  0.1579 -0.3219
17867TIP3    H175016   3.931   5.570  14.312  0.7363  0.8255 -0.8628
17867TIP3    H275017   3.879   5.664  14.419  0.6435 -0.2577  0.0529
17868TIP3   OH275018   6.413   0.866  16.214  0.0632 -0.2731  0.2302
17868TIP3    H175019   6.477   0.802  16.183  0.2915  0.5615 -1.0853
17868TIP3    H275020   6.464   0.946  16.230 -0.5633  0.2600 -0.3683
17869TIP3   OH275021   4.172   5.331  14.964 -0.4098  0.0789 -0.1841
17869TIP3    H175022   4.147   5.286  15.045  1.1761 -2.5146 -0.9999
17869TIP3    H275023   4.262   5.359  14.980 -1.1822  2.5965  0.0849
17870TIP3   OH275024   0.698   4.623   4.245 -0.3465 -0.4176 -0.2975
17870TIP3    H175025   0.684   4.686   4.316  2.1828 -1.0342  0.8494
17870TIP3    H275026   0.692   4.537   4.287  0.6313 -0.8113 -0.9416
17871TIP3   OH275027   0.229   2.416  11.802 -0.1530 -0.2403 -0.2096
17871TIP3    H175028   0.259   2.325  11.806 -1.4963 -0.6914  2.0595
17871TIP3    H275029   0.290   2.464  11.857  0.0333  0.0467 -0.6696
17872TIP3   OH275030   4.750   2.653   3.502  0.5482  0.2651  0.0463
17872TIP3    H175031   4.758   2.715   3.430  0.7145 -0.4287 -0.5541
17872TIP3    H275032   4.827   2.597   3.493  0.8938  0.5411  1.1411
17873TIP3   OH275033   5.302   3.982   1.400 -0.7186  0.2293 -0.0507
17873TIP3    H175034   5.241   3.967   1.328  0.6082 -0.9467 -0.9643
17873TIP3    H275035   5.368   4.041   1.363  0.7357 -1.4854 -0.2838
17874TIP3   OH275036   3.973   3.393   3.227 -0.0585 -0.4459 -0.2610
17874TIP3    H175037   3.956   3.327   3.294  3.2890 -1.9913 -0.7010
17874TIP3    H275038   3.990   3.473   3.276  3.4250 -1.7888  1.0428
17875TIP3   OH275039   2.625   4.045   2.008 -0.3474 -0.2640 -0.4424
17875TIP3    H175040   2.685   4.028   2.081 -0.6064  1.1585  0.1233
17875TIP3    H275041   2.539   4.021   2.041 -0.3990 -0.0975 -0.4555
17876TIP3   OH275042   6.290   1.075  16.740 -0.1230 -0.3532 -0.1303
17876TIP3    H175043   6.358   1.036  16.686  0.4856  0.6171 -0.0837
17876TIP3    H275044   6.327   1.075  16.829 -0.4554 -0.4444  0.0101
17877TIP3   OH275045   4.006   4.738   1.050  0.1608  0.1663  0.0361
17877TIP3    H175046   4.001   4.833   1.037  0.8162  0.2197  0.1461
17877TIP3    H275047   4.087   4.725   1.100  0.6328 -0.5468 -0.8904
17878TIP3   OH275048   2.331   2.151  16.764 -0.8203 -0.7602  0.1711
17878TIP3    H175049   2.401   2.141  16.699 -0.8795 -0.0519 -0.0010
17878TIP3    H275050   2.281   2.227  16.735 -2.2542 -1.8115 -0.2401
17879TIP3   OH275051   0.872   5.089   0.825 -0.5769 -0.1415 -0.7527
17879TIP3    H175052   0.866   5.180   0.856 -0.7438  0.2179 -1.8062
17879TIP3    H275053   0.917   5.095   0.741  0.6432 -1.1958 -0.1988
17880TIP3   OH275054   4.401   6.269   3.818 -0.4466  0.1795 -0.1152
17880TIP3    H175055   4.401   6.361   3.792 -0.7388  0.4840  0.8917
17880TIP3    H275056   4.493   6.243   3.812 -0.4455  0.3440 -1.0091
17881TIP3   OH275057   0.984   3.033   4.924 -0.1329 -0.0399 -0.5753
17881TIP3    H175058   0.980   2.942   4.953 -0.5181 -0.2609 -1.3002
17881TIP3    H275059   1.078   3.053   4.921 -0.0510  0.5378  2.3950
17882TIP3   OH275060   6.678   1.759   1.163  0.6159 -0.0609  0.1262
17882TIP3    H175061   6.584   1.776   1.162  0.9660  2.7087 -3.4152
17882TIP3    H275062   6.717   1.839   1.197  1.7560  0.8925 -3.0438
17883TIP3   OH275063   5.215   2.549  12.226  0.4225  0.1268  0.2814
17883TIP3    H175064   5.280   2.478  12.227 -1.6534 -1.9019 -0.0227
17883TIP3    H275065   5.203   2.569  12.133  1.4228  1.3449  0.3921
17884TIP3   OH275066   6.747   4.520   0.903 -0.3890 -0.1181  0.4321
17884TIP3    H175067   6.793   4.604   0.899  1.7288 -1.2027  0.5776
17884TIP3    H275068   6.776   4.481   0.986 -0.7190 -1.3051  0.0037
17885TIP3   OH275069   0.215   5.790   3.213  0.4283 -0.0033  0.1098
17885TIP3    H175070   0.307   5.803   3.238  0.5425 -0.6027  0.0146
17885TIP3    H275071   0.208   5.695   3.197 -0.5035 -0.1736  1.3670
17886TIP3   OH275072   3.050   0.836  12.569  0.2414  0.8100 -0.1124
17886TIP3    H175073   3.072   0.900  12.636  0.1944 -0.7935  1.5114
17886TIP3    H275074   3.057   0.751  12.613 -1.1528 -0.2409 -1.7619
17887TIP3   OH275075   2.239   0.236  16.941  0.5968 -0.0443 -0.0076
17887TIP3    H175076   2.186   0.308  16.975  0.9987 -0.2885  1.1752
17887TIP3    H275077   2.242   0.172  17.012  2.1234 -0.2217 -0.1954
17888TIP3   OH275078   2.631   0.651  16.101 -0.1317 -0.1953 -0.2938
17888TIP3    H175079   2.677   0.697  16.031  2.1309  0.3236  1.4019
17888TIP3    H275080   2.640   0.558  16.079 -2.1965 -0.0078 -2.2338
17889TIP3   OH275081   6.657   2.722   1.695  0.2576 -0.0570  0.0384
17889TIP3    H175082   6.628   2.706   1.605 -2.8707  1.3695  0.6585
17889TIP3    H275083   6.665   2.817   1.701  0.4735 -0.1380  1.2581
17890TIP3   OH275084   2.057   1.786   2.286 -0.1384 -0.1425 -0.5851
17890TIP3    H175085   1.985   1.812   2.229 -1.1722 -0.7248  0.4274
17890TIP3    H275086   2.024   1.711   2.336  0.2695  1.0753  1.6658
17891TIP3   OH275087   1.068   3.384   0.005  0.9696  0.1781 -0.1134
17891TIP3    H175088   1.094   3.321   0.072 -0.4652  0.8634  1.1784
17891TIP3    H275089   1.126   3.459   0.019  0.3709  0.5055  0.7196
17892TIP3   OH275090   6.390   6.101   6.538 -1.1758 -0.1431  0.0297
17892TIP3    H175091   6.448   6.077   6.465  1.8248  0.0829  2.1516
17892TIP3    H275092   6.399   6.029   6.600 -0.3856  1.4804  1.8869
17893TIP3   OH275093   4.943   5.338   1.490  0.1511 -0.4129  0.0754
17893TIP3    H175094   4.881   5.407   1.464  2.6255  2.4214  1.0571
17893TIP3    H275095   4.944   5.342   1.585  0.7475 -1.4742  0.1205
17894TIP3   OH275096   4.883   2.108  14.960 -0.6124 -0.4698  0.3802
17894TIP3    H175097   4.908   2.116  15.052 -1.0087 -0.2172  0.4676
17894TIP3    H275098   4.941   2.168  14.914 -2.8377  2.2637  0.9024
17895TIP3   OH275099   6.807   3.603   3.817 -0.6448  0.1104 -0.6000
17895TIP3    H175100   6.782   3.682   3.769 -1.3000  0.2937  0.0252
17895TIP3    H275101   6.902   3.612   3.829 -0.3875 -0.1560 -2.2207
17896TIP3   OH275102   3.808   4.379  11.326  0.1262 -0.4165 -0.1423
17896TIP3    H175103   3.729   4.427  11.348  0.9665  0.5959  0.8034
17896TIP3    H275104   3.779   4.289  11.309 -1.4158  0.2851 -1.4458
17897TIP3   OH275105   3.376   3.431   2.309 -0.6542  0.2565  0.1100
17897TIP3    H175106   3.361   3.487   2.233 -0.4593 -0.4350 -0.4490
17897TIP3    H275107   3.443   3.370   2.281 -0.5464  0.0161  0.8604
17898TIP3   OH275108   1.177   5.083  13.105 -0.2905 -0.2443 -0.4059
17898TIP3    H175109   1.257   5.041  13.135 -0.0900  1.1166  1.1062
17898TIP3    H275110   1.193   5.176  13.117 -1.2086  0.2220 -2.4223
17899TIP3   OH275111   5.368   4.273  13.557  0.1645  1.1295  0.3845
17899TIP3    H175112   5.459   4.242  13.556 -0.2074  0.0089 -0.6799
17899TIP3    H275113   5.319   4.204  13.514 -1.0920  2.0702  0.2646
17900TIP3   OH275114   0.036   5.302   4.548 -0.0364 -0.3588 -0.2557
17900TIP3    H175115  -0.052   5.333   4.573  0.7373  1.0178  0.9052
17900TIP3    H275116   0.076   5.276   4.631  0.7600 -0.7385 -0.7499
17901TIP3   OH275117   0.880   1.963   2.646 -0.0010  0.5970  0.3427
17901TIP3    H175118   0.823   2.014   2.588  1.7550  0.7670 -1.3670
17901TIP3    H275119   0.949   2.025   2.671  2.4714 -0.8687 -2.1934
17902TIP3   OH275120   6.508   2.521   3.662  0.0687  0.2132  0.0371
17902TIP3    H175121   6.473   2.596   3.710 -0.7673  1.3753 -2.2750
17902TIP3    H275122   6.446   2.506   3.591  1.5159 -1.0895 -1.0282
17903TIP3   OH275123   1.162   2.517  15.517 -0.0726  0.0928 -0.2429
17903TIP3    H175124   1.208   2.508  15.600 -0.1776 -0.6141 -0.2516
17903TIP3    H275125   1.133   2.428  15.496 -0.0176  0.2547 -1.0492
17904TIP3   OH275126   3.265   4.153   2.459  0.0816  0.4269  0.7698
17904TIP3    H175127   3.266   4.156   2.363  0.1179 -1.9639  0.6346
17904TIP3    H275128   3.183   4.194   2.484 -0.5151 -0.0469 -0.3671
17905TIP3   OH275129   4.702   0.740   6.650  0.2146 -0.2359 -0.0360
17905TIP3    H175130   4.758   0.770   6.577 -1.1202 -0.3569 -1.1544
17905TIP3    H275131   4.653   0.667   6.613 -0.6221 -0.1773  0.9348
17906TIP3   OH275132   5.041   5.647   0.585 -0.0026  0.3051  0.0649
17906TIP3    H175133   4.984   5.657   0.661  0.0865 -0.0717  0.1830
17906TIP3    H275134   5.066   5.736   0.561  0.6404  0.3778  0.9770
17907TIP3   OH275135   4.682   2.336   4.991  0.8478 -0.5930  0.1046
17907TIP3    H175136   4.637   2.252   4.996 -0.1362 -0.0620  0.3359
17907TIP3    H275137   4.747   2.333   5.062  1.9073 -1.7570 -0.8591
17908TIP3   OH275138   6.048   4.219   6.304  0.5672  0.0483  0.3123
17908TIP3    H175139   5.999   4.300   6.292 -1.5399 -1.2197  0.0166
17908TIP3    H275140   5.988   4.161   6.351  1.4575 -1.8783 -0.8297
17909TIP3   OH275141   4.994   0.862   4.322 -0.1839 -0.2628 -0.0283
17909TIP3    H175142   4.994   0.940   4.377  0.6834  0.0921 -0.5153
17909TIP3    H275143   5.083   0.826   4.331 -0.1171 -0.3655 -0.9476
17910TIP3   OH275144   2.055   0.389  14.069  0.3054  0.1657  0.0849
17910TIP3    H175145   1.974   0.339  14.073  1.5521 -2.1907 -1.7009
17910TIP3    H275146   2.062   0.429  14.156 -3.6388  2.1153 -0.2669
17911TIP3   OH275147   1.569   0.257   6.322  0.2312  0.1997  0.3028
17911TIP3    H175148   1.477   0.257   6.294 -0.4241  2.6006  2.0559
17911TIP3    H275149   1.611   0.320   6.264  0.3263  0.4301  0.6147
17912TIP3   OH275150   5.183   5.954   2.207 -0.0209 -0.3217  0.1093
17912TIP3    H175151   5.269   5.915   2.225 -0.6198 -0.8423  2.0512
17912TIP3    H275152   5.184   6.036   2.256 -2.1100 -2.2812  3.8192
17913TIP3   OH275153   5.144   2.263   1.086  0.2192  0.6947  0.6887
17913TIP3    H175154   5.111   2.181   1.049  0.7454  0.5479  0.5358
17913TIP3    H275155   5.071   2.324   1.078  0.4265  0.7896 -1.0143
17914TIP3   OH275156   0.451   3.365  15.571  0.2035 -0.1308  0.1646
17914TIP3    H175157   0.490   3.378  15.657  0.6974  1.0880 -0.2230
17914TIP3    H275158   0.512   3.307  15.525  0.3512 -0.1258  0.3546
17915TIP3   OH275159   4.486   3.087  11.871 -0.2984 -0.0993  0.0741
17915TIP3    H175160   4.570   3.085  11.916  0.5461  1.5100 -1.3387
17915TIP3    H275161   4.471   2.996  11.846  1.5123 -0.2750 -0.5073
17916TIP3   OH275162   2.027   6.098  12.910 -0.0031  0.2750  0.5892
17916TIP3    H175163   1.940   6.060  12.924 -0.2365 -0.4197 -2.2745
17916TIP3    H275164   2.033   6.168  12.976 -2.5829  0.1455  1.0636
17917TIP3   OH275165   6.203   1.426  15.857  1.0284 -0.1782 -0.3995
17917TIP3    H175166   6.137   1.384  15.912  0.8021  1.5837  0.7500
17917TIP3    H275167   6.155   1.497  15.813  2.0122  0.7428 -0.0167
17918TIP3   OH275168   6.134   6.531  16.539 -0.4898  0.4635  0.5502
17918TIP3    H175169   6.104   6.446  16.506  2.7167 -0.9853  0.9195
17918TIP3    H275170   6.177   6.510  16.622  1.2529  2.2437  0.1866
17919TIP3   OH275171   0.906   1.775  16.135  0.0564  0.0118 -0.6295
17919TIP3    H175172   0.965   1.807  16.203 -0.6685  1.1780 -0.5284
17919TIP3    H275173   0.963   1.728  16.074  0.8470 -0.2521  0.2888
17920TIP3   OH275174   3.094   2.391  11.344 -0.5934  0.0698 -0.2856
17920TIP3    H175175   3.050   2.474  11.329 -1.8316 -0.7673 -1.5259
17920TIP3    H275176   3.067   2.335  11.271 -1.2398 -1.9885  1.4026
17921TIP3   OH275177   0.111   0.208  15.181 -0.2193 -0.1577  0.1154
17921TIP3    H175178   0.200   0.199  15.147  0.1726 -1.0351  1.2924
17921TIP3    H275179   0.093   0.302  15.177  0.3579 -0.0810 -1.0958
17922TIP3   OH275180   4.048   0.641  14.864  0.1572 -0.5023 -0.5030
17922TIP3    H175181   4.056   0.623  14.957  0.1526 -0.1436 -0.4295
17922TIP3    H275182   3.971   0.591  14.837  0.2962 -0.7935 -0.3667
17923TIP3   OH275183   2.373   3.841  14.150  0.4744  0.4435 -0.6526
17923TIP3    H175184   2.334   3.885  14.075 -0.6436  1.1691  0.3270
17923TIP3    H275185   2.452   3.799  14.115 -0.5070 -0.0187 -2.4164
17924TIP3   OH275186   5.829   6.602   4.298 -0.6267 -0.2777 -0.0782
17924TIP3    H175187   5.768   6.531   4.320 -1.4017  0.3446 -0.2006
17924TIP3    H275188   5.834   6.600   4.203 -2.1817  1.0686 -0.2259
17925TIP3   OH275189   0.918   1.457  13.644  0.0979 -0.2322 -0.0929
17925TIP3    H175190   0.929   1.363  13.631  0.8795 -0.3338  1.1475
17925TIP3    H275191   0.984   1.481  13.709  1.0638  1.4986 -1.6163
17926TIP3   OH275192   0.743   1.589   2.436  0.5670  0.1166  0.4899
17926TIP3    H175193   0.791   1.525   2.384  0.7419  0.1577  0.6017
17926TIP3    H275194   0.809   1.654   2.462  0.3859  0.3589  0.3502
17927TIP3   OH275195   6.575   1.174  16.838 -0.0167  0.3329 -0.4188
17927TIP3    H175196   6.670   1.178  16.838  0.0825 -1.0095  0.4112
17927TIP3    H275197   6.553   1.111  16.769 -0.1873 -0.4453  0.3144
17928TIP3   OH275198   4.223   4.566   5.788  0.0198 -0.0502 -0.4489
17928TIP3    H175199   4.226   4.534   5.878 -0.8784 -0.6766 -0.6362
17928TIP3    H275200   4.306   4.613   5.777  0.3099 -0.2973  0.5762
17929TIP3   OH275201   2.687   0.458   0.841 -0.7618 -0.1155 -0.7848
17929TIP3    H175202   2.704   0.406   0.920  0.2620  0.8045 -0.3861
17929TIP3    H275203   2.730   0.408   0.771 -1.5821 -0.8801 -0.7626
17930TIP3   OH275204   2.489   4.442   0.346  0.4727 -0.0658 -1.0063
17930TIP3    H175205   2.404   4.432   0.390  0.3160  0.0629 -1.2751
17930TIP3    H275206   2.508   4.356   0.311 -0.0653  0.1581 -1.8705
17931TIP3   OH275207   4.258   4.443  13.659  0.3966 -0.4685  0.0056
17931TIP3    H175208   4.191   4.425  13.725  0.9803 -0.2026  0.6808
17931TIP3    H275209   4.250   4.537  13.642 -0.5305 -0.7319 -1.1859
17932TIP3   OH275210   2.165   5.770  14.823 -0.2745  0.2737 -0.3375
17932TIP3    H175211   2.105   5.727  14.762 -1.5557 -0.8659  1.6318
17932TIP3    H275212   2.114   5.783  14.903  1.4986  1.2199  0.7195
17933TIP3   OH275213   2.948   6.300  10.986  0.1192 -0.0899  0.0994
17933TIP3    H175214   2.856   6.275  10.985  0.4180 -1.2298 -0.8587
17933TIP3    H275215   2.995   6.221  10.959  1.2714  0.8611 -0.7775
17934TIP3   OH275216   2.947   1.063  10.177 -0.3871  0.0187 -0.1466
17934TIP3    H175217   3.000   1.061  10.257 -0.6700 -0.8408  0.0318
17934TIP3    H275218   2.946   1.155  10.152  0.4657  0.1777  0.3300
17935TIP3   OH275219   2.784   4.490   0.567  0.2946  0.3256  0.2223
17935TIP3    H175220   2.785   4.507   0.472  1.6299 -0.7068  0.0211
17935TIP3    H275221   2.705   4.438   0.581  0.0102  0.6074 -0.3012
17936TIP3   OH275222   6.653   0.129  13.764  0.1471 -0.2170 -0.5825
17936TIP3    H175223   6.650   0.165  13.676  2.1458 -1.7829 -1.3707
17936TIP3    H275224   6.746   0.121  13.784 -0.2392 -1.6391  0.9120
17937TIP3   OH275225   1.114   3.719  11.815 -0.0752  0.3889 -1.0764
17937TIP3    H175226   1.060   3.689  11.888 -0.2862  0.8770 -1.0301
17937TIP3    H275227   1.054   3.766  11.758 -0.3325 -1.5449 -2.5290
17938TIP3   OH275228   3.452   4.061  11.341 -0.0138 -0.5403 -0.5233
17938TIP3    H175229   3.405   4.123  11.397  2.9043  0.6968  0.7878
17938TIP3    H275230   3.398   4.053  11.263 -1.4890  2.1849  0.0853
17939TIP3   OH275231   1.763   3.793  10.302 -0.1486 -0.0458 -0.5224
17939TIP3    H175232   1.835   3.853  10.318  0.6444 -0.8717 -0.8894
17939TIP3    H275233   1.796   3.707  10.330 -0.8811 -0.4897 -0.9616
17940TIP3   OH275234   1.432   2.387  12.586  0.2699  0.2586  0.0328
17940TIP3    H175235   1.357   2.382  12.527 -0.4059  2.0471  0.6803
17940TIP3    H275236   1.395   2.377  12.673  0.8790  0.4895  0.3276
17941TIP3   OH275237   2.984   6.378  11.369 -0.1882  0.7162 -0.7288
17941TIP3    H175238   3.021   6.410  11.451  0.6102  0.7032 -1.0832
17941TIP3    H275239   3.052   6.392  11.304  0.0925 -1.4083 -0.9659
17942TIP3   OH275240   5.224   2.067  14.425 -0.1210 -0.4815 -0.1309
17942TIP3    H175241   5.304   2.051  14.476  0.2797 -0.3057 -0.7019
17942TIP3    H275242   5.240   2.027  14.340 -0.8742 -0.9542 -0.0639
17943TIP3   OH275243   5.400   0.745  13.836 -0.0526 -0.0376  0.0241
17943TIP3    H175244   5.393   0.793  13.918 -0.6425 -0.5466  0.2764
17943TIP3    H275245   5.493   0.753  13.811  0.4375 -1.0465  1.4364
17944TIP3   OH275246   5.086   5.415   1.792 -0.2774 -0.4988  0.3447
17944TIP3    H175247   5.105   5.481   1.859  0.2366  1.3057 -1.4549
17944TIP3    H275248   4.990   5.416   1.784 -0.2927 -0.1688  0.5379
17945TIP3   OH275249   5.983   5.127   5.602 -0.1035  0.0570 -0.1841
17945TIP3    H175250   5.981   5.195   5.535  0.4499  0.2897  0.0333
17945TIP3    H275251   5.895   5.089   5.600 -0.6449  1.2445  0.1695
17946TIP3   OH275252   4.411   2.337  14.320 -0.4333  0.1422 -0.2171
17946TIP3    H175253   4.470   2.412  14.314 -3.5208  2.7804 -0.1941
17946TIP3    H275254   4.437   2.293  14.401  0.5688  2.0297  0.5485
17947TIP3   OH275255   1.383   5.675  13.443  0.3745 -0.0615  0.1397
17947TIP3    H175256   1.360   5.637  13.527  1.8637 -0.2668  0.4704
17947TIP3    H275257   1.356   5.610  13.378 -1.9205  0.6096  0.3098
17948TIP3   OH275258   4.119   3.971  16.592 -0.1832  0.5269  0.0109
17948TIP3    H175259   4.070   3.932  16.520 -1.5178  1.7057  0.2236
17948TIP3    H275260   4.088   4.062  16.596  1.6983  1.1980  0.4883
17949TIP3   OH275261   2.325   1.467   1.972 -0.1012  0.3238  0.9761
17949TIP3    H175262   2.298   1.559   1.974  0.3939  0.4578  1.5286
17949TIP3    H275263   2.401   1.466   1.914 -0.5807  0.1291  0.3372
17950TIP3   OH275264   3.027   2.938  12.072  0.3430  0.7954 -0.2974
17950TIP3    H175265   3.008   2.964  12.162 -1.4345 -0.9917 -0.0726
17950TIP3    H275266   2.944   2.951  12.026  0.8123  0.2954 -1.3136
17951TIP3   OH275267   3.151   2.957   4.011 -0.0302  0.2185  0.3784
17951TIP3    H175268   3.222   2.964   3.947 -1.5013 -0.8959 -1.5196
17951TIP3    H275269   3.139   3.045   4.045  0.1602  1.1127 -1.7168
17952TIP3   OH275270   4.497   6.190  16.244  0.0859 -0.4330  0.5711
17952TIP3    H175271   4.535   6.228  16.324 -2.2748  0.5135  1.3528
17952TIP3    H275272   4.565   6.199  16.178  1.6931 -0.1386  2.1871
17953TIP3   OH275273   2.496   2.775   6.558  0.3593  0.5375  0.1223
17953TIP3    H175274   2.511   2.865   6.529 -0.8723  1.1103  1.1731
17953TIP3    H275275   2.401   2.765   6.558  0.4417 -0.4339  0.9927
17954TIP3   OH275276   6.418   3.449  16.514  0.4614 -0.3538 -0.2086
17954TIP3    H175277   6.450   3.491  16.595  0.8374  0.7885 -0.9157
17954TIP3    H275278   6.483   3.473  16.448 -1.6219  1.7974 -1.6468
17955TIP3   OH275279   6.252   3.002  15.656 -0.3466  0.5194 -0.9957
17955TIP3    H175280   6.233   3.095  15.665 -0.5555  0.2983  1.6845
17955TIP3    H275281   6.339   2.991  15.696 -0.6725 -0.5361 -0.5298
17956TIP3   OH275282   1.276   1.071   4.529 -0.0378 -0.4062  0.0268
17956TIP3    H175283   1.286   1.155   4.483 -1.1465  1.5929  3.1337
17956TIP3    H275284   1.344   1.072   4.596 -1.3171 -1.0351  1.3875
17957TIP3   OH275285   5.464   3.198  16.140 -0.1802 -0.7680  0.2220
17957TIP3    H175286   5.479   3.167  16.050 -0.2453 -1.6077  0.4835
17957TIP3    H275287   5.528   3.268  16.152  0.5688 -1.3691 -0.1351
17958TIP3   OH275288   6.743   2.089  14.755  0.1265 -0.3042 -0.4519
17958TIP3    H175289   6.751   2.144  14.677 -2.2036  1.1909  0.2769
17958TIP3    H275290   6.781   2.142  14.825 -0.6930 -0.2722 -0.0232
17959TIP3   OH275291   5.700   5.571  13.657 -0.2218  0.4930 -0.2196
17959TIP3    H175292   5.699   5.650  13.603  2.4421  1.9422  1.6253
17959TIP3    H275293   5.785   5.531  13.640 -0.6020 -0.7213  0.5848
17960TIP3   OH275294   2.809   4.152   0.419  0.0455  0.4839  0.1339
17960TIP3    H175295   2.832   4.230   0.368 -0.1707  0.1463 -0.4919
17960TIP3    H275296   2.768   4.094   0.356  2.2972 -1.1242  0.0410
17961TIP3   OH275297   6.105   2.320   1.962 -0.9088  0.1602 -0.2543
17961TIP3    H175298   6.051   2.290   1.889 -1.2302  0.1678 -0.0234
17961TIP3    H275299   6.138   2.239   2.001  0.2660  0.1849 -1.1414
17962TIP3   OH275300   4.726   6.257  15.727  0.0015  0.2454  0.6984
17962TIP3    H175301   4.744   6.262  15.633 -0.2248  1.3405  0.6985
17962TIP3    H275302   4.773   6.178  15.757 -2.1400 -1.7158 -0.7915
17963TIP3   OH275303   5.211   3.870   2.680 -0.3252 -0.0589 -0.2928
17963TIP3    H175304   5.304   3.886   2.697 -0.2394 -1.1099  0.3369
17963TIP3    H275305   5.196   3.908   2.593  1.6306 -3.0864 -2.1740
17964TIP3   OH275306   4.065   6.622  14.206  0.1931  0.2270 -0.1296
17964TIP3    H175307   3.971   6.605  14.207  0.4892 -1.8507 -1.4279
17964TIP3    H275308   4.074   6.706  14.160 -0.9672 -0.4421 -1.6626
17965TIP3   OH275309   4.085   3.421  14.850  0.1253 -0.0306 -0.1041
17965TIP3    H175310   4.162   3.396  14.901 -0.1504 -1.1443 -0.2014
17965TIP3    H275311   4.121   3.457  14.768  0.5513  1.0569  0.5371
17966TIP3   OH275312   5.055   5.898   1.819 -0.0768  0.0189 -0.2087
17966TIP3    H175313   5.053   5.843   1.898 -0.2888 -1.1096 -0.9724
17966TIP3    H275314   5.145   5.928   1.813 -0.0857  0.2158  0.5281
17967TIP3   OH275315   4.096   2.007   0.094 -0.4525  0.2027 -0.1101
17967TIP3    H175316   4.046   2.014   0.013  0.1767  2.2453 -0.3842
17967TIP3    H275317   4.105   1.913   0.109 -1.7756 -0.2037 -1.6481
17968TIP3   OH275318   2.430   2.041  14.494  0.3087  0.6509  0.1521
17968TIP3    H175319   2.459   1.961  14.451 -1.1149  0.4388 -0.4845
17968TIP3    H275320   2.399   2.012  14.580  0.6206  0.6604  0.2694
17969TIP3   OH275321   2.198   0.432  14.480  0.1869  0.0533  0.1052
17969TIP3    H175322   2.218   0.406  14.570 -0.1878  2.2286  0.8892
17969TIP3    H275323   2.275   0.407  14.429  1.2797  0.5641  1.4352
17970TIP3   OH275324   3.789   5.800   5.381 -0.3758 -0.4225  0.1873
17970TIP3    H175325   3.776   5.877   5.326  0.8396 -0.7844 -0.6618
17970TIP3    H275326   3.875   5.766   5.354  1.2297  0.4592  3.5811
17971TIP3   OH275327   5.605   4.464   1.653  0.1134  0.4924 -0.1003
17971TIP3    H175328   5.684   4.492   1.608 -0.0934  0.6517 -0.3651
17971TIP3    H275329   5.626   4.472   1.746 -0.0761  1.9214 -0.1694
17972TIP3   OH275330   3.476   1.201   1.898 -0.0265 -0.5526  0.4495
17972TIP3    H175331   3.421   1.220   1.821  0.0022 -0.4692  0.4502
17972TIP3    H275332   3.428   1.239   1.971  0.9204  1.1306  0.2264
17973TIP3   OH275333   0.625   4.320  15.214  0.0285 -0.0789 -0.5190
17973TIP3    H175334   0.607   4.257  15.284 -1.2456  0.8200 -0.0130
17973TIP3    H275335   0.539   4.343  15.179  0.6177 -0.3047 -2.2374
17974TIP3   OH275336   5.052   6.741   5.308  0.0573  0.4952 -0.6860
17974TIP3    H175337   4.987   6.780   5.250 -1.1563  1.6296  1.3279
17974TIP3    H275338   5.120   6.808   5.316 -2.2658  2.7466  3.1739
17975TIP3   OH275339   1.248   5.512   5.523 -0.2467 -0.3658 -0.3725
17975TIP3    H175340   1.260   5.480   5.612 -0.7697  0.1702 -0.1013
17975TIP3    H275341   1.313   5.464   5.471 -0.2096 -0.9787  0.2214
17976TIP3   OH275342   4.542   2.329  11.569  0.1074 -0.9245  0.0268
17976TIP3    H175343   4.479   2.265  11.599 -0.6143 -0.2393  0.0085
17976TIP3    H275344   4.565   2.301  11.480 -2.9599  0.7714 -1.4550
17977TIP3   OH275345   0.237   3.208   1.983 -0.0060  0.4483 -0.0687
17977TIP3    H175346   0.276   3.282   1.936 -0.2202  0.8862  0.4388
17977TIP3    H275347   0.178   3.167   1.920  1.8251 -0.7142 -1.1406
17978TIP3   OH275348   3.628   1.799  10.367  0.3037 -0.3747 -0.0890
17978TIP3    H175349   3.696   1.741  10.402 -0.3847 -0.5365  1.0460
17978TIP3    H275350   3.603   1.759  10.283  1.3475 -0.5075 -0.3509
17979TIP3   OH275351   3.252   1.912  13.067 -0.1742 -0.2429 -0.0619
17979TIP3    H175352   3.176   1.861  13.093  0.8398 -0.7564  2.1781
17979TIP3    H275353   3.315   1.847  13.036 -0.2977  0.0740 -0.9886
17980TIP3   OH275354   3.071   0.020  15.018  0.5140  0.0889 -0.9797
17980TIP3    H175355   3.024  -0.030  15.084  1.8857  0.1928  0.1200
17980TIP3    H275356   3.078  -0.039  14.943 -2.0322  0.3474 -1.5315
17981TIP3   OH275357   0.397   3.034   1.753 -0.0306 -0.4725 -0.3436
17981TIP3    H175358   0.400   3.037   1.848 -1.3747 -0.2976 -0.2842
17981TIP3    H275359   0.364   3.120   1.727 -2.0808 -1.3402 -0.7992
17982TIP3   OH275360   2.836   5.335  11.380 -0.0272  0.0792  0.1831
17982TIP3    H175361   2.794   5.364  11.461 -0.4017 -1.2035  0.4711
17982TIP3    H275362   2.874   5.249  11.402  1.4493  0.5180 -0.4971
17983TIP3   OH275363   3.590   3.349   1.142  0.1644 -0.1987 -0.2861
17983TIP3    H175364   3.543   3.369   1.061 -0.7892 -0.4917  0.1837
17983TIP3    H275365   3.546   3.402   1.209 -0.5157 -1.6453  0.4450
17984TIP3   OH275366   4.481   4.193  12.745 -0.0422 -0.1873 -0.5501
17984TIP3    H175367   4.494   4.173  12.838  0.1008  1.9149 -0.0608
17984TIP3    H275368   4.438   4.116  12.709  0.1716 -1.1676  1.1948
17985TIP3   OH275369   2.399   5.824   5.591 -0.8702  0.4539  0.1430
17985TIP3    H175370   2.443   5.741   5.571  0.7753  1.4405 -0.4918
17985TIP3    H275371   2.318   5.798   5.636 -0.4921 -1.4908 -0.2257
17986TIP3   OH275372   0.801   4.069   3.566 -0.7930  0.3063  0.4249
17986TIP3    H175373   0.847   4.013   3.629 -2.3174 -0.6826  0.7103
17986TIP3    H275374   0.841   4.155   3.577  0.7289 -0.4137  0.9015
17987TIP3   OH275375   3.240   1.768   5.994 -0.5162 -0.9426 -0.0425
17987TIP3    H175376   3.167   1.719   6.032 -0.8075 -0.0744  0.5675
17987TIP3    H275377   3.319   1.725   6.028 -0.7699 -0.6760  0.9234
17988TIP3   OH275378   5.767   2.885   4.597 -0.7253 -0.3224 -0.1275
17988TIP3    H175379   5.753   2.883   4.692 -0.2844 -2.6035 -0.0736
17988TIP3    H275380   5.861   2.873   4.586 -1.0481 -2.6150 -0.8610
17989TIP3   OH275381   0.914   0.715   1.807  0.3538  0.2292  0.6184
17989TIP3    H175382   0.870   0.681   1.885 -0.6441 -0.2597 -0.1396
17989TIP3    H275383   1.006   0.722   1.833  0.0902 -0.2186  1.7383
17990TIP3   OH275384   1.361   4.073  13.671  0.6535  0.4261  0.7062
17990TIP3    H175385   1.389   4.160  13.642  0.9311  0.1445  0.1058
17990TIP3    H275386   1.394   4.066  13.761 -1.3985  1.8536  1.6765
17991TIP3   OH275387   3.898   0.832  13.121  0.2176  0.2370 -0.0602
17991TIP3    H175388   3.827   0.817  13.184  0.5666  0.6043  0.4232
17991TIP3    H275389   3.922   0.745  13.091  0.6308 -0.0038  0.9605
17992TIP3   OH275390   5.898   0.717  11.251  0.7200  0.3146 -0.0280
17992TIP3    H175391   5.962   0.759  11.194  1.4154 -2.4450 -1.4493
17992TIP3    H275392   5.938   0.634  11.276 -1.9245 -1.1665 -0.2907
17993TIP3   OH275393   4.966   1.783   0.370  0.0270 -0.2892 -0.7016
17993TIP3    H175394   4.987   1.707   0.423 -0.2429  1.6109  2.3797
17993TIP3    H275395   5.045   1.800   0.319 -0.0104 -2.7053 -1.6981
17994TIP3   OH275396   3.098   0.590  11.964  0.1602  0.8083  0.2250
17994TIP3    H175397   3.162   0.648  11.922  1.0420 -0.3526 -0.1108
17994TIP3    H275398   3.142   0.561  12.044 -0.1588  0.4167  0.2621
17995TIP3   OH275399   3.819   4.409   1.679 -0.2473  0.0878  0.3570
17995TIP3    H175400   3.892   4.448   1.631 -0.5066  1.1884  0.8213
17995TIP3    H275401   3.753   4.390   1.612  0.2699 -0.4794 -0.0006
17996TIP3   OH275402   0.462   6.052   0.235  0.1661  0.4945 -0.2186
17996TIP3    H175403   0.483   6.132   0.188 -2.2552  0.2854 -1.8769
17996TIP3    H275404   0.506   5.983   0.185  2.2393  0.6983  1.2014
17997TIP3   OH275405   5.282   0.549   5.383 -0.2791 -0.4118  0.2015
17997TIP3    H175406   5.308   0.471   5.432 -0.9149 -0.2613  0.7893
17997TIP3    H275407   5.205   0.582   5.429  0.0619  0.6443  0.0439
17998TIP3   OH275408   6.308   4.179  14.660  0.0916 -0.0407 -0.0933
17998TIP3    H175409   6.248   4.137  14.721  1.0433 -0.8368  0.3271
17998TIP3    H275410   6.394   4.145  14.684  0.4853 -0.4948 -1.9831
17999TIP3   OH275411   6.815   6.683   1.892  0.1873 -0.2740 -0.2251
17999TIP3    H175412   6.862   6.737   1.955  0.1807  1.0747 -1.3269
17999TIP3    H275413   6.853   6.596   1.903  1.5556  0.3500  0.2902
18000TIP3   OH275414   5.687   6.004  15.383  0.3877  0.3714 -0.3092
18000TIP3    H175415   5.620   5.991  15.317  1.3686 -1.6110 -0.9902
18000TIP3    H275416   5.674   6.094  15.414  0.8201  1.9619 -4.2332
18001TIP3   OH275417   1.490   4.632   2.155  1.0525 -0.2128  0.5271
18001TIP3    H175418   1.526   4.696   2.216  2.2058  1.4271 -1.7388
18001TIP3    H275419   1.521   4.547   2.188  4.8983  0.8992  0.2361
18002TIP3   OH275420   2.317   1.015   4.290  0.6092 -0.4009 -0.0228
18002TIP3    H175421   2.273   1.042   4.209  0.4103 -1.1357 -0.1726
18002TIP3    H275422   2.386   1.080   4.303  0.1289  0.1769 -0.3484
18003TIP3   OH275423   3.871   0.974   0.989 -0.2429 -0.1266 -0.1947
18003TIP3    H175424   3.833   0.919   0.921 -0.9090  1.1380 -0.8873
18003TIP3    H275425   3.858   1.064   0.957 -0.7355  0.5130  1.6772
18004TIP3   OH275426   4.134   2.877   3.333 -0.3557  0.0737 -0.1670
18004TIP3    H175427   4.219   2.912   3.306 -0.0347 -0.7856 -0.3040
18004TIP3    H275428   4.079   2.881   3.255 -0.2594  0.0922 -0.2326
18005TIP3   OH275429   4.247   1.853  14.328  0.2118  0.0438  0.4266
18005TIP3    H175430   4.341   1.866  14.342 -0.1110  0.7934  2.0356
18005TIP3    H275431   4.225   1.914  14.257  0.8359  0.2537  0.4103
18006TIP3   OH275432   2.376   4.945   0.443  0.2400  0.5316 -0.2235
18006TIP3    H175433   2.392   4.862   0.399  0.0199  0.7977 -0.8122
18006TIP3    H275434   2.452   4.958   0.499  0.6513  0.3259 -0.7346
18007TIP3   OH275435   1.740   4.271  12.296 -0.1735 -0.0712  0.2076
18007TIP3    H175436   1.703   4.203  12.353 -1.3302  0.1369 -0.2628
18007TIP3    H275437   1.685   4.268  12.217 -0.3061  1.4635  0.2193
18008TIP3   OH275438   2.075   5.229  15.494  0.8010 -0.1634  0.1297
18008TIP3    H175439   2.050   5.202  15.582  0.4189  1.0337  0.4163
18008TIP3    H275440   2.002   5.202  15.439  0.9398 -0.7136  0.2074
18009TIP3   OH275441   0.321   6.703  13.077  0.1246  0.0501  0.7570
18009TIP3    H175442   0.237   6.726  13.036  1.5314  0.5906 -2.0511
18009TIP3    H275443   0.369   6.786  13.081  1.0640 -0.4923  0.9432
18010TIP3   OH275444   2.343   0.713   1.722 -0.0604  0.1588 -0.1155
18010TIP3    H175445   2.303   0.725   1.808 -0.7979 -3.1512  0.1609
18010TIP3    H275446   2.269   0.708   1.662  0.4438  2.2960 -1.0022
18011TIP3   OH275447   6.758   0.231   4.031  0.2536  0.2495  0.3230
18011TIP3    H175448   6.753   0.164   4.100  1.2035  0.3671  0.5143
18011TIP3    H275449   6.783   0.311   4.077  0.9808  0.3112 -0.1751
18012TIP3   OH275450   2.256   4.087   1.995 -0.0887  0.2800  0.2085
18012TIP3    H175451   2.175   4.042   2.019 -0.7639  0.9712 -0.6758
18012TIP3    H275452   2.243   4.113   1.904  1.7986 -1.0070 -0.4885
18013TIP3   OH275453   4.413   1.555  14.793 -0.0317 -0.2778 -0.0248
18013TIP3    H175454   4.357   1.565  14.716  0.0984 -0.4284 -0.1378
18013TIP3    H275455   4.443   1.644  14.813  0.5589 -0.3382 -0.6123
18014TIP3   OH275456   3.085   2.049  11.358  0.1708 -0.1949 -0.4654
18014TIP3    H175457   3.141   1.989  11.308 -0.4166 -1.0592 -0.0998
18014TIP3    H275458   3.026   1.992  11.407 -2.0546  0.6816 -1.9568
18015TIP3   OH275459   3.123   1.059   6.129 -0.0601  0.7700  0.0741
18015TIP3    H175460   3.156   0.979   6.169  1.5154  0.9545 -0.7354
18015TIP3    H275461   3.082   1.107   6.201 -0.2523 -0.3691  0.7455
18016TIP3   OH275462   2.237   4.191  10.384 -0.0531 -0.7534 -0.3102
18016TIP3    H175463   2.181   4.209  10.459  1.2784  0.6455  0.4004
18016TIP3    H275464   2.229   4.269  10.329  1.4204 -0.3603 -0.0195
18017TIP3   OH275465   2.502   5.439  13.323 -0.1355  0.3057 -0.5519
18017TIP3    H175466   2.582   5.398  13.290  0.3803 -0.5118  1.5274
18017TIP3    H275467   2.435   5.417  13.258  1.1841  0.4823 -2.0242
18018TIP3   OH275468   2.702   3.442  16.388  0.2783  0.3060 -0.4607
18018TIP3    H175469   2.642   3.485  16.328 -0.4367 -0.3720 -0.2439
18018TIP3    H275470   2.698   3.494  16.468  2.9126  2.5685 -1.6207
18019TIP3   OH275471   1.701   3.424   0.976  0.0186  0.3291 -0.0852
18019TIP3    H175472   1.736   3.335   0.969  1.2057  0.7312  0.4037
18019TIP3    H275473   1.609   3.412   0.998 -0.3791 -0.7821 -2.0824
18020TIP3   OH275474   2.954   0.069  15.612 -0.0897  0.3142  0.6221
18020TIP3    H175475   2.997  -0.012  15.637  1.3246 -0.0763 -2.5810
18020TIP3    H275476   3.021   0.120  15.568 -2.2075  0.7333 -2.4605
18021TIP3   OH275477   5.572   4.373   2.439  0.3568  0.2209  0.7088
18021TIP3    H175478   5.537   4.456   2.474  1.8486  0.4524  1.7599
18021TIP3    H275479   5.497   4.313   2.441 -1.0525  1.7964 -1.1142
18022TIP3   OH275480   3.216   4.390   2.911 -0.1041 -0.2673 -0.3295
18022TIP3    H175481   3.296   4.367   2.958 -0.1018  1.2454  0.4702
18022TIP3    H275482   3.148   4.340   2.954  0.0490  0.3685  0.6902
18023TIP3   OH275483   1.780   1.438  14.456  0.2910  0.1160  0.4642
18023TIP3    H175484   1.714   1.409  14.520 -0.7731  0.7143 -0.3195
18023TIP3    H275485   1.855   1.382  14.471 -0.8962 -1.5361  0.4660
18024TIP3   OH275486   4.986   4.660  11.772  0.1529 -0.0421 -0.8209
18024TIP3    H175487   4.977   4.716  11.695  1.3757  0.2823 -0.7539
18024TIP3    H275488   4.946   4.577  11.746 -0.7089  0.5086 -1.2958
18025TIP3   OH275489   3.819   0.728   2.434 -0.4402  0.3006  0.2174
18025TIP3    H175490   3.855   0.778   2.508  2.0911  0.0778 -0.7740
18025TIP3    H275491   3.858   0.767   2.357 -3.8665  1.2582 -1.2473
18026TIP3   OH275492   3.590   0.647   4.203  0.0280 -0.0993 -0.9068
18026TIP3    H175493   3.528   0.720   4.207  2.2632  1.9008  2.1734
18026TIP3    H275494   3.538   0.570   4.225 -1.9617  0.9459 -1.7384
18027TIP3   OH275495   4.824   6.036  11.841 -0.5191 -0.1623  0.2358
18027TIP3    H175496   4.880   6.091  11.786 -0.0932  0.0066  0.8300
18027TIP3    H275497   4.865   6.039  11.928 -0.5940 -1.2792  0.3158
18028TIP3   OH275498   2.460   4.572  13.688 -0.6378  0.2459  0.0476
18028TIP3    H175499   2.461   4.596  13.595  0.3993 -0.9475 -0.2900
18028TIP3    H275500   2.405   4.493  13.691  0.8265 -0.8002  0.1192
18029TIP3   OH275501   2.607   1.275  16.352 -0.3902  0.0901 -0.6305
18029TIP3    H175502   2.680   1.252  16.411  0.3032  0.7289 -1.2177
18029TIP3    H275503   2.554   1.195  16.348  0.7897 -0.7135 -0.9143
18030TIP3   OH275504   2.941   2.092   1.676  0.3319 -0.6999 -0.4783
18030TIP3    H175505   2.911   2.165   1.730  0.0835 -0.1029 -1.4044
18030TIP3    H275506   2.880   2.021   1.694 -1.1070  0.1927 -1.6127
18031TIP3   OH275507   1.004   3.227  14.239  0.4716  0.1265  0.1355
18031TIP3    H175508   0.991   3.304  14.295 -0.1932  1.3049 -1.5517
18031TIP3    H275509   1.047   3.163  14.295 -0.7230  1.0174  2.1471
18032TIP3   OH275510   3.414   1.898  14.324  0.1568  0.5979  0.1157
18032TIP3    H175511   3.485   1.871  14.266  0.3126  2.3571 -0.5536
18032TIP3    H275512   3.428   1.846  14.404  0.0054 -1.7904 -1.3162
18033TIP3   OH275513   4.155   5.405   3.893 -0.8541 -0.3549  0.9888
18033TIP3    H175514   4.063   5.405   3.919 -1.2732  2.4469 -0.2111
18033TIP3    H275515   4.189   5.489   3.924  0.5665 -0.1712 -0.8957
18034TIP3   OH275516   3.979   3.937  10.942 -0.6929 -0.5423 -0.0491
18034TIP3    H175517   4.020   3.976  10.866  0.8979 -1.3512  0.3540
18034TIP3    H275518   3.920   3.870  10.907 -1.2692  0.2474 -0.6101
18035TIP3   OH275519   1.592   3.710   1.490 -0.1753  0.1221 -0.1339
18035TIP3    H175520   1.641   3.722   1.571  0.3195 -3.0989  0.1687
18035TIP3    H275521   1.658   3.708   1.421  0.2080 -3.2303  0.1687
18036TIP3   OH275522   3.907   4.565  13.473 -0.5046 -0.4293  0.9527
18036TIP3    H175523   3.992   4.523  13.459 -0.7025 -0.8220  0.9134
18036TIP3    H275524   3.921   4.656  13.448 -0.7469 -0.9907 -1.5750
18037TIP3   OH275525   5.584   0.995  16.080  0.1885  0.4129 -0.1586
18037TIP3    H175526   5.527   0.925  16.112  2.0305 -0.6964  0.7975
18037TIP3    H275527   5.567   1.069  16.138 -0.0499 -0.0101  0.3134
18038TIP3   OH275528   5.268   0.453   2.794  0.0371  0.0457 -0.3690
18038TIP3    H175529   5.241   0.545   2.792 -0.1784 -0.0174 -0.3459
18038TIP3    H275530   5.271   0.431   2.887  3.1383  0.9243 -0.1447
18039TIP3   OH275531   3.796   4.158   3.952  0.0104 -0.2797  0.5879
18039TIP3    H175532   3.726   4.093   3.957  0.8589 -1.1225  2.1728
18039TIP3    H275533   3.811   4.184   4.043  0.8222  0.9046  0.1332
18040TIP3   OH275534   0.448   3.142  11.114 -0.1318  0.0936  0.3367
18040TIP3    H175535   0.529   3.152  11.164 -0.2761 -0.5017  0.6903
18040TIP3    H275536   0.463   3.064  11.061 -0.4248  0.0586  0.3080
18041TIP3   OH275537   1.696   5.540  11.342 -0.0549  0.2368 -0.2819
18041TIP3    H175538   1.760   5.607  11.367  0.5617 -0.2916 -0.4243
18041TIP3    H275539   1.666   5.503  11.425 -0.4296  0.7056 -0.2003
18042TIP3   OH275540   4.521   5.680  16.622 -0.4524  0.6014  0.6990
18042TIP3    H175541   4.575   5.692  16.543 -1.7323  1.6567 -0.0491
18042TIP3    H275542   4.585   5.679  16.693  0.6744  0.4611 -0.2606
18043TIP3   OH275543   4.829   4.421  13.101 -0.5999  0.0812 -0.0622
18043TIP3    H175544   4.839   4.446  13.010  1.2049  1.0641  0.3591
18043TIP3    H275545   4.819   4.504  13.148 -1.7369 -0.4224  0.6468
18044TIP3   OH275546   1.085   3.304  11.780 -0.0270  0.1573 -0.4433
18044TIP3    H175547   1.119   3.342  11.861  0.1141  1.4066 -1.0600
18044TIP3    H275548   1.099   3.372  11.714 -0.8905 -0.5181 -1.3532
18045TIP3   OH275549   5.534   3.863   4.570  1.1507 -0.4250 -0.1165
18045TIP3    H175550   5.516   3.850   4.477 -1.0601  1.9220 -0.1491
18045TIP3    H275551   5.610   3.921   4.573 -0.2191  1.5192 -0.6652
18046TIP3   OH275552   1.270   1.101   2.002  1.0436  0.5811 -0.5724
18046TIP3    H175553   1.288   1.035   1.936  2.4049 -0.8162  1.0746
18046TIP3    H275554   1.326   1.175   1.978  1.3361  0.1894 -1.1127
18047TIP3   OH275555   4.528   4.170   5.444 -0.2336 -0.2450  0.2041
18047TIP3    H175556   4.583   4.166   5.523 -0.0076  0.6087  0.1006
18047TIP3    H275557   4.485   4.084   5.440  0.0318 -0.4250  1.0521
18048TIP3   OH275558   6.238   5.569   2.890 -0.1285 -0.1389 -0.0399
18048TIP3    H175559   6.195   5.607   2.966 -1.2964  1.0577 -1.2447
18048TIP3    H275560   6.168   5.531   2.838  0.5829 -0.5160 -0.7610
18049TIP3   OH275561   1.925   0.275   3.092  0.1232 -0.0043  0.4500
18049TIP3    H175562   1.899   0.355   3.044 -2.1098 -1.3974 -0.8739
18049TIP3    H275563   2.010   0.252   3.055 -0.3029  0.4791 -0.9219
18050TIP3   OH275564   1.480   0.973   1.533  0.2568 -0.1297  0.2770
18050TIP3    H175565   1.390   0.953   1.558  0.6441 -0.0520  1.8235
18050TIP3    H275566   1.532   0.944   1.607  1.5422 -0.3772 -0.6905
18051TIP3   OH275567   0.435   1.461  13.333  0.8142 -0.5498 -0.2379
18051TIP3    H175568   0.454   1.550  13.304 -1.6734 -0.8862 -3.5887
18051TIP3    H275569   0.396   1.472  13.420  0.6593  1.6618 -0.5294
18052TIP3   OH275570   2.703   4.189  13.003  0.1764  0.3385 -0.3039
18052TIP3    H175571   2.619   4.151  12.976  0.5674  0.2431 -1.4494
18052TIP3    H275572   2.768   4.142  12.950  1.0444 -0.2333  1.2263
18053TIP3   OH275573   5.222   6.151   1.006 -0.2648  0.3607 -0.0221
18053TIP3    H175574   5.128   6.133   1.007 -0.4156  1.0753 -0.9112
18053TIP3    H275575   5.251   6.130   1.095 -1.2593  0.1046  0.2496
18054TIP3   OH275576   6.704   2.932  10.789 -0.2664 -0.4014 -0.1139
18054TIP3    H175577   6.735   2.967  10.706 -0.3191 -2.2179 -0.9474
18054TIP3    H275578   6.630   2.877  10.766  0.2210 -1.6040  1.0260
18055TIP3   OH275579   0.645   5.697  12.766 -0.2863 -0.0367 -0.0514
18055TIP3    H175580   0.693   5.675  12.846 -0.4128 -1.1617 -0.2660
18055TIP3    H275581   0.569   5.639  12.767 -1.8145  1.8940  0.4055
18056TIP3   OH275582   6.806   5.812  11.575 -0.4084  0.2256 -0.5952
18056TIP3    H175583   6.747   5.886  11.594 -0.0735  0.0780  1.2022
18056TIP3    H275584   6.781   5.784  11.487 -3.3940 -0.1450  0.2399
18057TIP3   OH275585   2.003   2.981   0.666  0.7180  0.0261 -0.1254
18057TIP3    H175586   2.011   2.890   0.695  1.0312 -0.1342 -0.6848
18057TIP3    H275587   1.912   3.004   0.682  0.9268  0.0036  1.1326
18058TIP3   OH275588   1.097   4.780   3.904 -0.0434  0.0565 -0.7475
18058TIP3    H175589   1.084   4.698   3.855 -0.7744  0.4266 -1.1964
18058TIP3    H275590   1.042   4.770   3.982 -0.3711  0.2278 -0.9502
18059TIP3   OH275591   3.235   2.928  16.580  0.4590 -0.0606  0.0610
18059TIP3    H175592   3.263   2.862  16.644 -0.1296 -1.9270 -1.5253
18059TIP3    H275593   3.141   2.914  16.571  0.6607 -0.4001 -1.7998
18060TIP3   OH275594   3.607   4.437  15.288 -0.0090 -0.2751 -0.0884
18060TIP3    H175595   3.581   4.524  15.319  1.7288  0.1690  0.2709
18060TIP3    H275596   3.557   4.423  15.208 -1.0420  0.6275  0.3818
18061TIP3   OH275597   3.321   2.372  13.213 -0.4108 -0.0788  0.1735
18061TIP3    H175598   3.320   2.300  13.150 -0.4859 -0.7418  0.9242
18061TIP3    H275599   3.232   2.374  13.249  0.4314 -1.8158  2.5955
18062TIP3   OH275600   0.970   6.007   3.008  0.1372  0.2514  0.1112
18062TIP3    H175601   0.963   5.913   2.988  1.3365 -0.4007  2.3815
18062TIP3    H275602   1.056   6.032   2.974  0.3525  0.2067  0.6193
18063TIP3   OH275603   1.496   1.548   2.882  0.2180  0.3173  0.2413
18063TIP3    H175604   1.468   1.636   2.909 -1.0231 -0.3443  1.2425
18063TIP3    H275605   1.467   1.540   2.791 -0.5646  0.5893  0.4605
18064TIP3   OH275606   1.387   0.528   5.076  0.8245  0.3344 -0.0492
18064TIP3    H175607   1.380   0.622   5.061  1.6620  0.3581 -0.3499
18064TIP3    H275608   1.375   0.488   4.990  0.7987  0.1829  0.0229
18065TIP3   OH275609   1.841   2.067   2.230  0.1070 -0.7096 -0.0842
18065TIP3    H175610   1.869   2.138   2.288 -1.3011  0.0934 -0.3400
18065TIP3    H275611   1.921   2.041   2.184  0.6811  0.6623  0.0824
18066TIP3   OH275612   0.602   1.178   4.311  0.5607  0.0198 -0.0077
18066TIP3    H175613   0.563   1.103   4.266 -0.7255 -0.6348  2.0620
18066TIP3    H275614   0.568   1.173   4.400  0.1319  3.2969  0.1270
18067TIP3   OH275615   2.094   5.501  11.441  0.2267 -0.1621 -0.2466
18067TIP3    H175616   2.082   5.409  11.464 -1.3205 -0.2272 -1.1751
18067TIP3    H275617   2.108   5.501  11.346  3.7848  0.3117  0.1718
18068TIP3   OH275618   0.226   4.445   4.464  0.3304 -0.3047  0.7706
18068TIP3    H175619   0.277   4.384   4.517 -0.8447 -2.6630 -0.6373
18068TIP3    H275620   0.150   4.394   4.435 -1.6516  2.3525  0.8802
18069TIP3   OH275621   0.190   5.047   5.535 -0.2213  0.2129 -0.3172
18069TIP3    H175622   0.169   5.097   5.455 -1.2345  2.2714  1.1227
18069TIP3    H275623   0.266   5.092   5.572  1.3071 -1.7503 -0.8969
18070TIP3   OH275624   5.937   3.184  12.304  0.2468  0.8922 -0.2134
18070TIP3    H175625   5.873   3.118  12.331 -0.3197  1.4350 -0.2059
18070TIP3    H275626   5.918   3.259  12.359  1.1473  0.9357  0.0498
18071TIP3   OH275627   5.598   0.457   4.183  0.0319  0.5152  0.3266
18071TIP3    H175628   5.611   0.451   4.278 -2.4351 -0.1061  0.7042
18071TIP3    H275629   5.596   0.366   4.154 -3.0713  0.4526  0.3913
18072TIP3   OH275630   1.342   0.803  14.049  0.2020 -0.1279 -0.3322
18072TIP3    H175631   1.261   0.766  14.013 -0.1499 -1.0829  1.3127
18072TIP3    H275632   1.312   0.873  14.108  0.2989 -2.0623  2.1961
18073TIP3   OH275633   1.772   5.209  11.356 -0.5279 -0.0128 -0.4018
18073TIP3    H175634   1.852   5.215  11.409 -0.8471 -0.0734  0.1004
18073TIP3    H275635   1.775   5.285  11.298 -0.0967 -0.0264 -0.3980
18074TIP3   OH275636   0.167   4.445   1.738  0.0713 -0.1413 -0.1100
18074TIP3    H175637   0.089   4.496   1.758 -0.7083 -0.0680 -2.9553
18074TIP3    H275638   0.240   4.500   1.767 -0.8733 -0.0002  2.1435
18075TIP3   OH275639   1.881   3.493  11.566  0.3559 -0.2402  0.7078
18075TIP3    H175640   1.947   3.490  11.497  0.0922 -1.9472  0.4932
18075TIP3    H275641   1.929   3.519  11.644  1.1360 -0.6891  0.3933
18076TIP3   OH275642   4.848   2.785   1.652  0.4366 -0.1372  0.0556
18076TIP3    H175643   4.864   2.692   1.636  1.5350  0.0653 -0.0692
18076TIP3    H275644   4.907   2.831   1.593 -2.0392  0.7179 -1.9505
18077TIP3   OH275645   2.884   1.347   2.289  0.4851  0.0758 -0.4625
18077TIP3    H175646   2.909   1.271   2.342 -0.5839  0.0205 -0.0076
18077TIP3    H275647   2.934   1.420   2.325  1.3665 -0.3567 -0.7723
18078TIP3   OH275648   1.010   3.741   6.139 -0.0948  0.0041 -0.4415
18078TIP3    H175649   0.916   3.745   6.155  0.1455 -1.0731  1.5255
18078TIP3    H275650   1.035   3.651   6.159  1.8170  1.0110  2.3489
18079TIP3   OH275651   4.773   6.333   0.928 -0.4221 -0.5836 -0.5709
18079TIP3    H175652   4.814   6.346   1.013  0.8369 -0.7231 -1.1347
18079TIP3    H275653   4.739   6.419   0.904  1.0306 -0.0649 -0.8334
18080TIP3   OH275654   0.898   6.345  15.694 -0.3570 -0.1807  1.0007
18080TIP3    H175655   0.956   6.280  15.733  0.9589 -0.3531 -1.1053
18080TIP3    H275656   0.957   6.411  15.659 -1.3833 -0.3344 -1.1544
18081TIP3   OH275657   3.821   4.277  13.831  0.7693 -0.4147  0.1632
18081TIP3    H175658   3.736   4.268  13.875  0.1717  0.3700 -0.7850
18081TIP3    H275659   3.822   4.208  13.766  1.0371 -0.6750  0.4403
18082TIP3   OH275660   6.282   0.571   5.488 -0.2694  0.4159 -0.1464
18082TIP3    H175661   6.241   0.485   5.477 -0.4616  0.6359 -1.3368
18082TIP3    H275662   6.307   0.574   5.580  1.0168 -1.4841 -0.3595
18083TIP3   OH275663   2.567   0.727  12.055 -0.0586 -0.0538 -0.4668
18083TIP3    H175664   2.586   0.782  11.980  0.5096 -0.0027 -0.2861
18083TIP3    H275665   2.596   0.639  12.030  1.0838  0.1527  0.0587
18084TIP3   OH275666   5.160   5.189  10.418  0.3884 -0.2422 -0.0202
18084TIP3    H175667   5.239   5.169  10.368  0.6994  0.8171  0.0255
18084TIP3    H275668   5.115   5.104  10.427  1.2939 -0.7760 -0.4113
18085TIP3   OH275669   6.157   3.801  13.372 -0.2560  0.0598 -0.1184
18085TIP3    H175670   6.161   3.823  13.465 -0.6273  0.1720 -0.1283
18085TIP3    H275671   6.192   3.879  13.328 -2.4498  1.0632 -0.2051
18086TIP3   OH275672   5.583   0.593   1.918  0.0355  0.3338  0.7791
18086TIP3    H175673   5.676   0.615   1.913 -0.1746  0.9972 -0.5805
18086TIP3    H275674   5.556   0.622   2.006  1.0154  0.4684  1.0501
18087TIP3   OH275675   3.171   2.865   5.847  0.1686 -0.2062 -0.3242
18087TIP3    H175676   3.116   2.804   5.898  1.5272 -0.3695  1.0245
18087TIP3    H275677   3.208   2.811   5.777  0.8213 -0.8142  0.4574
18088TIP3   OH275678   1.225   3.136   0.791  0.0279 -0.0910  0.3810
18088TIP3    H175679   1.141   3.136   0.746 -0.2051  1.2054  0.7576
18088TIP3    H275680   1.205   3.168   0.879  0.7813 -0.6386  0.7631
18089TIP3   OH275681   4.135   0.568  12.727 -0.1788  0.6805  0.6871
18089TIP3    H175682   4.224   0.540  12.749 -0.8226 -1.0671  1.2134
18089TIP3    H275683   4.147   0.653  12.684  1.6281  1.1136  1.9236
18090TIP3   OH275684   4.212   1.621  15.289 -0.0211 -0.2371  0.2043
18090TIP3    H175685   4.231   1.590  15.200  0.1442 -0.6244  0.3718
18090TIP3    H275686   4.218   1.543  15.343 -0.2358 -0.0219  0.5428
18091TIP3   OH275687   4.959   5.847   3.334  0.2093 -0.4812  0.1116
18091TIP3    H175688   4.945   5.865   3.427 -0.8117 -0.9512  0.0602
18091TIP3    H275689   4.876   5.809   3.304  1.3948 -2.8958 -0.3626
18092TIP3   OH275690   4.203   0.161  13.691  0.0211  0.4968  0.4416
18092TIP3    H175691   4.119   0.174  13.736 -1.5815  0.4776 -2.2613
18092TIP3    H275692   4.234   0.250  13.672 -0.6730  0.5381 -0.6227
18093TIP3   OH275693   2.759   1.853   0.565 -0.3705 -0.2095  0.1182
18093TIP3    H175694   2.816   1.803   0.622  0.6383 -0.8718 -1.4012
18093TIP3    H275695   2.673   1.846   0.605  0.3992 -0.0864  1.8881
18094TIP3   OH275696   4.635   2.786   1.348 -0.0780 -0.3730  0.2674
18094TIP3    H175697   4.658   2.817   1.260 -3.6378  0.5752 -0.4983
18094TIP3    H275698   4.707   2.815   1.404  0.7109  1.9963 -1.8240
18095TIP3   OH275699   5.932   4.733   1.976  0.4108  0.1467 -0.3190
18095TIP3    H175700   5.894   4.715   2.062 -0.8501 -0.9623 -1.0796
18095TIP3    H275701   5.937   4.829   1.972 -0.9893  0.2661  0.3686
18096TIP3   OH275702   4.807   3.733   4.825 -0.6688 -0.3059  0.1345
18096TIP3    H175703   4.729   3.788   4.838 -0.7693 -0.5802  0.7114
18096TIP3    H275704   4.877   3.780   4.870 -0.9420 -1.0740  1.4238
18097TIP3   OH275705   1.660   2.336   1.930 -0.2072  0.6684  0.1225
18097TIP3    H175706   1.584   2.307   1.980 -1.1885  0.0365 -1.6546
18097TIP3    H275707   1.628   2.410   1.879  0.0041 -0.3380 -1.5345
18098TIP3   OH275708   2.551   6.135   0.887 -0.3283 -0.1573 -0.2981
18098TIP3    H175709   2.508   6.194   0.950 -0.7610 -0.7412 -0.0345
18098TIP3    H275710   2.582   6.063   0.941 -2.2584 -1.5609 -0.9416
18099TIP3   OH275711   1.683   5.060  11.646 -0.1572 -0.3605 -0.1875
18099TIP3    H175712   1.607   5.052  11.703 -0.2773 -0.9656 -0.4261
18099TIP3    H275713   1.648   5.093  11.563 -0.2944 -1.4788 -0.5808
18100TIP3   OH275714   3.907   2.902  14.472 -0.1621 -0.0621 -0.1320
18100TIP3    H175715   3.825   2.869  14.436  0.2308 -0.1895 -0.9245
18100TIP3    H275716   3.919   2.853  14.554 -0.4889 -0.5865 -0.3964
18101TIP3   OH275717   6.249   3.432  10.415 -0.7577  0.5607  0.2225
18101TIP3    H175718   6.292   3.349  10.395  3.0953  1.9453  1.7512
18101TIP3    H275719   6.285   3.494  10.351 -1.2308  1.6107  0.9351
18102TIP3   OH275720   1.695   3.252  11.789  0.3541 -0.3207  1.0609
18102TIP3    H175721   1.763   3.216  11.846  0.4725 -0.3866  0.8800
18102TIP3    H275722   1.713   3.346  11.787  0.9026 -0.4299  0.4160
18103TIP3   OH275723   3.569   2.030  15.705 -0.0635  0.4699  0.3357
18103TIP3    H175724   3.636   2.095  15.725  0.4995 -0.3526  1.2086
18103TIP3    H275725   3.560   2.034  15.610  1.8091  0.0531  0.1019
18104TIP3   OH275726   6.142   6.371   1.348  0.1131  0.1969 -0.2254
18104TIP3    H175727   6.202   6.410   1.284  0.0671  0.9980  0.2024
18104TIP3    H275728   6.118   6.444   1.405 -1.6993  0.0307 -0.7098
18105TIP3   OH275729   2.872   2.788   0.361 -0.0860 -0.0754 -0.0798
18105TIP3    H175730   2.797   2.831   0.319  0.8840 -0.4009 -2.2842
18105TIP3    H275731   2.916   2.858   0.409 -1.0340  0.4023  0.1158
18106TIP3   OH275732   6.339   3.007   4.857 -0.1449 -0.2860 -0.1760
18106TIP3    H175733   6.250   3.028   4.827 -0.8205 -1.4326  0.9551
18106TIP3    H275734   6.328   2.934   4.917  1.7023 -1.2480 -0.9183
18107TIP3   OH275735   6.398   1.922   0.322  0.1084 -1.0099  0.5254
18107TIP3    H175736   6.441   1.939   0.406  1.1820 -1.5249  0.0957
18107TIP3    H275737   6.343   1.845   0.338 -0.9810 -0.1432  1.1688
18108TIP3   OH275738   1.992   4.577   2.193 -0.5599 -0.0048 -0.5610
18108TIP3    H175739   1.977   4.587   2.099 -1.1329  2.3671 -0.2826
18108TIP3    H275740   1.904   4.563   2.230 -0.4328 -0.1188 -0.3004
18109TIP3   OH275741   6.142   5.418   3.602 -0.0308  0.5548  0.0660
18109TIP3    H175742   6.235   5.410   3.623  0.1070  0.7958 -0.4319
18109TIP3    H275743   6.102   5.339   3.640  0.1132  1.2046  1.6266
18110TIP3   OH275744   4.185   2.614  16.571 -0.6450  0.7150  0.1836
18110TIP3    H175745   4.275   2.627  16.540 -0.9789  0.1862 -1.0535
18110TIP3    H275746   4.147   2.552  16.509 -1.1758 -0.8854  1.9790
18111TIP3   OH275747   1.537   5.767   1.399  0.0217  0.0577  0.4798
18111TIP3    H175748   1.541   5.732   1.488 -0.9315  0.8512  0.8484
18111TIP3    H275749   1.477   5.709   1.352 -0.7965  0.6086  0.8258
18112TIP3   OH275750   4.563   0.868   3.431 -0.3402 -0.7925  0.7699
18112TIP3    H175751   4.506   0.945   3.437 -0.7777 -1.1997  2.1765
18112TIP3    H275752   4.505   0.794   3.451  0.0206 -1.5323 -0.8053
18113TIP3   OH275753   0.232   5.164   5.012 -0.0242  0.1871 -0.0573
18113TIP3    H175754   0.189   5.078   5.015  2.1568 -0.9626 -0.0690
18113TIP3    H275755   0.281   5.164   4.930  0.2292  1.3434  0.0736
18114TIP3   OH275756   4.858   1.275   4.303  0.0397  0.0452 -0.2766
18114TIP3    H175757   4.773   1.231   4.294  0.0360 -0.4274  1.4912
18114TIP3    H275758   4.894   1.239   4.384  0.9699  1.8145  0.1492
18115TIP3   OH275759   0.936   1.354  14.079  0.5224 -0.4891  0.1533
18115TIP3    H175760   0.948   1.271  14.032 -0.7437 -0.8880  0.4759
18115TIP3    H275761   0.920   1.328  14.170 -1.9944 -0.0912 -0.0916
18116TIP3   OH275762   0.087   3.284   5.954  0.2437 -0.4153 -0.2258
18116TIP3    H175763   0.031   3.303   6.029  2.3227  0.5979  1.1851
18116TIP3    H275764   0.090   3.366   5.904  0.1908 -0.5826 -0.5092
18117TIP3   OH275765   5.592   4.625  11.433  0.2054 -0.4385  0.0646
18117TIP3    H175766   5.622   4.669  11.354 -0.3149 -0.2740 -0.0461
18117TIP3    H275767   5.509   4.585  11.408 -0.1768 -0.0229  0.6387
18118TIP3   OH275768   6.394   3.317  13.427  0.0189  0.0829  0.6215
18118TIP3    H175769   6.418   3.244  13.370 -0.1422  1.6286 -1.5816
18118TIP3    H275770   6.392   3.280  13.515  0.8072 -2.3271 -0.2979
18119TIP3   OH275771   3.321   6.093  12.054 -0.0193  0.0726 -0.2284
18119TIP3    H175772   3.364   6.065  12.135 -0.9378 -0.5901  0.0603
18119TIP3    H275773   3.304   6.186  12.067 -1.8553 -0.3890  1.1958
18120TIP3   OH275774   6.410   1.714  14.909  0.0253  0.8303  0.2108
18120TIP3    H175775   6.471   1.787  14.919  1.6635 -0.5502  0.8272
18120TIP3    H275776   6.465   1.636  14.917 -1.4949 -0.4971 -1.4758
18121TIP3   OH275777   4.531   1.421  12.348 -0.4055 -0.6737 -0.2341
18121TIP3    H175778   4.515   1.333  12.313  0.8663 -1.3892  0.8924
18121TIP3    H275779   4.531   1.478  12.271  0.2982 -1.8918 -1.1700
18122TIP3   OH275780   5.546   3.320  11.760 -0.3663  0.1431  0.1364
18122TIP3    H175781   5.636   3.339  11.783 -0.1781  0.6386 -0.9091
18122TIP3    H275782   5.549   3.233  11.720 -0.7015 -0.7416  1.9719
18123TIP3   OH275783   6.301   0.577  16.109 -0.1597  0.3890 -0.2531
18123TIP3    H175784   6.365   0.640  16.077  1.0397 -0.8057 -0.2637
18123TIP3    H275785   6.315   0.573  16.203 -1.6418  1.6328  0.0717
18124TIP3   OH275786   2.582   6.593   4.983 -0.4844 -0.6275  0.2037
18124TIP3    H175787   2.607   6.506   5.012 -0.0445 -0.6564 -0.2428
18124TIP3    H275788   2.566   6.642   5.063 -0.8038 -1.1406  0.4500
18125TIP3   OH275789   3.996   1.856   2.309  0.3864 -0.2736 -0.2543
18125TIP3    H175790   4.063   1.892   2.367 -0.3334  1.8130 -0.6418
18125TIP3    H275791   4.007   1.761   2.317  0.6861 -0.0803  2.8358
18126TIP3   OH275792   5.686   0.833   4.803 -0.0344  0.1377  0.2455
18126TIP3    H175793   5.689   0.907   4.743  0.1039  1.3117  1.6375
18126TIP3    H275794   5.749   0.770   4.768 -0.3191  0.5749 -1.0823
18127TIP3   OH275795   1.192   0.850   2.959  0.0901 -0.4033 -0.4939
18127TIP3    H175796   1.269   0.864   2.904  0.4984 -1.6715 -0.2848
18127TIP3    H275797   1.118   0.871   2.903  0.5404 -0.7334 -1.2277
18128TIP3   OH275798   5.296   4.450  14.883  0.0714  0.0967 -0.0107
18128TIP3    H175799   5.309   4.513  14.953  0.2582 -0.1184  0.1501
18128TIP3    H275800   5.380   4.447  14.837  0.0779 -0.0672  0.0094
18129TIP3   OH275801   4.708   4.791   5.227 -0.1685 -0.7021 -0.0748
18129TIP3    H175802   4.683   4.718   5.170  0.1745 -0.4699 -0.5383
18129TIP3    H275803   4.788   4.761   5.270 -1.6806 -1.8285  2.1454
18130TIP3   OH275804   1.835   6.054  15.321 -0.1163  0.1019 -0.0236
18130TIP3    H175805   1.863   6.126  15.378  0.5912  0.5230 -0.8833
18130TIP3    H275806   1.875   5.976  15.358  0.4498  0.3926 -0.0210
18131TIP3   OH275807   6.150   0.793   1.154 -0.2019 -0.0852  0.6598
18131TIP3    H175808   6.143   0.831   1.067  1.3151 -0.1004  0.4955
18131TIP3    H275809   6.122   0.863   1.213 -1.5021 -0.1654  0.1767
18132TIP3   OH275810   1.748   4.718  15.323 -0.0758 -0.3545 -0.2239
18132TIP3    H175811   1.769   4.798  15.275  0.8747 -0.3565  0.1613
18132TIP3    H275812   1.833   4.681  15.347 -0.4412 -2.0770 -1.3522
18133TIP3   OH275813   3.427   5.672   4.890 -0.4901 -0.1616 -0.0848
18133TIP3    H175814   3.359   5.712   4.836 -0.6738 -1.0872 -0.5573
18133TIP3    H275815   3.506   5.722   4.871 -0.6307 -0.2684 -0.9612
18134TIP3   OH275816   2.074   6.562  15.839  0.4269  0.0206  0.3192
18134TIP3    H175817   2.053   6.627  15.906 -1.7103  1.1123 -1.2812
18134TIP3    H275818   1.990   6.540  15.799  1.4430 -1.7099 -1.0319
18135TIP3   OH275819   0.967   0.106  12.240  0.1641  0.2326  0.0917
18135TIP3    H175820   1.019   0.046  12.186 -1.3294  0.4450 -1.6853
18135TIP3    H275821   1.009   0.191  12.229  0.8628 -0.0231  0.6735
18136TIP3   OH275822   4.155   6.471   5.718 -0.0626 -0.4089 -0.2227
18136TIP3    H175823   4.165   6.407   5.788 -0.4872 -2.1543 -1.6979
18136TIP3    H275824   4.237   6.468   5.669 -0.9119 -1.6230 -1.6835
18137TIP3   OH275825   0.600   0.695   3.152 -0.0765 -0.1244 -0.5444
18137TIP3    H175826   0.522   0.649   3.184  0.0549  1.4628  2.3636
18137TIP3    H275827   0.666   0.680   3.220  1.2844  0.8754 -1.5907
18138TIP3   OH275828   4.706   3.905  15.997 -0.0698 -0.1521 -0.7461
18138TIP3    H175829   4.740   3.886  15.910  0.1498  0.6782 -0.8450
18138TIP3    H275830   4.769   3.966  16.035 -1.2045  1.1039 -0.7902
18139TIP3   OH275831   0.858   2.014   4.616  0.0519 -0.1788  0.5534
18139TIP3    H175832   0.767   1.990   4.598 -0.1320  1.3559 -0.6916
18139TIP3    H275833   0.892   1.939   4.666 -1.9789 -0.6172  1.4042
18140TIP3   OH275834   1.913   6.321   3.631 -0.5535  0.2231  0.0540
18140TIP3    H175835   1.820   6.306   3.647 -0.5291  0.1788  0.1512
18140TIP3    H275836   1.928   6.285   3.544 -0.3531 -0.9069  0.5329
18141TIP3   OH275837   0.091   2.793  14.490  0.1374  0.2512 -0.1624
18141TIP3    H175838   0.011   2.845  14.500 -0.1934  0.0484 -1.6530
18141TIP3    H275839   0.094   2.769  14.398  0.4425 -2.1683  0.4153
18142TIP3   OH275840   4.221   5.535  14.317  0.1178  0.2895  0.5556
18142TIP3    H175841   4.224   5.475  14.243  1.9077 -1.9093  2.2709
18142TIP3    H275842   4.129   5.560  14.325 -0.3806 -0.8078 -1.3044
18143TIP3   OH275843   1.454   3.298   3.244  0.2445  0.0886 -0.4362
18143TIP3    H175844   1.429   3.211   3.215  0.0382  0.6321 -1.9730
18143TIP3    H275845   1.469   3.347   3.163  1.4204  1.1787  0.3955
18144TIP3   OH275846   3.930   3.769  14.734 -0.4471 -0.2457  0.5615
18144TIP3    H175847   3.875   3.847  14.747 -0.2211  0.1247 -0.5709
18144TIP3    H275848   3.881   3.698  14.773 -1.6517  0.1216 -0.2263
18145TIP3   OH275849   1.992   6.605   0.080 -0.3854 -0.5622 -0.1548
18145TIP3    H175850   2.015   6.557   0.160 -0.3975  0.4340  0.4605
18145TIP3    H275851   2.004   6.541   0.010  1.9543 -0.8116  0.3886
18146TIP3   OH275852   2.190   3.752  12.247 -0.4279 -0.2448 -0.6759
18146TIP3    H175853   2.186   3.828  12.304  4.0726  1.5090 -2.2596
18146TIP3    H275854   2.243   3.688  12.295 -0.4927 -0.6131 -1.0868
18147TIP3   OH275855   0.724   5.599   2.413  0.2253  0.0686 -0.5762
18147TIP3    H175856   0.798   5.569   2.466  0.5303  0.9418 -0.4978
18147TIP3    H275857   0.730   5.549   2.332 -1.3867 -2.8087  0.8841
18148TIP3   OH275858   1.561   1.330  11.555 -0.2186 -0.2616 -0.1929
18148TIP3    H175859   1.468   1.351  11.559 -0.2613 -0.6100  2.1748
18148TIP3    H275860   1.563   1.234  11.555  0.1427 -0.3266 -2.8966
18149TIP3   OH275861   4.922   2.950  12.066  0.1302  0.1179 -0.1334
18149TIP3    H175862   4.903   2.930  12.158 -2.1242  0.8930 -0.3740
18149TIP3    H275863   4.910   2.866  12.021  1.6452 -0.3603  0.2836
18150TIP3   OH275864   6.741   2.888  14.808 -0.3042  0.0329 -0.6645
18150TIP3    H175865   6.759   2.958  14.745 -0.8192 -0.2929 -1.1878
18150TIP3    H275866   6.748   2.930  14.894 -0.7550  0.7630 -0.9752
18151TIP3   OH275867   3.654   3.332   0.750 -0.2971  0.2990  0.1781
18151TIP3    H175868   3.733   3.358   0.798 -0.7419 -0.3861  1.3334
18151TIP3    H275869   3.608   3.274   0.811 -1.8558  0.9512 -0.3452
18152TIP3   OH275870   4.229   1.652  17.014 -0.2897  0.9001 -0.0765
18152TIP3    H175871   4.266   1.733  16.979  1.5094  0.3323  0.4118
18152TIP3    H275872   4.163   1.625  16.949 -1.1465  2.8887 -0.0894
18153TIP3   OH275873   3.731   1.973   0.053 -0.3365 -0.0532  0.8067
18153TIP3    H175874   3.651   1.970   0.001 -0.4074 -0.2904  0.9262
18153TIP3    H275875   3.701   1.956   0.143 -0.1230 -0.3646  0.8189
18154TIP3   OH275876   2.086   1.583  11.562  0.3115 -0.1688  0.2918
18154TIP3    H175877   2.047   1.508  11.608 -0.4742  0.4217  0.6149
18154TIP3    H275878   2.096   1.650  11.630  2.6634 -0.5573  0.3990
18155TIP3   OH275879   0.779   4.555  17.013  0.6326  0.1917  0.0330
18155TIP3    H175880   0.756   4.515  17.097  0.7050  0.8244  0.3634
18155TIP3    H275881   0.820   4.485  16.963  0.5668 -0.1974  0.5206
18156TIP3   OH275882   6.160   4.125  10.481 -0.1876 -0.0037  0.4619
18156TIP3    H175883   6.236   4.112  10.424 -1.1246  0.5309 -0.9356
18156TIP3    H275884   6.104   4.186  10.434 -2.1343 -1.4158  0.8561
18157TIP3   OH275885   3.370   1.966   6.529 -0.0831  0.3734  0.0319
18157TIP3    H175886   3.382   1.910   6.606  1.0827  0.0204 -0.3687
18157TIP3    H275887   3.308   1.918   6.474 -0.4311  0.3203  0.4641
18158TIP3   OH275888   4.288   6.741  16.843 -0.0721  0.1337  0.0180
18158TIP3    H175889   4.321   6.723  16.755 -1.9773  0.0006 -0.7095
18158TIP3    H275890   4.215   6.802  16.829  0.8867  1.7532  1.7050
18159TIP3   OH275891   5.946   0.167   5.253  0.0163 -0.9353 -0.7134
18159TIP3    H175892   6.027   0.217   5.248 -1.5204  1.6564 -1.3484
18159TIP3    H275893   5.889   0.219   5.311 -1.6526 -1.9677 -1.3454
18160TIP3   OH275894   3.122   6.820   3.399  0.1831  0.4154 -0.1566
18160TIP3    H175895   3.103   6.857   3.485  0.7406 -2.5441  1.3739
18160TIP3    H275896   3.056   6.859   3.341 -0.9595  1.6174  1.8381
18161TIP3   OH275897   3.858   2.025   0.738  0.1352  0.0934 -0.4295
18161TIP3    H175898   3.817   2.101   0.697 -0.2109  0.0831 -0.1045
18161TIP3    H275899   3.788   1.984   0.788  0.2276 -0.6424 -0.8839
18162TIP3   OH275900   2.354   0.185  13.990  0.0777  0.1582 -0.0034
18162TIP3    H175901   2.445   0.202  14.015  0.0085 -0.2305  0.5268
18162TIP3    H275902   2.308   0.266  14.011  0.3584  0.4874 -0.6102
18163TIP3   OH275903   5.028   2.962   5.275  0.1985 -0.0418 -0.5747
18163TIP3    H175904   5.037   2.880   5.325 -1.0217 -1.4383 -2.5019
18163TIP3    H275905   4.995   3.025   5.340  0.6071 -1.2050  0.8311
18164TIP3   OH275906   6.048   5.097  14.197  0.1836 -0.0176  0.2805
18164TIP3    H175907   6.092   5.020  14.163 -0.0442 -0.8380  1.7562
18164TIP3    H275908   6.118   5.160  14.214  0.5713 -0.5615  0.7053
18165TIP3   OH275909   3.044   3.568   1.913 -0.1346 -0.1380 -0.2873
18165TIP3    H175910   3.045   3.561   1.817 -0.4613 -0.8553 -0.2427
18165TIP3    H275911   2.963   3.614   1.933  1.3359  2.7647 -0.5002
18166TIP3   OH275912   1.738   5.940   3.654  0.1073  0.1181  1.0919
18166TIP3    H175913   1.786   5.951   3.572  0.2626 -0.2250  1.1337
18166TIP3    H275914   1.767   5.855   3.688 -1.4770 -0.7159  0.4796
18167TIP3   OH275915   3.981   0.865  12.535  0.3292  0.3710  0.5238
18167TIP3    H175916   3.916   0.820  12.481  2.2004 -0.3793 -1.2838
18167TIP3    H275917   4.065   0.834  12.500  1.6592  1.8370  2.2619
18168TIP3   OH275918   0.282   0.490   5.237  0.1188 -0.3380  1.0634
18168TIP3    H175919   0.342   0.497   5.311  1.2455 -1.4962  0.3103
18168TIP3    H275920   0.317   0.552   5.173  1.5447 -2.1254  0.0012
18169TIP3   OH275921   3.122   6.181   5.874  0.4165 -1.1989 -0.0948
18169TIP3    H175922   3.182   6.236   5.824 -0.4383 -0.5022 -0.3815
18169TIP3    H275923   3.146   6.092   5.851  0.8723 -0.9160 -0.7476
18170TIP3   OH275924   1.604   0.210   1.577 -0.1392  0.2622  0.2454
18170TIP3    H175925   1.575   0.229   1.488 -0.6093 -0.1617  0.3027
18170TIP3    H275926   1.686   0.163   1.566 -0.6146 -0.5323  0.0017
18171TIP3   OH275927   6.456   3.143   1.500 -0.3918  0.0976  0.1468
18171TIP3    H175928   6.412   3.228   1.505  1.2532  1.0483 -0.4985
18171TIP3    H275929   6.399   3.089   1.446 -0.2111  1.6988 -1.7589
18172TIP3   OH275930   3.402   6.005   2.066 -0.1062  0.0153  0.1907
18172TIP3    H175931   3.445   5.999   1.981 -0.5167 -2.2088  0.0877
18172TIP3    H275932   3.317   5.963   2.054  0.6684 -2.3996  2.1331
18173TIP3   OH275933   3.679   0.739   4.745 -0.0112  0.1133  0.2722
18173TIP3    H175934   3.689   0.795   4.822 -0.0853 -0.4773  0.7149
18173TIP3    H275935   3.751   0.676   4.751 -1.1053 -1.1334  0.8985
18174TIP3   OH275936   4.699   0.805  14.291  0.1525 -0.1065  0.3291
18174TIP3    H175937   4.749   0.739  14.340  3.6902 -1.3865 -4.2226
18174TIP3    H275938   4.623   0.757  14.258  1.2221 -1.1765 -0.6696
18175TIP3   OH275939   0.147   1.406   0.773 -0.0263  0.5474 -0.0754
18175TIP3    H175940   0.095   1.458   0.712  0.6618 -0.6358 -1.7656
18175TIP3    H275941   0.227   1.456   0.786 -0.0213  0.6338 -0.4416
18176TIP3   OH275942   1.284   0.587  11.058  0.0879 -0.0388 -0.3086
18176TIP3    H175943   1.372   0.615  11.079 -0.4117  1.9070 -0.6656
18176TIP3    H275944   1.257   0.643  10.985 -2.4123  1.3399  1.5342
18177TIP3   OH275945   0.205   3.705  12.943  0.4680  0.9715 -0.2749
18177TIP3    H175946   0.270   3.696  12.873  0.5887 -2.9506  0.1518
18177TIP3    H275947   0.257   3.726  13.021  1.1287 -0.7140 -0.2204
18178TIP3   OH275948   0.825   2.087   0.003 -0.3434  0.0053 -0.2256
18178TIP3    H175949   0.773   2.164   0.023 -2.4831 -1.5094  0.3775
18178TIP3    H275950   0.767   2.013   0.021  0.9083 -1.7274 -2.6869
18179TIP3   OH275951   4.648   5.935   4.534  0.5441 -0.8204  0.0477
18179TIP3    H175952   4.726   5.880   4.527  0.1013 -1.2684 -2.5367
18179TIP3    H275953   4.592   5.906   4.462 -2.2867 -0.8622  2.1050
18180TIP3   OH275954   4.221   6.374  11.034 -0.4696 -0.1172  0.2232
18180TIP3    H175955   4.300   6.416  11.001  0.4173 -0.6531  1.5451
18180TIP3    H275956   4.218   6.399  11.127 -3.0228  1.6110 -0.2247
18181TIP3   OH275957   0.399   1.309  16.420  0.3392 -0.3419 -0.4399
18181TIP3    H175958   0.467   1.267  16.474 -0.4686  1.1143  1.8708
18181TIP3    H275959   0.404   1.264  16.336  2.4627 -1.9833  0.4638
18182TIP3   OH275960   6.224   5.160   1.919 -0.1613  0.0030 -0.7186
18182TIP3    H175961   6.135   5.133   1.944  0.0286  0.1344  0.1264
18182TIP3    H275962   6.281   5.099   1.966  0.2391  1.0938  0.2536
18183TIP3   OH275963   1.532   1.466   0.984  0.4552  0.4932 -0.0950
18183TIP3    H175964   1.461   1.409   1.012  0.7889 -0.2263 -0.6812
18183TIP3    H275965   1.586   1.411   0.927 -1.3415  2.3808 -3.9999
18184TIP3   OH275966   4.282   4.678  13.314 -0.0164  0.2552 -0.5975
18184TIP3    H175967   4.277   4.774  13.317  2.4414  0.4551  1.7171
18184TIP3    H275968   4.273   4.656  13.222 -1.0610  2.6576 -1.1521
18185TIP3   OH275969   3.126   1.906   6.364 -0.5033  0.0799  0.2917
18185TIP3    H175970   3.057   1.910   6.297  0.3867  1.5620 -0.5829
18185TIP3    H275971   3.159   1.817   6.358 -2.1385 -0.5886  0.5390
18186TIP3   OH275972   2.948   2.747   3.013  0.1151  0.5235  0.3084
18186TIP3    H175973   2.942   2.741   2.917  0.7957 -3.4482  0.3455
18186TIP3    H275974   2.863   2.783   3.040 -0.7757  0.0801 -1.7111
18187TIP3   OH275975   6.232   4.611   1.870  0.9495 -0.1533 -0.0900
18187TIP3    H175976   6.139   4.629   1.857  0.8643  0.9198  1.6954
18187TIP3    H275977   6.240   4.516   1.858 -0.5602 -0.4056  0.6660
18188TIP3   OH275978   6.480   4.210   1.549  0.5188 -0.4492  0.2972
18188TIP3    H175979   6.418   4.174   1.613 -1.5769  0.4051 -1.1174
18188TIP3    H275980   6.429   4.217   1.468  2.8192 -0.6916 -1.2630
18189TIP3   OH275981   6.645   1.294   4.149 -0.7290 -0.4506 -0.0718
18189TIP3    H175982   6.726   1.245   4.162 -0.8578 -0.8382 -0.6949
18189TIP3    H275983   6.586   1.232   4.105 -1.4290 -0.2394  0.5419
18190TIP3   OH275984   5.176   5.185  12.616 -0.7311 -0.3640  0.0547
18190TIP3    H175985   5.262   5.173  12.656 -1.3972  0.9364  2.0265
18190TIP3    H275986   5.139   5.097  12.610  0.3054 -0.8206  0.1475
18191TIP3   OH275987   5.561   5.133   4.215  0.3529  0.4497 -0.0445
18191TIP3    H175988   5.538   5.079   4.139 -0.8640 -0.3046  0.8206
18191TIP3    H275989   5.601   5.211   4.178  1.5116 -0.7297 -1.3728
18192TIP3   OH275990   3.741   4.781  11.479 -0.0293 -0.0259  0.0166
18192TIP3    H175991   3.797   4.849  11.516  0.4063 -0.6823  0.6103
18192TIP3    H275992   3.754   4.787  11.385  0.5140  0.2837  0.1069
18193TIP3   OH275993   2.261   3.331  15.918  0.0127  0.3009  0.3564
18193TIP3    H175994   2.226   3.419  15.900 -0.8763  0.1579  1.3340
18193TIP3    H275995   2.341   3.347  15.968 -0.5524  0.5497  1.2027
18194TIP3   OH275996   3.946   6.637  12.539 -0.2723 -0.3456 -0.3125
18194TIP3    H175997   3.935   6.593  12.455  0.2572 -1.0952  0.0054
18194TIP3    H275998   4.037   6.665  12.540 -0.7982  1.5976 -0.8895
18195TIP3   OH275999   6.046   5.090   3.972 -0.1879  0.4201 -0.0415
18195TIP3    H176000   5.987   5.165   3.964 -2.7858 -1.4960  0.2962
18195TIP3    H276001   6.032   5.040   3.892  1.1686 -0.0146 -0.0403
18196TIP3   OH276002   3.192   4.619   0.720  0.0105 -0.6136 -0.3337
18196TIP3    H176003   3.172   4.626   0.627  0.2052  3.8144 -0.2977
18196TIP3    H276004   3.282   4.651   0.728  0.2437 -1.5595  1.3119
18197TIP3   OH276005   2.663   6.673   1.827 -0.1377 -0.3648  0.3433
18197TIP3    H176006   2.758   6.682   1.830 -0.1238 -0.6835  1.6244
18197TIP3    H276007   2.647   6.610   1.757  0.6240 -0.5865  0.3611
18198TIP3   OH276008   4.978   3.081   2.999  0.7096  0.4429 -0.3868
18198TIP3    H176009   5.041   3.129   2.946  0.5622  1.4053  0.2765
18198TIP3    H276010   4.915   3.046   2.937  1.4570  0.1384 -0.9849
18199TIP3   OH276011   6.221   2.567  14.763  0.0442 -0.5200 -0.3021
18199TIP3    H176012   6.197   2.475  14.754  0.5722 -0.7572  0.5850
18199TIP3    H276013   6.202   2.605  14.677  0.1138 -1.5228 -0.7833
18200TIP3   OH276014   5.362   4.478   0.001 -0.0790 -0.1255  0.0596
18200TIP3    H176015   5.283   4.514  -0.039 -0.4064  0.7672  1.4410
18200TIP3    H276016   5.335   4.392   0.035 -0.3963  0.0730  0.3122
18201TIP3   OH276017   0.779   2.897  16.265  0.3813  0.1793 -0.2458
18201TIP3    H176018   0.733   2.961  16.210 -1.0772 -0.3401  0.3171
18201TIP3    H276019   0.711   2.863  16.323  1.8184  0.5797  1.7633
18202TIP3   OH276020   1.170   5.376  14.511  0.3586  0.5491  0.0040
18202TIP3    H176021   1.240   5.343  14.454  0.7470  1.0514  0.1743
18202TIP3    H276022   1.108   5.418  14.451 -0.3352 -0.8001 -0.2485
18203TIP3   OH276023   6.389   5.038  15.734 -1.1238  0.1378  0.5126
18203TIP3    H176024   6.405   5.102  15.664 -0.1168  1.6109  2.0131
18203TIP3    H276025   6.416   5.083  15.814 -0.2466 -2.2275  1.6375
18204TIP3   OH276026   3.467   1.243  14.087  0.6225 -0.5395  0.2770
18204TIP3    H176027   3.486   1.151  14.103  0.0463 -0.2538  2.9772
18204TIP3    H276028   3.553   1.286  14.089  0.8172 -0.9031 -0.2003
18205TIP3   OH276029   1.000   4.310   4.913  0.8154  0.1147 -0.2953
18205TIP3    H176030   1.063   4.283   4.981  1.9278  0.3433 -1.2005
18205TIP3    H276031   0.927   4.249   4.922  0.0405  1.2461  2.3250
18206TIP3   OH276032   5.190   6.739  13.567 -0.1008  0.4177 -0.1393
18206TIP3    H176033   5.162   6.774  13.652  2.3626  1.1423  0.4597
18206TIP3    H276034   5.237   6.811  13.525 -1.0780  0.0072 -2.0714
18207TIP3   OH276035   4.945   5.578  10.903 -0.2525  0.0973 -0.5274
18207TIP3    H176036   4.871   5.530  10.941  0.5054 -0.1552  0.6711
18207TIP3    H276037   4.906   5.630  10.833 -1.5845  0.0340  0.1371
18208TIP3   OH276038   6.717   3.847   5.602  0.4026  0.3786 -0.0374
18208TIP3    H176039   6.715   3.845   5.698  0.0777 -0.2440 -0.0538
18208TIP3    H276040   6.659   3.776   5.576  1.0224  0.1097 -0.6965
18209TIP3   OH276041   0.699   5.616   2.932 -0.8326  0.4495 -0.0684
18209TIP3    H176042   0.678   5.540   2.987  0.0942 -0.8646 -1.4467
18209TIP3    H276043   0.642   5.607   2.856  0.6316  0.0202 -1.1578
18210TIP3   OH276044   3.871   3.996   5.501  0.6518  0.0326 -0.2019
18210TIP3    H176045   3.880   3.927   5.567  0.9336  0.9670  0.7565
18210TIP3    H276046   3.942   4.057   5.519 -0.2779  1.1845 -0.2781
18211TIP3   OH276047   5.151   4.710  13.005  0.0145  0.2265  0.5791
18211TIP3    H176048   5.214   4.717  12.933 -1.5886 -0.9148 -1.0322
18211TIP3    H276049   5.203   4.726  13.084  1.8814  1.3531 -0.7961
18212TIP3   OH276050   2.261   5.762  16.532 -0.2525 -0.3668 -0.4336
18212TIP3    H176051   2.221   5.849  16.521 -0.4849 -0.4342 -0.1334
18212TIP3    H276052   2.320   5.753  16.457 -0.1042  0.1181 -0.3785
18213TIP3   OH276053   3.834   3.337   2.821 -0.2143  0.1660 -0.1768
18213TIP3    H176054   3.815   3.418   2.869 -0.6471  0.5940 -1.0510
18213TIP3    H276055   3.930   3.331   2.823 -0.2236  0.1094  0.8265
18214TIP3   OH276056   0.421   2.398   0.306  0.1456 -0.7257  0.5867
18214TIP3    H176057   0.472   2.389   0.226  0.0828  0.4812  0.3774
18214TIP3    H276058   0.372   2.480   0.293 -0.0221 -0.6235  1.7654
18215TIP3   OH276059   2.888   6.093   0.930  0.1427 -0.0686  0.1567
18215TIP3    H176060   2.958   6.034   0.905 -1.3466 -2.0996  0.4989
18215TIP3    H276061   2.824   6.087   0.859 -0.9414 -0.4598  1.1347
18216TIP3   OH276062   3.283   1.743   0.579 -0.2593  0.2134 -0.5875
18216TIP3    H176063   3.232   1.688   0.519 -0.2938  1.4031 -1.6961
18216TIP3    H276064   3.361   1.693   0.598 -1.6565 -1.5332  0.9012
18217TIP3   OH276065   2.196   1.300   3.737  0.1547  0.4095  0.0220
18217TIP3    H176066   2.183   1.387   3.697 -1.8750  0.1602  0.0549
18217TIP3    H276067   2.113   1.280   3.779  0.7524 -1.3603  0.4463
18218TIP3   OH276068   3.665   2.815   0.453 -0.4447  0.3060  0.3023
18218TIP3    H176069   3.698   2.736   0.496  1.0232  0.2493 -0.8350
18218TIP3    H276070   3.640   2.785   0.365 -2.5812  0.5797  0.7723
18219TIP3   OH276071   6.239   1.108  12.464  0.8163  0.2861  0.3495
18219TIP3    H176072   6.268   1.068  12.546 -3.1188 -0.9110  1.3884
18219TIP3    H276073   6.244   1.037  12.400 -0.5817 -0.2250  0.7707
18220TIP3   OH276074   6.657   5.146  14.449  0.6497  0.0766 -0.1445
18220TIP3    H176075   6.721   5.087  14.410  0.3835 -0.1807 -0.1951
18220TIP3    H276076   6.572   5.106  14.430  0.2955  1.7140 -2.2990
18221TIP3   OH276077   2.818   3.654   4.313  0.5834  0.2172  0.2245
18221TIP3    H176078   2.778   3.709   4.245 -1.0247 -1.4758 -0.2844
18221TIP3    H276079   2.882   3.601   4.266  1.4519  0.9512  0.5498
18222TIP3   OH276080   5.030   6.583   1.361 -0.2455 -0.2022  0.0912
18222TIP3    H176081   5.092   6.626   1.302 -1.3739 -0.0958 -1.0796
18222TIP3    H276082   4.989   6.515   1.306 -0.4672 -0.9254  1.1160
18223TIP3   OH276083   6.251   2.363   2.313  0.3980  0.6417  0.0638
18223TIP3    H176084   6.233   2.457   2.320 -0.0113  0.5306  0.5680
18223TIP3    H276085   6.175   2.321   2.353  0.3972  0.0794 -0.5115
18224TIP3   OH276086   5.293   4.785   3.868  0.2447 -0.1511 -0.1309
18224TIP3    H176087   5.331   4.701   3.841  0.8773  0.1880 -0.2887
18224TIP3    H276088   5.207   4.761   3.903  0.3843 -0.8589 -0.2531
18225TIP3   OH276089   6.318   2.388   2.762  0.2960  0.6732 -0.2619
18225TIP3    H176090   6.299   2.378   2.855 -0.4533  1.2764 -0.3409
18225TIP3    H276091   6.321   2.483   2.749  0.1510  0.5921 -0.9053
18226TIP3   OH276092   2.417   6.172   0.650 -0.3723 -0.3897  0.2768
18226TIP3    H176093   2.497   6.220   0.629 -1.1119  0.5098 -0.5734
18226TIP3    H276094   2.441   6.118   0.725  0.8974  0.2044  0.3301
18227TIP3   OH276095   5.672   2.320  14.166  0.2596 -0.0883  0.1789
18227TIP3    H176096   5.596   2.362  14.125  0.4376  1.4791  1.3691
18227TIP3    H276097   5.637   2.238  14.201 -0.9599  0.7098  0.9063
18228TIP3   OH276098   1.308   5.938  13.019 -0.0442  0.2060 -0.3783
18228TIP3    H176099   1.395   5.955  13.054 -0.1952 -0.5406  0.3965
18228TIP3    H276100   1.323   5.877  12.947  0.1855  1.0964 -1.1080
18229TIP3   OH276101   5.120   0.153   3.014  0.2120  0.2345  0.3574
18229TIP3    H176102   5.093   0.108   3.094  0.4429 -0.3233  0.1281
18229TIP3    H276103   5.215   0.143   3.011  0.2773  0.8284  0.3521
18230TIP3   OH276104   3.111   2.641   0.272 -0.5358 -0.1387  0.1163
18230TIP3    H176105   3.030   2.691   0.277  0.7828  2.1636 -0.2312
18230TIP3    H276106   3.144   2.659   0.184  0.6563 -0.5342  0.4653
18231TIP3   OH276107   4.623   4.157   5.725  0.3144  0.2594  0.4183
18231TIP3    H176108   4.584   4.222   5.783 -0.0268 -1.4042  2.1372
18231TIP3    H276109   4.563   4.083   5.728  0.9569 -0.3632 -1.0687
18232TIP3   OH276110   1.934   6.423  12.610  0.0922  0.1964  0.5193
18232TIP3    H176111   1.965   6.467  12.530  1.4753  0.5281  1.2037
18232TIP3    H276112   1.944   6.330  12.592 -2.0749  0.1126 -0.6320
18233TIP3   OH276113   0.049   4.450   2.067  0.6610 -0.2417  0.0539
18233TIP3    H176114   0.070   4.500   1.988  0.8929 -5.1619 -3.4186
18233TIP3    H276115  -0.033   4.488   2.099  0.0866  1.4385 -3.0753
18234TIP3   OH276116   5.771   0.711  12.942 -0.2869  0.4000 -0.5848
18234TIP3    H176117   5.731   0.658  12.873  0.9147 -0.4938 -0.6170
18234TIP3    H276118   5.696   0.748  12.990 -1.1506 -0.8562 -0.9080
18235TIP3   OH276119   2.597   2.353   2.156  0.6766  0.0752  0.0567
18235TIP3    H176120   2.520   2.396   2.119  1.6470  0.1338 -2.0211
18235TIP3    H276121   2.670   2.411   2.135  1.2336  0.5481  2.8989
18236TIP3   OH276122   4.786   2.854   5.143 -0.1034 -0.0245 -0.2648
18236TIP3    H176123   4.863   2.889   5.188  0.7839 -0.8732 -1.0897
18236TIP3    H276124   4.737   2.810   5.212 -0.9515  2.2650  0.6842
18237TIP3   OH276125   3.285   5.774   2.356  0.3713 -0.5262  0.0641
18237TIP3    H176126   3.295   5.867   2.373  0.0615 -0.5188  0.2250
18237TIP3    H276127   3.244   5.740   2.436 -1.8790 -0.3643 -0.9561
18238TIP3   OH276128   6.323   1.249  16.366 -0.2061  0.0424  0.5123
18238TIP3    H176129   6.244   1.232  16.315  0.6196 -0.5919 -0.6179
18238TIP3    H276130   6.294   1.251  16.457 -1.1456 -2.8119  0.3721
18239TIP3   OH276131   1.718   4.104  15.150  0.8651  0.1301  0.1583
18239TIP3    H176132   1.767   4.023  15.136 -3.1725 -2.6888  0.6909
18239TIP3    H276133   1.722   4.119  15.244  0.3404 -0.3623  0.2607
18240TIP3   OH276134   2.552   2.187  15.792 -0.4677  0.0911  0.1827
18240TIP3    H176135   2.457   2.196  15.785 -0.6660 -1.3815  0.6143
18240TIP3    H276136   2.585   2.209  15.705 -1.2500  0.0417 -0.1330
18241TIP3   OH276137   1.154   2.870   4.088  0.1261  0.4740  0.0378
18241TIP3    H176138   1.162   2.776   4.103 -0.8723  0.3639 -0.0305
18241TIP3    H276139   1.238   2.896   4.050  0.2468 -0.4689 -0.3729
18242TIP3   OH276140   4.824   5.504   2.558 -0.3684  0.1031  0.3549
18242TIP3    H176141   4.754   5.440   2.549  0.2381 -0.4686 -0.4568
18242TIP3    H276142   4.878   5.472   2.631  0.7523 -1.1507 -0.9510
18243TIP3   OH276143   6.580   0.415  13.656 -0.1820  0.3757 -0.1664
18243TIP3    H176144   6.671   0.416  13.688  0.2145 -3.3911 -0.7373
18243TIP3    H276145   6.588   0.431  13.562 -0.0702  0.1134 -0.2050
18244TIP3   OH276146   1.608   6.584   1.825 -0.9994 -0.1707  0.3310
18244TIP3    H176147   1.565   6.610   1.744  0.2347  2.3198  0.3685
18244TIP3    H276148   1.560   6.629   1.894 -1.4438 -1.5087  0.9427
18245TIP3   OH276149   2.868   3.785  13.994 -0.2101 -0.3381  0.3148
18245TIP3    H176150   2.906   3.698  13.988  0.1764 -0.1067 -0.9130
18245TIP3    H276151   2.903   3.822  14.075  2.8543  0.1490 -1.0783
18246TIP3   OH276152   0.163   6.236   4.443 -0.0783 -0.6392  0.1296
18246TIP3    H176153   0.078   6.280   4.450  0.1421 -0.1046 -0.4200
18246TIP3    H276154   0.202   6.246   4.530 -0.3623 -0.4470  0.2378
18247TIP3   OH276155   1.809   0.041   4.321 -0.3988  0.8478 -0.3222
18247TIP3    H176156   1.720   0.061   4.350 -0.4795  1.6121 -1.0604
18247TIP3    H276157   1.809  -0.054   4.307 -0.2522  0.3584  2.4686
18248TIP3   OH276158   3.493   6.753   1.396 -0.1784 -0.1698 -0.0400
18248TIP3    H176159   3.536   6.680   1.439  0.3954  0.8136  1.1263
18248TIP3    H276160   3.427   6.783   1.459 -0.1075  0.5826 -0.3117
18249TIP3   OH276161   1.939   5.479   5.406  0.0292 -0.3424  0.1268
18249TIP3    H176162   2.014   5.435   5.368 -0.5123 -0.9636 -0.2490
18249TIP3    H276163   1.960   5.572   5.401  0.4987 -0.4815 -0.5628
18250TIP3   OH276164   3.062   0.829   1.110 -0.5067 -0.6420 -0.1415
18250TIP3    H176165   3.016   0.888   1.051 -1.5785 -0.3985  0.9008
18250TIP3    H276166   3.140   0.803   1.062 -1.0121  0.0712 -1.3905
18251TIP3   OH276167   5.139   5.185   0.431  0.2056 -0.2499  0.2522
18251TIP3    H176168   5.151   5.100   0.474  2.9442 -1.1915 -2.0779
18251TIP3    H276169   5.050   5.181   0.395  0.1821 -2.0090  0.4096
18252TIP3   OH276170   2.255   6.104   0.330 -0.6168 -0.1802 -0.1488
18252TIP3    H176171   2.172   6.059   0.314 -0.3815 -0.7594  0.1947
18252TIP3    H276172   2.293   6.057   0.405  0.1485 -0.1085 -0.4828
18253TIP3   OH276173   3.604   3.864  10.469  0.4830 -0.3168  0.1765
18253TIP3    H176174   3.555   3.944  10.451  0.3069 -0.8367 -1.7891
18253TIP3    H276175   3.693   3.894  10.485  0.0560  0.4137  1.3246
18254TIP3   OH276176   4.455   4.748  13.751  0.4079  1.1104  0.2757
18254TIP3    H176177   4.371   4.744  13.705 -0.2818 -1.6224  1.5575
18254TIP3    H276178   4.432   4.742  13.844  2.0220 -0.8911  0.6150
18255TIP3   OH276179   2.520   6.266  11.105  0.5610 -0.1102  0.0841
18255TIP3    H176180   2.456   6.329  11.073 -1.6171 -2.9130 -1.6080
18255TIP3    H276181   2.542   6.297  11.193 -1.2657  2.3175 -0.1929
18256TIP3   OH276182   1.646   5.700   5.792  0.1499 -0.8334  0.3813
18256TIP3    H176183   1.648   5.778   5.848  1.1401 -0.1612 -0.5639
18256TIP3    H276184   1.561   5.703   5.749 -0.2459 -0.8602  1.1396
18257TIP3   OH276185   5.898   2.872   2.089  0.5047  0.3985  0.0328
18257TIP3    H176186   5.811   2.867   2.127  0.9365  0.0813  1.0180
18257TIP3    H276187   5.941   2.790   2.115  1.2173  0.7089 -0.1198
18258TIP3   OH276188   1.069   0.975  11.774 -0.0303  0.1405 -0.2283
18258TIP3    H176189   1.109   1.023  11.701 -0.9689  0.0483 -0.8184
18258TIP3    H276190   1.043   0.891  11.737 -1.3770  0.4463 -0.0556
18259TIP3   OH276191   3.148   3.017  14.245  0.7045  0.1778  0.2595
18259TIP3    H176192   3.089   3.006  14.319 -0.9951 -0.1320 -1.0831
18259TIP3    H276193   3.204   2.939  14.246 -1.5709 -1.5657 -0.7038
18260TIP3   OH276194   2.771   1.533   6.227  0.6180 -0.0242  0.1819
18260TIP3    H176195   2.686   1.545   6.269  0.7303  0.7658  0.2044
18260TIP3    H276196   2.834   1.562   6.293  0.8020  1.1364 -0.4842
18261TIP3   OH276197   4.570   5.745  14.023  0.3815 -0.0010  0.1791
18261TIP3    H176198   4.540   5.688  13.952  0.3199  0.7649 -0.4206
18261TIP3    H276199   4.532   5.707  14.102 -0.9869  0.1036 -0.3998
18262TIP3   OH276200   5.933   3.638  15.382  0.2067  0.1195  0.4133
18262TIP3    H176201   5.867   3.660  15.315 -0.5062 -0.7731  0.8008
18262TIP3    H276202   5.883   3.632  15.463  0.3355 -2.7808  0.3581
18263TIP3   OH276203   5.564   3.586   1.563 -0.5368 -0.2312 -0.3014
18263TIP3    H176204   5.571   3.543   1.478 -0.7320 -1.6850  0.3821
18263TIP3    H276205   5.544   3.515   1.624 -0.1925  0.7450  0.9963
18264TIP3   OH276206   4.462   4.695   5.772  0.6457 -0.1016 -0.0720
18264TIP3    H176207   4.509   4.740   5.843  0.3874 -0.1721  0.1457
18264TIP3    H276208   4.528   4.684   5.703  0.4745  1.4850 -0.5373
18265TIP3   OH276209   2.940   3.864   3.323  0.1081 -0.2948  0.4859
18265TIP3    H176210   3.021   3.852   3.274  0.1563  0.3128  0.4003
18265TIP3    H276211   2.871   3.843   3.261  0.1988 -1.1635  0.6643
18266TIP3   OH276212   2.465   6.136   6.503  0.4031  0.2852 -0.5249
18266TIP3    H176213   2.539   6.094   6.546 -1.3895 -0.5512  1.9709
18266TIP3    H276214   2.499   6.220   6.474  2.1315  0.3069  1.3322
18267TIP3   OH276215   6.617   4.762  12.857 -0.6716  0.5314  1.0218
18267TIP3    H176216   6.678   4.809  12.800  0.1979 -1.1007  0.5254
18267TIP3    H276217   6.674   4.708  12.912 -1.5919 -2.9704 -1.1562
18268TIP3   OH276218   4.017   0.792   1.683  0.4465  0.0346 -0.0572
18268TIP3    H176219   3.997   0.729   1.614 -1.4535  0.3215  0.1682
18268TIP3    H276220   4.013   0.878   1.640  0.0400  0.1675  0.2401
18269TIP3   OH276221   3.635   4.510   0.804  0.0699 -0.3311 -0.6583
18269TIP3    H176222   3.712   4.566   0.813  0.3715 -0.8902  0.3979
18269TIP3    H276223   3.561   4.571   0.797  0.5431  0.1988 -1.1354
18270TIP3   OH276224   6.109   0.265   2.501  0.0498  0.2894  0.3387
18270TIP3    H176225   6.073   0.306   2.580  0.4797 -0.8398  1.1378
18270TIP3    H276226   6.194   0.307   2.489  0.3581 -0.1374  0.9815
18271TIP3   OH276227   5.011   1.088   4.489 -0.3701 -0.0892 -0.1431
18271TIP3    H176228   5.077   1.134   4.438  0.4146 -1.3099 -0.2763
18271TIP3    H276229   5.027   1.117   4.579 -1.3302  1.5606 -0.4708
18272TIP3   OH276230   6.342   4.034   4.537 -0.2541 -0.0338  0.1307
18272TIP3    H176231   6.348   4.034   4.442 -1.3204  0.0808  0.0543
18272TIP3    H276232   6.256   3.997   4.556  0.3043 -0.9092  1.0811
18273TIP3   OH276233   4.498   2.684   3.272 -0.3551  0.4200  0.4193
18273TIP3    H176234   4.424   2.705   3.216 -0.7136  3.2162  1.7716
18273TIP3    H276235   4.469   2.608   3.322 -2.2376  1.2713  0.7096
18274TIP3   OH276236   0.617   4.412  11.027  0.1701  0.1491  0.2406
18274TIP3    H176237   0.709   4.385  11.038  0.4369 -0.3753 -2.6132
18274TIP3    H276238   0.599   4.467  11.104  2.2656 -1.2411  1.8435
18275TIP3   OH276239   5.648   0.956   1.298 -0.2519 -0.3847  0.0960
18275TIP3    H176240   5.658   0.934   1.391 -0.7319  1.1599  0.5461
18275TIP3    H276241   5.627   0.873   1.256 -2.5919 -0.7630  1.7835
18276TIP3   OH276242   0.180   5.786  14.775  0.0027 -0.1184 -0.1692
18276TIP3    H176243   0.104   5.778  14.716 -0.8192 -0.0899  0.8499
18276TIP3    H276244   0.159   5.729  14.848  0.1930  1.1591  0.9178
18277TIP3   OH276245   2.019   4.192   0.078 -0.8897  0.2918  0.7196
18277TIP3    H176246   1.948   4.205   0.014 -1.1135 -1.8672  0.4333
18277TIP3    H276247   2.084   4.141   0.030  0.0775  0.7474  1.5182
18278TIP3   OH276248   0.687   5.971  10.815 -0.3067 -0.2700  0.6141
18278TIP3    H176249   0.685   5.893  10.760  1.4683 -2.0845  2.8752
18278TIP3    H276250   0.596   5.985  10.841 -0.5279 -2.5436  1.2990
18279TIP3   OH276251   6.475   1.440  14.009 -0.0748 -0.4282 -0.6845
18279TIP3    H176252   6.529   1.454  14.086  0.2846 -0.1935 -0.9746
18279TIP3    H276253   6.417   1.516  14.006  2.0447  1.2837 -2.4011
18280TIP3   OH276254   1.267   1.428   5.913  0.1310  0.3445 -0.0788
18280TIP3    H176255   1.295   1.516   5.888  0.2509  1.0926  2.4555
18280TIP3    H276256   1.183   1.441   5.957 -0.0283 -0.8582  0.0093
18281TIP3   OH276257   1.163   2.948  15.234  0.1998 -0.0205 -0.1754
18281TIP3    H176258   1.166   3.041  15.209  1.0105 -0.2087 -0.8222
18281TIP3    H276259   1.205   2.945  15.319 -0.0803  0.2468 -0.0262
18282TIP3   OH276260   3.911   1.993   5.889  0.0446 -0.0579 -0.4252
18282TIP3    H176261   3.905   1.933   5.963  0.5735  1.1542  0.6388
18282TIP3    H276262   3.855   2.067   5.913  0.3571  0.4332 -1.1585
18283TIP3   OH276263   2.684   6.577  12.070 -0.2602  0.2628 -0.1945
18283TIP3    H176264   2.591   6.574  12.092 -0.2134 -0.1402 -0.0210
18283TIP3    H276265   2.699   6.495  12.022 -0.0139  0.3621 -0.2832
18284TIP3   OH276266   5.521   0.943  14.248  0.1228 -0.3481 -0.0118
18284TIP3    H176267   5.616   0.944  14.242  0.0507 -0.2586 -3.4341
18284TIP3    H276268   5.500   1.009  14.314  2.4066  1.1623 -0.6812
18285TIP3   OH276269   4.423   1.560   3.223 -0.2858 -0.3754 -0.2571
18285TIP3    H176270   4.491   1.615   3.262 -1.7683 -0.5389  2.9336
18285TIP3    H276271   4.381   1.616   3.159 -0.5463  1.6579  1.5585
18286TIP3   OH276272   4.337   2.549  16.802 -0.1450 -0.3227 -0.2297
18286TIP3    H176273   4.272   2.592  16.747 -1.0786  0.4684  1.4082
18286TIP3    H276274   4.286   2.500  16.866  0.8372  0.4198  1.1809
18287TIP3   OH276275   2.633   2.898   0.254 -0.1482  0.2765  0.4905
18287TIP3    H176276   2.629   2.993   0.243  1.3823  0.4131  0.8492
18287TIP3    H276277   2.556   2.876   0.306 -0.5814  1.3011  0.3065
18288TIP3   OH276278   6.393   2.962   6.255  0.7876 -0.0393 -0.2540
18288TIP3    H176279   6.404   2.912   6.336  0.5874  0.6823  0.2281
18288TIP3    H276280   6.325   3.026   6.276  0.3350 -0.2019 -1.1685
18289TIP3   OH276281   0.100   6.547  14.429  0.1454  0.0613 -0.1994
18289TIP3    H176282   0.009   6.524  14.451  0.5432 -1.2079  0.1572
18289TIP3    H276283   0.138   6.467  14.395  1.3136  0.4294  0.1929
18290TIP3   OH276284   0.305   4.378   0.286  0.3135 -0.1861  0.0859
18290TIP3    H176285   0.291   4.472   0.283  0.1101 -0.1027  1.9745
18290TIP3    H276286   0.228   4.343   0.331 -0.3733 -1.4880 -1.9467
18291TIP3   OH276287   1.657   2.618  11.890 -0.1736 -0.1969 -0.4140
18291TIP3    H176288   1.665   2.709  11.919 -0.3297 -0.0855 -0.7217
18291TIP3    H276289   1.590   2.620  11.822  1.5560 -0.1291 -2.2152
18292TIP3   OH276290   4.678   4.772  10.408  0.3766 -0.2779 -0.1378
18292TIP3    H176291   4.771   4.749  10.402  0.7968  1.5671 -1.7002
18292TIP3    H276292   4.678   4.867  10.417 -1.3694 -0.2928  0.3430
18293TIP3   OH276293   6.054   5.404  11.007 -0.0254 -0.2121 -0.4583
18293TIP3    H176294   6.068   5.493  10.976  0.8362 -0.1879 -0.0132
18293TIP3    H276295   5.959   5.391  10.999 -0.1867  0.8102 -0.3445
18294TIP3   OH276296   2.647   3.352  11.887 -0.2562  0.1756  0.3910
18294TIP3    H176297   2.721   3.337  11.947 -0.0807  2.4586  0.8359
18294TIP3    H276298   2.634   3.268  11.844  2.3499 -0.4233  0.5943
18295TIP3   OH276299   4.566   3.726  14.676 -0.1942 -0.0146  0.1507
18295TIP3    H176300   4.649   3.695  14.713  1.6712  1.8257 -2.1025
18295TIP3    H276301   4.551   3.810  14.719 -0.2893  0.1483 -0.1959
18296TIP3   OH276302   0.265   0.964  14.472  0.2897  0.1666  0.1594
18296TIP3    H176303   0.191   0.969  14.412  1.3366  1.0520 -1.1285
18296TIP3    H276304   0.268   0.873  14.499 -1.0618  0.0489 -0.0148
18297TIP3   OH276305   1.093   5.002  15.151  0.2394  0.4759 -0.0848
18297TIP3    H176306   1.182   5.023  15.181 -0.2544  0.9581  1.0778
18297TIP3    H276307   1.091   5.035  15.061  0.9043  1.4537  0.2335
18298TIP3   OH276308   4.766   4.965  16.280 -0.1178 -0.6135  0.5885
18298TIP3    H176309   4.733   4.907  16.348  0.0687  0.0631  1.2670
18298TIP3    H276310   4.752   5.053  16.315 -2.0354 -0.1364 -1.1275
18299TIP3   OH276311   2.727   5.570   3.581 -0.5781 -0.1870 -0.0978
18299TIP3    H176312   2.779   5.490   3.588  0.9560  0.7921  0.2494
18299TIP3    H276313   2.761   5.627   3.651 -2.9639  0.0769  0.9420
18300TIP3   OH276314   5.117   4.606   5.801 -1.2852 -0.1494  0.1309
18300TIP3    H176315   5.022   4.608   5.815 -1.6371 -1.7554 -1.6100
18300TIP3    H276316   5.153   4.576   5.884 -2.4140 -0.6125  0.4785
18301TIP3   OH276317   5.048   3.107  16.734  0.2391 -0.0032 -0.1332
18301TIP3    H176318   4.974   3.051  16.708 -0.1149  0.0859  0.6353
18301TIP3    H276319   5.109   3.103  16.660  0.5509 -1.9670  0.1801
18302TIP3   OH276320   4.006   0.322   0.853 -0.0125  0.2072  0.1143
18302TIP3    H176321   4.083   0.377   0.860 -0.6772  0.9686  1.9976
18302TIP3    H276322   4.037   0.242   0.810  1.2051  1.5366 -1.6459
18303TIP3   OH276323   3.482   5.229   0.271 -0.1360  0.0916  0.4542
18303TIP3    H176324   3.527   5.169   0.331  2.0579  0.6819 -0.5025
18303TIP3    H276325   3.549   5.290   0.243 -1.5969  1.1191 -0.9938
18304TIP3   OH276326   6.351   2.501   0.479 -0.3118 -0.2082  0.3542
18304TIP3    H176327   6.343   2.408   0.497  1.4400 -0.4084  0.2094
18304TIP3    H276328   6.397   2.506   0.395  1.5973  0.7677  1.4045
18305TIP3   OH276329   0.229   3.063   2.664  0.3890  0.0260 -0.0779
18305TIP3    H176330   0.263   3.152   2.662  0.4437  0.0227  0.6068
18305TIP3    H276331   0.165   3.063   2.735 -0.3757 -0.2117 -0.7474
18306TIP3   OH276332   1.619   2.009  14.475  0.1920  0.3971 -0.2117
18306TIP3    H176333   1.524   2.015  14.466  0.0471  0.5460  1.1493
18306TIP3    H276334   1.654   2.072  14.412 -0.7060  2.0266  0.8607
18307TIP3   OH276335   1.226   2.574   1.405  0.9264  0.3001  0.2026
18307TIP3    H176336   1.239   2.593   1.312  0.4077  0.0750  0.0787
18307TIP3    H276337   1.192   2.484   1.406  1.1032  0.2376  0.6216
18308TIP3   OH276338   6.720   1.616  12.879 -0.1370 -0.4754  0.4213
18308TIP3    H176339   6.750   1.534  12.839 -0.9480 -0.6372  0.1318
18308TIP3    H276340   6.768   1.621  12.961 -0.0909 -1.2511  0.4510
18309TIP3   OH276341   4.222   0.199  10.865 -0.3022 -0.4348 -1.0276
18309TIP3    H176342   4.209   0.119  10.814  0.8471 -3.0735  2.3692
18309TIP3    H276343   4.317   0.213  10.865 -0.0971 -1.2879  1.1748
18310TIP3   OH276344   2.772   4.673   5.669  0.4785  0.1503  0.3759
18310TIP3    H176345   2.777   4.767   5.688  1.1434  1.0017 -3.1773
18310TIP3    H276346   2.862   4.649   5.647  0.4013 -1.5094  1.6754
18311TIP3   OH276347   1.506   3.699   5.264  0.3638 -0.0101  1.0058
18311TIP3    H176348   1.547   3.785   5.270 -1.6442  1.0819  0.0131
18311TIP3    H276349   1.460   3.699   5.180 -1.2000 -1.3281  1.7990
18312TIP3   OH276350   1.976   2.522  14.744 -0.1623  0.5277  0.2576
18312TIP3    H176351   2.010   2.503  14.832 -1.4222  0.4408  0.7596
18312TIP3    H276352   2.052   2.551  14.694  0.7432 -0.2487  1.1323
18313TIP3   OH276353   3.913   3.665  11.517  0.2354 -0.6031  0.1752
18313TIP3    H176354   3.985   3.697  11.570  0.7084 -0.2507 -0.6601
18313TIP3    H276355   3.835   3.683  11.569  0.5889  0.7953  0.2625
18314TIP3   OH276356   6.513   1.404   1.395 -0.0211  0.1772  0.1516
18314TIP3    H176357   6.509   1.395   1.490  1.3918 -0.5074  0.1776
18314TIP3    H276358   6.432   1.448   1.372 -0.7180 -0.2779  1.5933
18315TIP3   OH276359   0.112   1.506   2.277  0.0908 -0.4298 -0.2974
18315TIP3    H176360   0.172   1.572   2.310 -0.0868 -1.0528  1.4027
18315TIP3    H276361   0.039   1.556   2.240  0.0685  0.3415  0.7472
18316TIP3   OH276362   0.064   0.758  10.977  0.0719  0.4976 -0.4795
18316TIP3    H176363   0.107   0.672  10.975 -0.6111  0.0976  0.8133
18316TIP3    H276364   0.005   0.757  10.902  1.5173  0.6402 -1.6533
18317TIP3   OH276365   4.557   1.285  17.024  0.5105  0.2719 -0.0647
18317TIP3    H176366   4.501   1.317  17.094  0.2740 -0.1167 -0.0696
18317TIP3    H276367   4.529   1.334  16.946 -2.4846 -2.4498 -0.9446
18318TIP3   OH276368   3.303   2.171  13.027 -0.4690  0.6303  0.2179
18318TIP3    H176369   3.361   2.178  12.951 -1.5780  1.9217 -0.5505
18318TIP3    H276370   3.304   2.078  13.049  1.5988  0.5502  0.0227
18319TIP3   OH276371   0.349   5.869   5.722 -0.5431  0.2290 -0.1375
18319TIP3    H176372   0.338   5.929   5.795  1.7887  2.4780 -1.4506
18319TIP3    H276373   0.289   5.902   5.655 -0.7247 -0.1612 -0.1682
18320TIP3   OH276374   3.012   1.469   4.699  0.9321  0.1040  0.1035
18320TIP3    H176375   2.961   1.414   4.758 -0.1284  0.4362 -0.4601
18320TIP3    H276376   3.103   1.444   4.715  0.6437 -0.1414  1.5217
18321TIP3   OH276377   3.074   5.503  13.438 -0.6542  0.1067  0.0876
18321TIP3    H176378   3.125   5.423  13.449  2.9119  1.9867 -1.1645
18321TIP3    H276379   3.093   5.554  13.517 -0.7687  0.7538 -0.2976
18322TIP3   OH276380   5.404   6.440   0.852  0.4884  0.9156 -0.8871
18322TIP3    H176381   5.309   6.430   0.847  0.6078 -1.2257  0.0279
18322TIP3    H276382   5.437   6.407   0.768  0.4766  0.5072 -0.7337
18323TIP3   OH276383   5.434   6.110   0.022  0.1126  0.5507 -0.4106
18323TIP3    H176384   5.502   6.176   0.006  2.9947 -1.0645  3.4775
18323TIP3    H276385   5.381   6.148   0.093  0.7817 -0.5324  0.7087
18324TIP3   OH276386   1.367   0.658   2.343 -0.1426 -0.4631  0.1433
18324TIP3    H176387   1.355   0.720   2.271  0.2703 -0.4623  0.0683
18324TIP3    H276388   1.462   0.658   2.358 -0.2005 -0.6500  0.5212
18325TIP3   OH276389   2.605   6.075  13.377 -0.5617 -0.2565  0.0795
18325TIP3    H176390   2.571   5.996  13.419  1.6256 -0.7698  1.0062
18325TIP3    H276391   2.602   6.142  13.445  1.3596 -0.6446  0.6209
18326TIP3   OH276392   1.867   5.176  15.330  0.1728 -0.2517 -0.1948
18326TIP3    H176393   1.844   5.085  15.310  1.1790 -0.6377  0.3554
18326TIP3    H276394   1.819   5.227  15.265 -0.9268 -1.1224 -0.1122
18327TIP3   OH276395   6.704   1.397   5.665 -0.1176  0.4934 -0.2778
18327TIP3    H176396   6.671   1.415   5.753 -0.4821  0.0509 -0.3170
18327TIP3    H276397   6.725   1.303   5.666 -0.7794  0.3262 -0.8648
18328TIP3   OH276398   0.699   5.214   4.743 -0.1674 -0.3616 -0.4158
18328TIP3    H176399   0.685   5.183   4.832  0.3082 -3.5069 -1.3004
18328TIP3    H276400   0.773   5.274   4.749  0.5209 -1.3206  1.1763
18329TIP3   OH276401   3.530   2.892   1.327  0.2557  0.1487 -0.1496
18329TIP3    H176402   3.566   2.930   1.248  1.2251 -0.7873 -0.1889
18329TIP3    H276403   3.542   2.959   1.394 -0.0280  0.7149 -0.6601
18330TIP3   OH276404   4.037   5.767  12.552  0.1346  0.5433 -0.3684
18330TIP3    H176405   4.073   5.706  12.617 -1.2876  0.1613  0.0869
18330TIP3    H276406   3.944   5.745  12.547 -0.2948  2.2793 -0.6552
18331TIP3   OH276407   4.681   1.510   1.663 -0.0235 -0.2632 -0.2615
18331TIP3    H176408   4.607   1.524   1.722 -0.2374  0.3097 -0.6572
18331TIP3    H276409   4.714   1.423   1.686 -0.7436 -0.4732 -0.0045
18332TIP3   OH276410   1.439   4.260  11.606 -0.0548  0.2195 -0.3608
18332TIP3    H176411   1.363   4.312  11.580 -1.3414 -1.4783 -0.2214
18332TIP3    H276412   1.490   4.251  11.526 -0.2337  1.0024 -0.5713
18333TIP3   OH276413   1.535   2.329  14.587 -0.0783 -0.0407  0.6197
18333TIP3    H176414   1.470   2.303  14.521  0.1760  1.2227 -0.1694
18333TIP3    H276415   1.565   2.247  14.625  0.0684 -0.8541 -1.1587
18334TIP3   OH276416   4.869   5.197   4.189  0.1361 -0.3594  0.3008
18334TIP3    H176417   4.797   5.228   4.245  2.2748  1.3046  2.3387
18334TIP3    H276418   4.847   5.232   4.103 -1.3319  0.4150  0.9310
18335TIP3   OH276419   1.358   0.511   3.678 -0.2733 -0.1055 -0.8950
18335TIP3    H176420   1.405   0.524   3.596  0.8771 -0.1648 -0.2650
18335TIP3    H276421   1.407   0.444   3.724 -0.9689 -0.1568 -0.1950
18336TIP3   OH276422   5.976   5.795   1.500  0.5718 -0.3082 -0.1593
18336TIP3    H176423   5.986   5.774   1.593  1.0532  1.5693  0.2722
18336TIP3    H276424   5.904   5.859   1.498  0.6302 -0.2539 -1.0565
18337TIP3   OH276425   0.290   4.498   2.958 -0.6346  0.4926 -0.0455
18337TIP3    H176426   0.196   4.480   2.958 -0.8814  1.1779  3.1287
18337TIP3    H276427   0.297   4.592   2.940 -0.7621  0.8239  1.4663
18338TIP3   OH276428   1.545   1.944   3.117 -0.2091 -0.0834 -0.4142
18338TIP3    H176429   1.518   2.036   3.125 -1.5030 -0.4146 -0.6639
18338TIP3    H276430   1.636   1.947   3.089  0.0421  1.1233  0.4645
18339TIP3   OH276431   3.817   4.745  12.842  0.4176  0.2577 -0.4107
18339TIP3    H176432   3.815   4.713  12.751 -1.9059 -0.4319 -0.1859
18339TIP3    H276433   3.900   4.713  12.877  1.4943  0.7796 -2.3626
18340TIP3   OH276434   0.807   6.335   0.866 -0.2433  0.7523 -0.3622
18340TIP3    H176435   0.713   6.352   0.873 -0.2835  0.6211 -0.5516
18340TIP3    H276436   0.849   6.408   0.911 -0.4232  1.0826 -0.7196
18341TIP3   OH276437   4.688   1.035   6.242 -0.1043  0.0607 -0.6218
18341TIP3    H176438   4.633   0.997   6.173  0.0112 -0.3457 -0.4966
18341TIP3    H276439   4.635   1.104   6.281 -1.4680 -1.8179  1.0338
18342TIP3   OH276440   0.073   2.636  11.292  0.1592 -0.8253 -0.7352
18342TIP3    H176441   0.005   2.568  11.286 -1.1045  0.2767  0.3990
18342TIP3    H276442   0.133   2.603  11.360 -1.0045 -0.3840  0.5452
18343TIP3   OH276443   0.515   5.523  16.955 -0.4083 -0.1607  0.4557
18343TIP3    H176444   0.552   5.602  16.915 -1.0372  0.4154  0.9851
18343TIP3    H276445   0.522   5.456  16.887 -1.6711  0.8470 -0.7097
18344TIP3   OH276446   4.388   1.244  16.383  0.3578  0.4236 -0.1207
18344TIP3    H176447   4.294   1.238  16.369  0.3725  1.7125 -0.9948
18344TIP3    H276448   4.416   1.155  16.403 -1.2263  0.2377  1.4621
18345TIP3   OH276449   0.987   5.886  12.892  1.0034  0.3226  0.0669
18345TIP3    H176450   1.037   5.807  12.872  1.3379 -0.1133  2.3187
18345TIP3    H276451   0.999   5.942  12.816  0.5940 -1.8339 -1.7204
18346TIP3   OH276452   1.920   6.561   5.402  0.1505 -0.5134  0.1909
18346TIP3    H176453   1.974   6.536   5.477  0.3579 -0.3987  0.0835
18346TIP3    H276454   1.939   6.495   5.336 -0.3121 -0.8228  0.3651
18347TIP3   OH276455   2.926   3.094   0.337 -0.5502  0.6807  0.0490
18347TIP3    H176456   2.922   3.188   0.351 -0.8747  0.8353 -0.9978
18347TIP3    H276457   2.857   3.076   0.273  0.9909  0.1008 -1.5332
18348TIP3   OH276458   6.344   3.182  14.159 -0.5924  0.3440 -0.0951
18348TIP3    H176459   6.426   3.154  14.118 -0.6489 -0.0419  0.0576
18348TIP3    H276460   6.275   3.145  14.104 -0.7021  2.6432 -1.6318
18349TIP3   OH276461   3.136   1.456  10.730  0.0116  0.5641  0.0019
18349TIP3    H176462   3.136   1.380  10.673 -0.4884  0.8586 -0.4007
18349TIP3    H276463   3.187   1.429  10.807 -0.1748 -0.1769 -0.1285
18350TIP3   OH276464   6.602   0.448   4.728 -0.0225  0.1325 -0.4466
18350TIP3    H176465   6.568   0.369   4.687 -1.6436  0.9589 -0.7903
18350TIP3    H276466   6.532   0.477   4.787  1.4229  0.1382  1.3471
18351TIP3   OH276467   0.744   3.148  10.867  0.0519  0.1449 -0.3142
18351TIP3    H176468   0.707   3.082  10.926 -0.3851  1.0978  0.5197
18351TIP3    H276469   0.837   3.126  10.860 -0.0400 -0.4014  0.1671
18352TIP3   OH276470   0.726   6.149   6.142  0.3989  0.1559  0.1797
18352TIP3    H176471   0.693   6.132   6.230  0.1734  0.0203  0.0675
18352TIP3    H276472   0.656   6.120   6.083  0.0722  1.2909 -0.0172
18353TIP3   OH276473   1.961   3.326   0.334  0.3058  0.1749  0.2052
18353TIP3    H176474   2.033   3.268   0.308 -0.5331 -0.5005 -0.6694
18353TIP3    H276475   1.979   3.408   0.288  1.8645  0.9142  1.9695
18354TIP3   OH276476   2.829   0.032  13.509  0.0612  0.4569  1.1707
18354TIP3    H176477   2.889  -0.025  13.557  0.7689  0.9280  0.8591
18354TIP3    H276478   2.744  -0.011  13.517  0.5140 -0.4457  1.2453
18355TIP3   OH276479   0.203   0.303   2.988  0.2419  0.2665  0.1278
18355TIP3    H176480   0.262   0.279   3.058 -2.4127  1.6123  3.0763
18355TIP3    H276481   0.163   0.221   2.961  3.4521 -0.7227 -2.1852
18356TIP3   OH276482   5.519   5.293   2.722  0.4671 -0.3547 -0.6908
18356TIP3    H176483   5.524   5.326   2.811  1.4231  0.6667 -1.1032
18356TIP3    H276484   5.539   5.200   2.730  0.0760 -0.3743  0.2031
18357TIP3   OH276485   2.204   0.829  10.898 -0.1759 -0.1456  0.2231
18357TIP3    H176486   2.149   0.751  10.899  0.9872 -1.0761 -1.8066
18357TIP3    H276487   2.148   0.898  10.861 -0.1569 -0.9687 -1.4174
18358TIP3   OH276488   6.019   5.948   1.936  0.8356  0.4885  0.1616
18358TIP3    H176489   5.998   6.033   1.895 -0.8374  1.3796  2.6336
18358TIP3    H276490   5.939   5.924   1.983  1.8308 -1.6787  0.8649
18359TIP3   OH276491   0.648   3.490   3.991 -0.1549  0.1759 -0.8059
18359TIP3    H176492   0.587   3.417   3.978 -1.6211  0.6452  2.3915
18359TIP3    H276493   0.733   3.454   3.969 -1.1326 -1.6901 -1.8125
18360TIP3   OH276494   4.966   3.302  16.892  0.3814  0.3404 -0.5119
18360TIP3    H176495   5.046   3.282  16.940 -0.9190 -0.6296  1.4235
18360TIP3    H276496   4.969   3.247  16.814  1.7659  0.6656 -0.7081
18361TIP3   OH276497   4.680   5.108  12.627  0.3953 -0.0527 -0.9972
18361TIP3    H176498   4.630   5.187  12.608 -0.6447 -0.7212 -1.1342
18361TIP3    H276499   4.685   5.063  12.543 -0.1329 -0.7461 -0.6645
18362TIP3   OH276500   1.653   4.812   1.163  0.4878  0.1821 -0.1715
18362TIP3    H176501   1.742   4.809   1.199  0.5630 -0.2357 -0.3764
18362TIP3    H276502   1.665   4.842   1.073  0.7865 -2.6671 -1.1927
18363TIP3   OH276503   6.088   2.598   2.676  0.4394  0.2294  0.4080
18363TIP3    H176504   6.032   2.650   2.619  0.7824  0.2482  0.0898
18363TIP3    H276505   6.073   2.508   2.649  2.0216  0.3500 -1.0130
18364TIP3   OH276506   0.855   0.436  11.917 -0.0773 -0.4270  0.1486
18364TIP3    H176507   0.926   0.372  11.925 -1.2622 -1.5391  2.6789
18364TIP3    H276508   0.778   0.391  11.952 -2.0310  0.8537 -2.2133
18365TIP3   OH276509   4.318   6.655  12.868 -0.0336  0.3076  0.8424
18365TIP3    H176510   4.285   6.579  12.916 -2.5529 -1.1598 -2.7341
18365TIP3    H276511   4.381   6.618  12.805 -2.0411  0.7928 -1.6431
18366TIP3   OH276512   6.511   6.513  16.953 -0.0841  0.4063  0.0514
18366TIP3    H176513   6.416   6.505  16.948 -0.2663  2.6029 -1.8598
18366TIP3    H276514   6.542   6.497  16.864  1.2378  0.7036  0.4238
18367TIP3   OH276515   0.724   6.683  16.532  0.0322  0.2240 -0.0884
18367TIP3    H176516   0.801   6.625  16.532 -0.1573 -0.0405  0.4520
18367TIP3    H276517   0.760   6.771  16.542  0.2397  0.0512  0.7439
18368TIP3   OH276518   0.403   6.594   5.281 -0.1416 -0.0543  0.1958
18368TIP3    H176519   0.422   6.523   5.343 -1.6753  0.2276  1.0578
18368TIP3    H276520   0.468   6.584   5.212  0.5311 -1.4575  0.9815
18369TIP3   OH276521   2.476   6.020  16.250 -0.3509  0.0990  1.0516
18369TIP3    H176522   2.465   6.107  16.210  2.5485  1.0315  2.0238
18369TIP3    H276523   2.515   6.037  16.335 -2.4810 -2.0885  2.6162
18370TIP3   OH276524   6.616   2.152  11.538 -0.0995  0.2368  0.2481
18370TIP3    H176525   6.562   2.226  11.566  0.3721  0.9048 -0.5664
18370TIP3    H276526   6.555   2.078  11.534 -1.2408  1.2052 -1.7571
18371TIP3   OH276527   1.400   1.300   5.177  0.0029 -0.2075  0.0739
18371TIP3    H176528   1.370   1.212   5.157 -0.3164  0.1221 -0.9549
18371TIP3    H276529   1.378   1.351   5.099  1.1258  0.5557  0.2410
18372TIP3   OH276530   6.517   0.488   2.002 -0.1058 -0.1961  0.0133
18372TIP3    H176531   6.612   0.485   1.993 -0.0980  2.1525 -1.8144
18372TIP3    H276532   6.486   0.407   1.961  1.0869 -1.1487  0.9284
18373TIP3   OH276533   4.071   4.043   1.980  0.2374 -0.4255 -0.4999
18373TIP3    H176534   4.008   4.113   1.966  1.3547  1.0373  1.3063
18373TIP3    H276535   4.155   4.080   1.953  0.7437 -1.3252 -0.2259
18374TIP3   OH276536   1.256   2.657   3.949 -0.9717 -0.3095  0.1533
18374TIP3    H176537   1.340   2.613   3.961 -2.3320 -3.9624 -2.1847
18374TIP3    H276538   1.279   2.741   3.910  1.6009 -0.5549  0.9231
18375TIP3   OH276539   0.377   1.474  16.618 -0.3044  0.4605 -0.3595
18375TIP3    H176540   0.364   1.558  16.575 -1.9287 -0.1856 -1.2219
18375TIP3    H276541   0.380   1.410  16.547 -2.9219 -0.6190  0.3459
18376TIP3   OH276542   6.191   4.611  14.286  0.0879 -0.2169  0.0129
18376TIP3    H176543   6.212   4.526  14.326 -0.9002 -0.2553  0.4819
18376TIP3    H276544   6.173   4.591  14.194  1.7791 -0.2163 -0.3570
18377TIP3   OH276545   3.201   0.630  13.305 -0.2802 -0.3415  0.5336
18377TIP3    H176546   3.107   0.636  13.323  0.1301 -0.3941  3.0382
18377TIP3    H276547   3.215   0.538  13.280 -1.1810  0.1851 -2.2089
18378TIP3   OH276548   0.522   5.904   6.087 -0.0486 -0.1945  0.3903
18378TIP3    H176549   0.562   5.875   6.169 -1.3895 -0.9415  0.8169
18378TIP3    H276550   0.580   5.872   6.018  2.3311  2.3940  1.0569
18379TIP3   OH276551   2.969   5.076   5.415  0.5419  0.2310  1.0291
18379TIP3    H176552   3.042   5.078   5.477  1.0835  1.6577  0.3801
18379TIP3    H276553   2.999   5.128   5.341 -0.6652 -0.2258  0.1939
18380TIP3   OH276554   5.907   3.736  16.545 -0.8002  0.0076 -0.6364
18380TIP3    H176555   5.992   3.697  16.528 -0.5225  0.8011 -1.1096
18380TIP3    H276556   5.926   3.828  16.563 -1.5334  0.1428 -0.5189
18381TIP3   OH276557   3.691   2.653  13.137  0.0100  0.8961  0.1770
18381TIP3    H176558   3.737   2.610  13.209  1.8816  0.1158 -1.4036
18381TIP3    H276559   3.624   2.590  13.110  1.3395 -0.2027 -0.7276
18382TIP3   OH276560   0.497   4.050  12.141  0.0083  0.1951 -0.1260
18382TIP3    H176561   0.466   4.079  12.227 -0.1183 -0.2467 -0.0190
18382TIP3    H276562   0.423   4.066  12.083 -1.3721 -2.9877  0.5445
18383TIP3   OH276563   6.116   3.328   0.920  0.0518  0.3047 -0.1342
18383TIP3    H176564   6.186   3.279   0.964  0.4361  0.1165 -0.9343
18383TIP3    H276565   6.046   3.332   0.985 -0.2956 -1.9747 -0.2843
18384TIP3   OH276566   2.924   0.184   1.403  0.7351 -0.0977 -0.1916
18384TIP3    H176567   2.882   0.126   1.340  1.3264 -0.2303 -0.4744
18384TIP3    H276568   2.882   0.164   1.486  1.6382 -1.6867 -0.0724
18385TIP3   OH276569   2.732   6.456   1.480  0.0421 -0.1881 -0.1476
18385TIP3    H176570   2.646   6.442   1.442 -0.2977  2.1183 -0.3518
18385TIP3    H276571   2.793   6.425   1.413 -0.5862 -1.0372 -0.3509
18386TIP3   OH276572   4.086   0.099   0.726  0.1044 -0.5301  0.5719
18386TIP3    H176573   4.171   0.132   0.696 -0.8527 -1.0385 -3.2328
18386TIP3    H276574   4.107   0.016   0.770  1.7025  0.3861  1.6351
18387TIP3   OH276575   3.468   5.860  12.189  0.1528 -0.1942  0.1592
18387TIP3    H176576   3.537   5.797  12.212  0.9501  0.4268 -0.4964
18387TIP3    H276577   3.480   5.876  12.095  0.0700  1.0757  0.3530
18388TIP3   OH276578   5.712   3.279  12.432 -0.1947  0.1413 -0.0144
18388TIP3    H176579   5.731   3.338  12.505  0.5862  0.4594 -0.4602
18388TIP3    H276580   5.644   3.221  12.466 -0.5626  0.9226  0.6226
18389TIP3   OH276581   2.885   2.906  15.341  0.1411 -0.0530  0.5099
18389TIP3    H176582   2.855   2.997  15.343 -0.7920 -0.3177 -0.2689
18389TIP3    H276583   2.951   2.901  15.410  1.5034  1.6636 -0.5656
18390TIP3   OH276584   6.445   1.111  13.567 -0.8495  0.2531  0.0544
18390TIP3    H176585   6.365   1.064  13.542 -1.0706  0.9527 -0.6078
18390TIP3    H276586   6.453   1.096  13.661 -1.0109 -0.9424 -0.1093
18391TIP3   OH276587   1.133   1.887  16.794  0.5630  0.3882  0.8169
18391TIP3    H176588   1.041   1.871  16.814  0.2057 -0.3574 -1.1723
18391TIP3    H276589   1.137   1.981  16.773 -0.7909 -0.2923 -3.4891
18392TIP3   OH276590   4.317   3.200   0.090  0.7381  0.1827  0.7513
18392TIP3    H176591   4.379   3.242   0.030  0.4600 -0.8864 -0.3319
18392TIP3    H276592   4.342   3.232   0.177  2.0420  0.7046  0.2146
18393TIP3   OH276593   0.706   0.496  14.749 -0.2906 -0.2547 -0.8332
18393TIP3    H176594   0.674   0.584  14.733  0.0073  0.1654  0.7147
18393TIP3    H276595   0.643   0.439  14.705 -1.6747  0.6551 -0.0963
18394TIP3   OH276596   2.328   3.144  11.810 -0.4467 -0.0673  0.3250
18394TIP3    H176597   2.313   3.052  11.831 -2.0804 -0.3996 -1.8865
18394TIP3    H276598   2.421   3.150  11.788 -0.4997 -1.4282 -0.3748
18395TIP3   OH276599   3.523   5.420   4.775 -0.0235 -0.8526 -0.3173
18395TIP3    H176600   3.590   5.460   4.720  1.0577 -0.4656  1.2137
18395TIP3    H276601   3.477   5.494   4.814  0.0709 -1.1026  0.2818
18396TIP3   OH276602   1.641   0.710  13.290 -0.3134  0.5138  0.4225
18396TIP3    H176603   1.722   0.710  13.341  1.1065  0.4798 -1.7179
18396TIP3    H276604   1.640   0.796  13.247 -1.0721  0.2462 -0.1073
18397TIP3   OH276605   3.615   2.418   2.097 -0.0848 -0.7910  0.3155
18397TIP3    H176606   3.626   2.490   2.036  1.6878 -1.0175  0.3189
18397TIP3    H276607   3.534   2.375   2.070 -0.1940  0.1069 -0.8145
18398TIP3   OH276608   5.252   1.538   0.791  0.1267  1.2042  0.5764
18398TIP3    H176609   5.258   1.614   0.732 -1.6718  1.7559  1.0372
18398TIP3    H276610   5.307   1.472   0.750 -0.6269  1.7498 -1.4775
18399TIP3   OH276611   3.376   2.752   4.019  0.2843  0.5364 -0.2482
18399TIP3    H176612   3.365   2.794   3.934  0.0075 -0.8708 -0.9366
18399TIP3    H276613   3.386   2.824   4.081 -0.9380  1.6117 -1.2655
18400TIP3   OH276614   5.455   4.342   2.159 -0.6136 -0.0439  0.1104
18400TIP3    H176615   5.422   4.349   2.069 -0.0898  1.3253 -0.0054
18400TIP3    H276616   5.443   4.430   2.195  1.6186  0.1452  0.5079
18401TIP3   OH276617   2.991   0.731   4.342  0.4467 -0.2686  0.6815
18401TIP3    H176618   2.910   0.703   4.300  1.2754 -0.5166 -0.8365
18401TIP3    H276619   3.058   0.671   4.308  1.3980  0.3926  1.3085
18402TIP3   OH276620   4.271   5.591   0.860  0.0812  0.1274 -0.1304
18402TIP3    H176621   4.345   5.646   0.838  0.6178  0.4869  2.3114
18402TIP3    H276622   4.307   5.503   0.866 -0.4062 -0.2798 -2.1231
18403TIP3   OH276623   1.932   0.714   5.549  0.3223  0.0724 -0.1807
18403TIP3    H176624   1.916   0.630   5.591  0.3451  0.4428  0.5833
18403TIP3    H276625   2.014   0.701   5.500 -0.0796 -0.5714 -0.7075
18404TIP3   OH276626   5.289   5.418   0.740  0.4025 -0.0277  0.6248
18404TIP3    H176627   5.214   5.403   0.798 -0.3541  1.0910 -0.0284
18404TIP3    H276628   5.312   5.510   0.752  0.7499  0.0121 -0.2436
18405TIP3   OH276629   2.045   4.108   5.644 -0.4910 -0.4401 -0.5315
18405TIP3    H176630   2.026   4.200   5.630 -0.4747 -0.4921 -0.8972
18405TIP3    H276631   1.962   4.063   5.627 -0.3324 -0.5559 -1.0133
18406TIP3   OH276632   4.953   4.875   1.888 -0.2066 -0.5043  0.1184
18406TIP3    H176633   4.885   4.852   1.951  0.7295 -0.1943  1.2664
18406TIP3    H276634   5.011   4.936   1.935  1.6076 -1.7703 -0.3749
18407TIP3   OH276635   0.372   3.369   5.737  0.2044  0.9642  0.0160
18407TIP3    H176636   0.400   3.447   5.786  0.4471  0.8432  0.0685
18407TIP3    H276637   0.414   3.378   5.652  1.6726  0.0149  0.5953
18408TIP3   OH276638   4.283   0.778   5.086 -0.0183 -0.0384 -0.3087
18408TIP3    H176639   4.215   0.807   5.026 -0.1138  0.5123  0.0600
18408TIP3    H276640   4.265   0.685   5.101 -1.9844  0.5735  1.4724
18409TIP3   OH276641   5.015   3.351   1.554 -0.5961 -0.6722 -0.1856
18409TIP3    H176642   5.083   3.415   1.577 -2.0020  0.4176  1.1486
18409TIP3    H276643   5.006   3.358   1.459 -1.2725  1.7725 -0.0102
18410TIP3   OH276644   3.287   2.787   4.661 -1.2708  0.1513 -0.1138
18410TIP3    H176645   3.298   2.721   4.729 -0.1024 -0.3980 -0.7917
18410TIP3    H276646   3.280   2.870   4.707 -0.1319 -0.1682  0.6775
18411TIP3   OH276647   3.206   2.632  10.373 -0.6112 -0.0747  0.0351
18411TIP3    H176648   3.273   2.699  10.387 -1.7316  1.6158 -2.1372
18411TIP3    H276649   3.146   2.642  10.447  1.6261 -1.9140  2.2597
18412TIP3   OH276650   0.333   2.394   2.112  0.5175 -0.2017  0.4222
18412TIP3    H176651   0.408   2.370   2.056  0.6312  0.8002  0.1157
18412TIP3    H276652   0.300   2.475   2.073  0.7159  0.6343  1.9247
18413TIP3   OH276653   2.433   6.789   2.268 -0.0832  0.0224 -0.5837
18413TIP3    H176654   2.403   6.880   2.275  0.3192  0.0630  0.8463
18413TIP3    H276655   2.458   6.779   2.176 -0.6403  1.1940 -0.8779
18414TIP3   OH276656   2.429   0.947  15.753 -0.3862  0.3790  0.4929
18414TIP3    H176657   2.427   1.034  15.793  0.6488  2.1505 -2.9028
18414TIP3    H276658   2.355   0.946  15.693 -0.3019 -1.0379  0.3747
18415TIP3   OH276659   6.218   3.880  11.077 -0.0982  0.4980  0.0792
18415TIP3    H176660   6.190   3.971  11.073  0.5719  0.6657 -1.8496
18415TIP3    H276661   6.313   3.883  11.064  0.2767 -0.3466  2.2245
18416TIP3   OH276662   6.480   1.899  11.129 -0.4660  0.2666 -0.1554
18416TIP3    H176663   6.434   1.889  11.045 -0.1214 -0.8037 -0.2291
18416TIP3    H276664   6.563   1.940  11.105 -1.3390  2.2463 -0.0161
18417TIP3   OH276665   1.289   5.957  11.792 -1.1315  0.2735 -0.5124
18417TIP3    H176666   1.340   5.971  11.871 -0.1227 -0.1806 -1.0679
18417TIP3    H276667   1.342   5.994  11.721 -0.8544 -1.5078 -1.2858
18418TIP3   OH276668   5.246   3.961  14.854 -0.2660 -0.3973 -0.2175
18418TIP3    H176669   5.302   3.890  14.823 -0.0771 -0.4116  0.1448
18418TIP3    H276670   5.181   3.973  14.785 -1.5183 -2.2642  0.5597
18419TIP3   OH276671   1.027   5.372  15.724 -0.3251 -0.2455 -0.2136
18419TIP3    H176672   1.062   5.448  15.769 -3.1227  0.2850  1.3117
18419TIP3    H276673   1.097   5.344  15.665  0.1982  4.6259 -2.3370
18420TIP3   OH276674   2.957   5.330   4.862 -0.7616 -0.0438 -0.3146
18420TIP3    H176675   2.980   5.349   4.771  1.0622 -0.1619  0.0752
18420TIP3    H276676   3.003   5.249   4.882 -0.3660  0.4693  0.9788
18421TIP3   OH276677   6.373   1.074   4.676  0.1891 -0.4846 -0.0278
18421TIP3    H176678   6.401   1.166   4.676 -0.7669 -0.1475 -1.9675
18421TIP3    H276679   6.448   1.027   4.638 -0.5235 -0.0023 -2.2074
18422TIP3   OH276680   0.933   0.547   4.877 -0.1404 -0.5751 -0.0536
18422TIP3    H176681   0.909   0.476   4.936  0.7913  0.9216  2.2859
18422TIP3    H276682   1.020   0.574   4.906  0.1218  0.6248 -1.7703
18423TIP3   OH276683   3.281   1.118   1.685 -0.3611  0.0905  0.5224
18423TIP3    H176684   3.344   1.144   1.617  0.7954  0.0129  1.5272
18423TIP3    H276685   3.209   1.181   1.676 -1.3974 -1.3301 -2.2808
18424TIP3   OH276686   2.762   4.754   1.705  0.3422  0.1475  0.5130
18424TIP3    H176687   2.728   4.840   1.731  1.0537  0.5622  0.0857
18424TIP3    H276688   2.706   4.692   1.752 -1.9790  0.7413 -1.2601
18425TIP3   OH276689   3.450   6.241  13.142  0.3521 -0.3311  0.8638
18425TIP3    H176690   3.520   6.183  13.112  1.1635  0.8996  0.2934
18425TIP3    H276691   3.495   6.312  13.186 -0.3545  1.4800 -1.1467
18426TIP3   OH276692   3.172   2.739   5.460  0.0347 -0.5209 -0.2711
18426TIP3    H176693   3.140   2.703   5.542 -0.1104  0.4491  0.1139
18426TIP3    H276694   3.111   2.706   5.393  0.5801 -1.9130 -0.1189
18427TIP3   OH276695   2.686   2.078  11.850  0.0303  0.6359  0.4353
18427TIP3    H176696   2.615   2.132  11.882  0.1976  1.0071  0.1855
18427TIP3    H276697   2.674   1.994  11.894 -0.7220  0.6080  0.1854
18428TIP3   OH276698   2.561   3.866   4.455  0.4023  1.0753  0.3030
18428TIP3    H176699   2.617   3.845   4.380  0.2693  2.9965 -0.3751
18428TIP3    H276700   2.603   3.821   4.529  0.2063 -1.3422 -0.9690
18429TIP3   OH276701   6.006   5.596   2.022  0.3602  0.3598 -0.0842
18429TIP3    H176702   5.935   5.646   1.981 -1.1380 -3.4412 -2.7566
18429TIP3    H276703   6.086   5.627   1.979 -0.0760  2.3672  0.4811
18430TIP3   OH276704   2.666   1.943  16.902 -0.5121  0.7948 -0.1641
18430TIP3    H176705   2.683   1.971  16.993  0.5576  1.2131 -0.4759
18430TIP3    H276706   2.599   1.876  16.910  0.9676 -0.6271  1.1370
18431TIP3   OH276707   2.988   0.947  14.419 -0.6770  0.4533 -0.1081
18431TIP3    H176708   3.033   0.879  14.371 -0.9600  0.7793 -0.8487
18431TIP3    H276709   3.000   0.924  14.511 -0.5090 -0.4186 -0.3448
18432TIP3   OH276710   0.461   4.424  15.474 -0.0527  0.4430 -0.3242
18432TIP3    H176711   0.474   4.391  15.563  1.7311  1.4556 -0.1728
18432TIP3    H276712   0.512   4.504  15.470 -1.3895  1.2823 -1.8020
18433TIP3   OH276713   1.344   0.515   2.847 -0.1013  0.1739  0.0746
18433TIP3    H176714   1.371   0.591   2.795 -0.3194  0.1614 -0.0589
18433TIP3    H276715   1.350   0.441   2.786  0.8959 -0.0494  0.4281
18434TIP3   OH276716   6.040   5.136   6.309  0.0171  0.3735  0.2401
18434TIP3    H176717   5.954   5.154   6.347 -0.6758  0.8279 -1.4301
18434TIP3    H276718   6.102   5.181   6.366 -0.6629 -1.1639  2.3174
18435TIP3   OH276719   3.524   2.117   5.275 -0.1781 -0.3543 -0.3086
18435TIP3    H176720   3.482   2.107   5.189 -0.6963 -1.9851  0.1025
18435TIP3    H276721   3.585   2.043   5.281  3.1768  2.1238 -1.0329
18436TIP3   OH276722   2.022   6.447  10.621  0.2717 -0.4828  0.2615
18436TIP3    H176723   2.065   6.430  10.537  2.4248  0.2367  1.1178
18436TIP3    H276724   2.085   6.415  10.686 -1.4339 -1.2059  1.6152
18437TIP3   OH276725   0.267   5.617   6.167 -0.3586 -0.0792  0.0635
18437TIP3    H176726   0.239   5.528   6.145 -1.8378  0.6511 -1.2185
18437TIP3    H276727   0.297   5.654   6.084  0.9161  0.4331  0.7119
18438TIP3   OH276728   2.423   4.612  12.349 -0.2043 -0.5316  0.3407
18438TIP3    H176729   2.384   4.573  12.428 -0.8843 -0.4792  0.0347
18438TIP3    H276730   2.395   4.703  12.351 -0.2892 -0.5494 -0.0037
18439TIP3   OH276731   5.904   1.803   2.835  0.0451  0.4065  0.7454
18439TIP3    H176732   5.895   1.824   2.743  1.9926  1.0173  0.6504
18439TIP3    H276733   5.958   1.873   2.871 -1.3603  0.6293  2.5502
18440TIP3   OH276734   4.202   0.618  16.440 -0.0622 -0.3509 -0.1711
18440TIP3    H176735   4.247   0.672  16.377 -0.6305 -0.8688 -1.0434
18440TIP3    H276736   4.161   0.549  16.388  0.9404 -1.8462  0.9263
18441TIP3   OH276737   0.035   3.165   4.873 -0.4510 -0.2913  0.0236
18441TIP3    H176738   0.024   3.260   4.868 -2.0029 -0.4771 -0.4557
18441TIP3    H276739  -0.038   3.129   4.823  0.1014 -1.7533  0.2097
18442TIP3   OH276740   5.204   6.217   0.145 -0.6458  0.1733  0.3919
18442TIP3    H176741   5.135   6.176   0.094 -0.5202  1.1676 -0.6150
18442TIP3    H276742   5.162   6.245   0.226 -1.5968  1.3015 -0.4564
18443TIP3   OH276743   1.072   6.462  15.268 -0.2919  0.3526  0.5314
18443TIP3    H176744   0.980   6.473  15.244 -1.4785 -1.7922  3.5864
18443TIP3    H276745   1.099   6.549  15.297 -1.3869  0.9693 -0.2041
18444TIP3   OH276746   0.848   3.016  13.337 -0.1431 -0.0135 -0.3705
18444TIP3    H176747   0.825   3.108  13.350  0.9268  0.2611 -0.3517
18444TIP3    H276748   0.800   2.969  13.406 -1.2410  0.4327 -0.8113
18445TIP3   OH276749   0.528   5.488   1.668  0.0899  0.2463 -0.0532
18445TIP3    H176750   0.529   5.407   1.720  0.2152  0.2020 -0.1233
18445TIP3    H276751   0.557   5.461   1.581  1.2362  0.5589  0.2150
18446TIP3   OH276752   2.060   0.794  14.126  0.4001  0.6954 -0.5153
18446TIP3    H176753   1.981   0.824  14.081  0.0575  1.4091  0.5062
18446TIP3    H276754   2.031   0.717  14.176 -0.3238  2.3482  1.7832
18447TIP3   OH276755   4.972   1.650  16.985 -0.4003  0.0948  0.7785
18447TIP3    H176756   4.984   1.560  16.957  0.0992 -0.0156  1.3320
18447TIP3    H276757   4.894   1.648  17.040  0.6234 -0.3553  2.2799
18448TIP3   OH276758   3.636   6.212  11.236 -0.3014  0.2458 -0.0686
18448TIP3    H176759   3.682   6.251  11.162  0.6647  1.1933  0.9835
18448TIP3    H276760   3.675   6.125  11.246  0.5940  0.6749  0.2222
18449TIP3   OH276761   5.926   6.499   5.368 -0.3127  0.5182 -0.2269
18449TIP3    H176762   5.880   6.433   5.420 -0.0506  0.0217 -0.6161
18449TIP3    H276763   5.982   6.448   5.309 -0.4091  1.0789 -0.8110
18450TIP3   OH276764   6.501   5.714   5.314 -0.3465 -0.3555  0.4457
18450TIP3    H176765   6.449   5.689   5.390 -0.8931  1.6985  0.7999
18450TIP3    H276766   6.437   5.721   5.243 -0.2948  0.5001  0.4787
18451TIP3   OH276767   1.158   0.883  16.080 -0.1555  0.2319  0.1325
18451TIP3    H176768   1.107   0.819  16.030  0.0582  0.5557 -0.5060
18451TIP3    H276769   1.203   0.831  16.147 -0.3843 -0.2131 -0.0580
18452TIP3   OH276770   1.466   6.003  15.575 -0.0205 -0.2587 -0.2189
18452TIP3    H176771   1.376   6.009  15.608  0.2686 -0.6463  0.6845
18452TIP3    H276772   1.472   6.073  15.510 -1.2542 -0.8166 -0.9801
18453TIP3   OH276773   4.289   2.578  13.130  0.2005  0.0831  0.3846
18453TIP3    H176774   4.215   2.638  13.120  0.2984  0.5213  1.9406
18453TIP3    H276775   4.326   2.571  13.042 -1.7182 -0.2084 -0.4495
18454TIP3   OH276776   2.762   0.964  14.956  0.1077 -0.1939  0.0765
18454TIP3    H176777   2.806   1.022  14.894 -1.1514  0.6293 -0.0846
18454TIP3    H276778   2.827   0.896  14.975  1.6343  1.2491  0.2767
18455TIP3   OH276779   0.839   4.337   0.777 -0.4693  0.2317 -0.8130
18455TIP3    H176780   0.783   4.270   0.817 -0.0977  1.0214  1.1095
18455TIP3    H276781   0.787   4.417   0.781  0.4244  0.7852  0.1855
18456TIP3   OH276782   5.150   1.929  10.919  0.3398  0.4866 -0.9624
18456TIP3    H176783   5.244   1.936  10.902  0.5534  0.9775  0.3259
18456TIP3    H276784   5.137   1.974  11.003 -0.8961 -0.3431 -0.6764
18457TIP3   OH276785   1.886   5.993   2.681  0.3011 -0.1178  0.1793
18457TIP3    H176786   1.909   6.023   2.593  1.0713 -3.0149 -0.7294
18457TIP3    H276787   1.792   6.012   2.689  0.5165  1.4621 -0.6769
18458TIP3   OH276788   1.548   1.679  10.198 -0.5353 -0.3158 -0.3746
18458TIP3    H176789   1.498   1.761  10.203 -0.2793 -0.2118  1.0142
18458TIP3    H276790   1.635   1.705  10.169 -0.1944  0.0612  0.9030
18459TIP3   OH276791   1.451   0.926   0.855  0.1913  0.2273 -0.2600
18459TIP3    H176792   1.476   0.834   0.846  1.4384  0.4804  0.2934
18459TIP3    H276793   1.514   0.961   0.919 -0.7567  1.2711  0.1300
18460TIP3   OH276794   0.877   5.569  11.741  0.2405 -0.5424  0.9082
18460TIP3    H176795   0.957   5.522  11.718  0.5186 -0.3637  1.5143
18460TIP3    H276796   0.835   5.586  11.656  0.1185 -1.8866  0.6759
18461TIP3   OH276797   2.049   4.557  14.254 -0.3679 -0.1521 -0.3942
18461TIP3    H176798   2.026   4.646  14.278 -2.1273 -0.5795 -0.3475
18461TIP3    H276799   2.019   4.548  14.163 -1.5458 -1.0937  0.0518
18462TIP3   OH276800   4.906   6.231  13.626 -0.1966  0.1110 -0.6216
18462TIP3    H176801   4.933   6.179  13.551  3.4879 -0.3966  0.8471
18462TIP3    H276802   4.871   6.168  13.688 -1.2324  0.2519 -1.0378
18463TIP3   OH276803   6.099   1.910  16.839  0.1467 -0.1441  0.2525
18463TIP3    H176804   6.158   1.981  16.815  0.2303 -0.7301 -1.4184
18463TIP3    H276805   6.018   1.953  16.866  1.2000  0.6650  2.3554
18464TIP3   OH276806   2.083   0.970   5.267  0.2669 -0.2104 -0.0009
18464TIP3    H176807   2.150   0.921   5.316  1.2060  0.4304 -0.6094
18464TIP3    H276808   2.133   1.026   5.208 -0.8109  0.7130 -0.0648
18465TIP3   OH276809   1.310   5.534  12.259  0.2773  0.1503  0.0850
18465TIP3    H176810   1.338   5.501  12.345 -1.3505  0.4800  0.7957
18465TIP3    H276811   1.227   5.578  12.277 -0.1564  0.1293 -1.6957
18466TIP3   OH276812   3.879   3.437   3.633  0.5309  0.1973  0.9988
18466TIP3    H176813   3.967   3.400   3.634  0.0428 -1.1272 -0.5765
18466TIP3    H276814   3.837   3.402   3.711  1.6521  1.5905  2.2758
18467TIP3   OH276815   5.979   4.140  15.563  0.4416  0.1335  0.5008
18467TIP3    H176816   5.888   4.115  15.545  0.4440  0.2271  0.3642
18467TIP3    H276817   6.012   4.068  15.617  0.0793  0.4336  1.1383
18468TIP3   OH276818   2.490   4.117   4.410  0.6275  0.0169 -0.1276
18468TIP3    H176819   2.524   4.031   4.437  1.0799 -0.4973 -2.1609
18468TIP3    H276820   2.410   4.096   4.361  1.0734  0.6728 -1.1791
18469TIP3   OH276821   5.969   6.355   2.971 -0.7123 -0.0304 -0.3087
18469TIP3    H176822   6.060   6.385   2.971 -0.8055  0.2673  0.6179
18469TIP3    H276823   5.939   6.371   2.881  0.0352  0.2009 -0.5265
18470TIP3   OH276824   3.918   3.817   1.364  0.0865  0.0868  0.6097
18470TIP3    H176825   3.855   3.748   1.387  0.5902 -0.2002  1.1618
18470TIP3    H276826   3.864   3.896   1.357 -0.2358  0.0095  1.9055
18471TIP3   OH276827   1.867   4.699  16.781  0.2606  0.2546 -0.2349
18471TIP3    H176828   1.807   4.660  16.718 -1.5387 -0.5226  1.8393
18471TIP3    H276829   1.821   4.693  16.865  3.7579 -1.7257  1.7780
18472TIP3   OH276830   4.345   6.236   4.153  0.4231  0.0911 -0.5000
18472TIP3    H176831   4.415   6.187   4.110  1.3601  0.2911  0.7311
18472TIP3    H276832   4.379   6.325   4.160 -0.4082  0.4482 -0.8434
18473TIP3   OH276833   6.489   4.301  16.663  0.3129 -0.2409  0.3110
18473TIP3    H176834   6.581   4.327  16.663  0.2112  0.1283 -0.3232
18473TIP3    H276835   6.442   4.380  16.691  0.0591  0.0686 -0.9588
18474TIP3   OH276836   6.654   4.265   6.438  0.0634 -0.1656  0.2652
18474TIP3    H176837   6.713   4.312   6.380 -1.7465  0.8839 -0.8030
18474TIP3    H276838   6.566   4.294   6.413 -0.9229 -1.4536  1.9672
18475TIP3   OH276839   2.264   4.922  12.919  0.3135  0.5692 -0.2205
18475TIP3    H176840   2.297   5.011  12.923  0.3001  0.5765 -0.2815
18475TIP3    H276841   2.263   4.900  12.826 -1.1062  1.0517 -0.3590
18476TIP3   OH276842   4.388   0.658  10.656 -0.5132 -0.3974  0.0557
18476TIP3    H176843   4.409   0.717  10.584  0.1263 -0.3110  0.3033
18476TIP3    H276844   4.334   0.590  10.616  1.0548 -1.1747 -0.8538
18477TIP3   OH276845   6.214   3.908  14.500  0.3055 -0.0015  0.6351
18477TIP3    H176846   6.153   3.862  14.557  0.4022 -0.6077  0.2688
18477TIP3    H276847   6.234   3.844  14.430  0.3979  0.6191  0.0820
18478TIP3   OH276848   5.371   6.756  14.867  0.0404 -0.4657 -0.3092
18478TIP3    H176849   5.316   6.830  14.893 -2.5705 -3.2120  2.8184
18478TIP3    H276850   5.354   6.746  14.773 -3.3406  0.0979  0.1158
18479TIP3   OH276851   2.072   6.706  16.524 -0.2817  0.4150  0.3181
18479TIP3    H176852   2.152   6.758  16.517  1.1012 -1.7517 -1.3366
18479TIP3    H276853   2.059   6.695  16.619  1.9251  0.0808  0.6305
18480TIP3   OH276854   5.965   3.319  13.981  0.0508  0.5190 -0.2171
18480TIP3    H176855   5.979   3.403  13.938 -0.0293  0.4054 -0.4649
18480TIP3    H276856   5.925   3.341  14.065 -0.3153  0.7044 -0.4427
18481TIP3   OH276857   2.205   3.006  14.368  0.0424  0.2165 -0.4268
18481TIP3    H176858   2.282   3.004  14.313  0.4529  0.1314  0.1416
18481TIP3    H276859   2.131   3.006  14.307  0.4164 -2.4093 -0.9880
18482TIP3   OH276860   0.894   5.298   2.169  0.1795  0.0122 -0.0907
18482TIP3    H176861   0.845   5.271   2.092 -0.4735 -0.9082  0.6097
18482TIP3    H276862   0.834   5.356   2.217  0.3285  0.0568  0.0422
18483TIP3   OH276863   3.205   0.480  12.192  0.2616 -0.5349 -0.3537
18483TIP3    H176864   3.184   0.387  12.205 -2.2859  0.0638  0.3510
18483TIP3    H276865   3.200   0.518  12.280 -0.3731  0.5500 -0.8426
18484TIP3   OH276866   5.324   1.852  15.134 -0.3393 -0.5548 -0.3249
18484TIP3    H176867   5.300   1.944  15.128  1.5812 -0.0722 -1.4186
18484TIP3    H276868   5.373   1.846  15.217 -2.8879 -1.2695  1.2442
18485TIP3   OH276869   5.359   5.828   3.525 -0.1897  0.2999 -0.3308
18485TIP3    H176870   5.332   5.867   3.442  0.4410  0.6274 -0.3888
18485TIP3    H276871   5.417   5.893   3.564 -0.9938  0.4347  0.6774
18486TIP3   OH276872   5.741   4.484   4.239  0.1249 -0.1913  0.6964
18486TIP3    H176873   5.696   4.453   4.317 -0.7151 -0.3411  0.1640
18486TIP3    H276874   5.834   4.473   4.258 -0.0913 -0.7119  1.4687
18487TIP3   OH276875   0.159   3.374  16.228  0.1947  0.0059  0.1441
18487TIP3    H176876   0.132   3.420  16.148  2.1197  0.4758 -0.2869
18487TIP3    H276877   0.077   3.347  16.269 -0.8616 -1.0100 -2.4285
18488TIP3   OH276878   1.922   1.123  10.974  0.2378 -0.5525  0.0398
18488TIP3    H176879   1.916   1.045  11.029 -0.6550 -0.3417  0.2608
18488TIP3    H276880   1.974   1.095  10.898  1.1993 -0.9346  0.8214
18489TIP3   OH276881   5.948   5.317  10.634  0.2251 -0.1226 -0.2254
18489TIP3    H176882   5.899   5.236  10.617 -1.2636  0.5714  0.5621
18489TIP3    H276883   5.884   5.387  10.622  0.9519  0.8108  1.0787
18490TIP3   OH276884   5.640   5.966   5.546  0.4287 -0.4856 -0.3492
18490TIP3    H176885   5.639   6.024   5.622 -0.5859 -0.1163 -0.6265
18490TIP3    H276886   5.563   5.992   5.495  0.9889 -0.8372 -1.4202
18491TIP3   OH276887   4.681   5.345   2.926 -0.5803 -0.4606 -0.1580
18491TIP3    H176888   4.678   5.325   3.020  0.7624 -1.6173 -0.3346
18491TIP3    H276889   4.678   5.440   2.921 -0.7172 -0.3906  1.0509
18492TIP3   OH276890   2.144   3.353  11.843 -0.1947  0.5481  0.1700
18492TIP3    H176891   2.182   3.439  11.824 -0.0448  0.0276 -2.3229
18492TIP3    H276892   2.207   3.291  11.805 -2.5813 -0.4172 -2.6578
18493TIP3   OH276893   4.931   0.990  10.782  0.0755 -0.0056 -0.5988
18493TIP3    H176894   4.996   1.054  10.756  0.4527 -0.2545 -0.2877
18493TIP3    H276895   4.848   1.038  10.782  0.0553  0.0116 -2.2016
18494TIP3   OH276896   3.518   0.838  13.878 -0.1281 -0.0890  0.4910
18494TIP3    H176897   3.539   0.930  13.892  1.5707 -0.3039 -0.3588
18494TIP3    H276898   3.568   0.791  13.945 -1.2829 -0.3979  1.1658
18495TIP3   OH276899   5.388   3.360  13.442 -0.3348  0.1410 -0.0752
18495TIP3    H176900   5.293   3.353  13.455 -0.3402 -1.3659 -0.6970
18495TIP3    H276901   5.425   3.341  13.528 -0.5797 -0.4251 -0.0890
18496TIP3   OH276902   4.730   5.090   6.662  0.0501  0.2570  0.6218
18496TIP3    H176903   4.796   5.099   6.594 -1.8252 -0.0469 -1.3262
18496TIP3    H276904   4.733   4.997   6.686  0.4235  0.2765  0.6531
18497TIP3   OH276905   5.532   3.203   5.418  0.3903 -0.0158 -0.2545
18497TIP3    H176906   5.586   3.158   5.483  0.8339  0.5555 -0.2239
18497TIP3    H276907   5.517   3.137   5.350 -1.7400 -1.2919  1.3029
18498TIP3   OH276908   1.830   6.744  16.945 -0.2480 -0.3698  0.3058
18498TIP3    H176909   1.874   6.693  17.013 -3.3941 -3.4716  0.2962
18498TIP3    H276910   1.745   6.768  16.984 -0.2678  1.9577 -0.9641
18499TIP3   OH276911   3.154   1.693  13.255  0.1242  0.2528 -0.6032
18499TIP3    H176912   3.068   1.666  13.223 -0.0320  1.0231 -0.8720
18499TIP3    H276913   3.136   1.748  13.331  0.2688  1.6930 -1.5618
18500TIP3   OH276914   2.695   5.159   4.533 -0.4629  0.3985  0.3689
18500TIP3    H176915   2.661   5.100   4.600 -1.6248  0.0270 -0.5019
18500TIP3    H276916   2.620   5.175   4.475  0.7407 -0.1333 -1.4157
18501TIP3   OH276917   6.531   0.814   5.693 -0.7392 -0.0548 -0.0284
18501TIP3    H176918   6.559   0.866   5.617  1.1021  0.5555  0.9868
18501TIP3    H276919   6.605   0.755   5.709 -0.4408  0.8092  2.1150
18502TIP3   OH276920   4.569   3.801  13.703  0.5348 -0.0935  0.7547
18502TIP3    H176921   4.556   3.849  13.785  0.9077 -0.0333  0.7804
18502TIP3    H276922   4.576   3.709  13.730  1.0784 -0.0333  0.8414
18503TIP3   OH276923   1.996   2.127  13.489  0.6401  0.2880  0.5712
18503TIP3    H176924   1.960   2.045  13.456 -0.8774  0.6697  1.1782
18503TIP3    H276925   1.919   2.183  13.504  1.6327  1.8393  0.1280
18504TIP3   OH276926   2.645   4.809  12.692  0.2666 -0.4366 -0.0999
18504TIP3    H176927   2.684   4.729  12.729 -0.2242 -1.0850 -0.9484
18504TIP3    H276928   2.711   4.839  12.629  1.2314  0.8276  1.4339
18505TIP3   OH276929   2.766   1.729   1.277 -0.3861  0.2087 -0.3678
18505TIP3    H176930   2.711   1.656   1.307 -1.5929  0.4631 -1.8676
18505TIP3    H276931   2.795   1.702   1.190  0.9503  0.5984 -0.0614
18506TIP3   OH276932   0.355   0.361  16.415  0.3370  0.3939  0.1318
18506TIP3    H176933   0.314   0.349  16.329 -0.6963  0.3752  0.6187
18506TIP3    H276934   0.341   0.454  16.436  0.0377  0.2524  0.5606
18507TIP3   OH276935   1.765   3.665  16.131 -0.5350  0.2185  0.0084
18507TIP3    H176936   1.784   3.667  16.037 -2.1106 -1.3347 -0.3945
18507TIP3    H276937   1.829   3.603  16.167 -0.1124  0.6011 -0.0801
18508TIP3   OH276938   0.224   1.735   3.983 -0.3328 -0.0607  0.4574
18508TIP3    H176939   0.242   1.828   3.972 -0.0319 -0.1240  0.4202
18508TIP3    H276940   0.131   1.726   3.961 -0.1750  0.1041 -0.2958
18509TIP3   OH276941   3.074   6.282   1.450 -0.6635  0.3932 -0.0210
18509TIP3    H176942   3.086   6.349   1.383 -1.1752  0.4722 -0.0347
18509TIP3    H276943   3.099   6.200   1.407 -0.0764  0.5642 -0.0158
18510TIP3   OH276944   1.976   6.527  14.120  0.2876 -0.0728  0.4865
18510TIP3    H176945   2.009   6.607  14.078  1.2446 -0.0748  1.2099
18510TIP3    H276946   1.983   6.460  14.052  0.5684  0.2108  0.2313
18511TIP3   OH276947   1.891   2.554   2.543  0.0709 -0.0036 -0.3772
18511TIP3    H176948   1.797   2.555   2.524  0.1471  0.1129 -0.7454
18511TIP3    H276949   1.931   2.604   2.472  0.3072  0.8877  0.3705
18512TIP3   OH276950   0.590   4.835   1.685  0.1709  0.0535  0.4151
18512TIP3    H176951   0.663   4.773   1.684 -1.2202 -1.8122 -2.4274
18512TIP3    H276952   0.594   4.878   1.600 -1.3910  0.7017  0.6320
18513TIP3   OH276953   6.216   4.998   4.576  0.4127  0.0850  0.0450
18513TIP3    H176954   6.290   4.993   4.637 -1.3514  1.4235  2.4513
18513TIP3    H276955   6.152   4.936   4.612 -0.2843  0.1337 -1.0771
18514TIP3   OH276956   5.048   2.034   0.908  0.0236 -0.0228 -0.0197
18514TIP3    H176957   5.129   2.040   0.856  0.8342  0.5020  1.2448
18514TIP3    H276958   4.979   2.063   0.848  0.7244 -0.7617 -1.2140
18515TIP3   OH276959   2.687   6.577  16.639 -0.2193 -0.2068 -0.0478
18515TIP3    H176960   2.731   6.644  16.692 -1.1653  0.4963 -0.1366
18515TIP3    H276961   2.722   6.590  16.551 -0.9733  0.6965 -0.2254
18516TIP3   OH276962   6.465   2.272  15.342  0.8259  0.9547  0.1288
18516TIP3    H176963   6.406   2.346  15.323 -1.7810 -1.0420 -0.0617
18516TIP3    H276964   6.429   2.231  15.420  1.0915 -1.1726 -0.7930
18517TIP3   OH276965   1.940   4.899   1.837  0.1423 -0.2340  0.2131
18517TIP3    H176966   1.866   4.845   1.810 -0.6183  1.1270 -0.5327
18517TIP3    H276967   2.003   4.890   1.765 -0.1237  0.1182 -0.0673
18518TIP3   OH276968   0.914   0.969   0.201  0.0719  0.5240  0.2148
18518TIP3    H176969   0.898   0.895   0.143  0.9971 -1.0260  1.8600
18518TIP3    H276970   0.827   0.996   0.229 -0.2419 -0.4449  0.2054
18519TIP3   OH276971   0.620   0.139   1.610 -0.5788  0.2375 -0.2625
18519TIP3    H176972   0.642   0.228   1.583  0.9279  0.2829  0.9712
18519TIP3    H276973   0.641   0.136   1.704 -0.6433 -1.4004 -0.2643
18520TIP3   OH276974   4.247   5.996   2.064 -0.3641  0.0233  0.2137
18520TIP3    H176975   4.330   6.012   2.109 -1.3750 -1.4087  2.8651
18520TIP3    H276976   4.231   6.076   2.013  2.8108  0.1330 -0.8001
18521TIP3   OH276977   0.666   5.972   4.113  0.1768  0.7275  0.0820
18521TIP3    H176978   0.648   5.879   4.127  1.9926  0.5339  1.6204
18521TIP3    H276979   0.703   5.976   4.025 -1.1816  0.2177 -0.5314
18522TIP3   OH276980   2.818   2.763   0.735  0.0687 -0.0451  0.0961
18522TIP3    H176981   2.906   2.800   0.737 -0.1809  0.5861 -0.3614
18522TIP3    H276982   2.761   2.837   0.711 -0.5518 -0.5031  0.1274
18523TIP3   OH276983   5.635   3.354   3.155 -0.0956  0.0609 -0.2459
18523TIP3    H176984   5.579   3.407   3.098 -0.2897  0.2370  0.1095
18523TIP3    H276985   5.610   3.264   3.135 -1.0867  0.1573  0.4875
18524TIP3   OH276986   6.745   2.812   3.880  0.1605  0.0883 -0.3991
18524TIP3    H176987   6.819   2.778   3.931 -0.4974 -1.1059 -0.2245
18524TIP3    H276988   6.737   2.754   3.805 -0.7782  0.0338 -0.2717
18525TIP3   OH276989   2.292   5.622  11.989 -0.3918 -0.6119 -0.1941
18525TIP3    H176990   2.273   5.621  12.083  3.1761  1.8703  0.7772
18525TIP3    H276991   2.210   5.649  11.948 -1.3845  0.9262  2.5322
18526TIP3   OH276992   5.192   2.304  16.767  0.1164 -0.0516 -0.1714
18526TIP3    H176993   5.204   2.398  16.754  1.7845 -0.0455  1.0307
18526TIP3    H276994   5.212   2.290  16.860  1.7995 -1.8456 -0.7502
18527TIP3   OH276995   1.556   1.302  15.224  0.5238 -0.0577 -0.4209
18527TIP3    H176996   1.543   1.389  15.261 -0.1400  0.3655 -1.5992
18527TIP3    H276997   1.548   1.314  15.130  0.7964 -1.3351 -0.6293
18528TIP3   OH276998   3.153   5.039  12.690 -0.1652  0.6827 -0.2153
18528TIP3    H176999   3.083   5.104  12.684 -0.7040  0.0756 -0.7315
18528TIP3    H277000   3.229   5.080  12.650  0.0511  1.6904  1.1429
18529TIP3   OH277001   6.471   3.584   6.173 -0.3553 -0.0340 -0.4531
18529TIP3    H177002   6.486   3.644   6.100 -1.5524  0.5594 -0.2302
18529TIP3    H277003   6.482   3.497   6.134  2.4800  0.2752 -0.5348
18530TIP3   OH277004   2.920   1.850   3.152 -0.7370  0.0499 -0.2142
18530TIP3    H177005   2.970   1.806   3.084  2.7151 -0.0993  2.1658
18530TIP3    H277006   2.890   1.931   3.111 -0.3561 -0.8424 -2.3792
18531TIP3   OH277007   6.219   4.476   5.101  0.1809  0.3079 -0.4613
18531TIP3    H177008   6.246   4.407   5.162  1.3485  1.6204  0.5750
18531TIP3    H277009   6.128   4.495   5.124 -0.3144 -1.1693 -1.0736
18532TIP3   OH277010   5.228   2.360  14.172 -0.0794  0.5879 -0.3060
18532TIP3    H177011   5.311   2.404  14.194  0.2060  1.1021 -2.2536
18532TIP3    H277012   5.171   2.430  14.142 -0.2386 -0.1187 -1.7176
18533TIP3   OH277013   1.357   0.515  16.394  0.2357  0.1232  0.1220
18533TIP3    H177014   1.380   0.426  16.420  0.6479  0.1488 -0.1357
18533TIP3    H277015   1.294   0.544  16.459  0.7732 -0.0432  0.7292
18534TIP3   OH277016   1.478   5.000   0.579 -0.3712 -0.2712  0.8976
18534TIP3    H177017   1.462   4.911   0.612  0.7917 -0.2948  1.4598
18534TIP3    H277018   1.540   5.037   0.642  0.9974  0.1008 -0.6284
18535TIP3   OH277019   3.709   6.488   3.103 -0.6843  0.1593  0.3936
18535TIP3    H177020   3.651   6.416   3.078  0.6542 -0.3787 -1.4084
18535TIP3    H277021   3.746   6.461   3.187 -2.6072  0.2887  1.3331
18536TIP3   OH277022   0.190   5.189   1.834  0.0565  0.2437  0.1468
18536TIP3    H177023   0.266   5.231   1.875 -0.3040 -1.4489  2.8588
18536TIP3    H277024   0.115   5.234   1.873 -0.3041 -1.7747  2.0117
18537TIP3   OH277025   3.387   5.977  16.397 -0.3931 -0.0749  0.0464
18537TIP3    H177026   3.343   5.997  16.315  0.2058  0.5095 -0.1343
18537TIP3    H277027   3.421   6.061  16.429  1.0576 -0.5677 -0.0958
18538TIP3   OH277028   6.646   6.186  13.914  0.5988  0.4243  0.0748
18538TIP3    H177029   6.730   6.231  13.914  1.2304 -0.6951  0.5766
18538TIP3    H277030   6.655   6.119  13.846 -0.7903  1.8149 -1.5769
18539TIP3   OH277031   0.642   0.415   1.648 -0.2101 -0.1639 -0.1008
18539TIP3    H177032   0.586   0.490   1.628  1.6821  1.4415  0.3341
18539TIP3    H277033   0.626   0.397   1.741  1.0766  1.3212  0.4520
18540TIP3   OH277034   0.839   4.843  14.057 -0.4232 -0.4078 -0.1495
18540TIP3    H177035   0.889   4.868  14.135  0.7526 -1.2552 -0.5974
18540TIP3    H277036   0.853   4.749  14.049  0.2693 -0.2016 -1.9039
18541TIP3   OH277037   1.949   6.376   5.167  0.3836  0.0016  0.0836
18541TIP3    H177038   2.042   6.399   5.165  0.4964 -0.3773  0.6157
18541TIP3    H277039   1.909   6.429   5.098  0.9375  0.4205  0.0789
18542TIP3   OH277040   0.930   5.695  11.980 -0.1785  0.3255 -0.1751
18542TIP3    H177041   0.936   5.614  12.030  2.0803 -0.1117 -1.0396
18542TIP3    H277042   0.898   5.668  11.894 -0.9986  0.6243  0.0211
18543TIP3   OH277043   6.353   0.544   4.471  0.6542  0.5712  0.5063
18543TIP3    H177044   6.364   0.484   4.545 -1.5522  0.7777  1.0534
18543TIP3    H277045   6.263   0.531   4.443  0.9658  1.6929 -1.1260
18544TIP3   OH277046   3.456   4.200   4.311  0.4039  0.0560  0.7584
18544TIP3    H177047   3.368   4.177   4.282  0.5315  1.0475 -0.5466
18544TIP3    H277048   3.501   4.117   4.322  0.4886 -0.4580 -2.5227
18545TIP3   OH277049   5.570   1.843  13.623 -0.0148 -0.6165 -0.2617
18545TIP3    H177050   5.602   1.803  13.542  1.6110 -1.2423  0.6508
18545TIP3    H277051   5.560   1.769  13.684  1.1255  0.0820  0.8332
18546TIP3   OH277052   0.705   2.776  15.027 -0.2530  0.1625 -0.1914
18546TIP3    H177053   0.788   2.782  15.075 -0.7811  3.1964  0.4933
18546TIP3    H277054   0.726   2.806  14.939 -0.5210  0.3801 -0.1814
18547TIP3   OH277055   4.540   0.402  10.466 -0.7156  0.0634  0.3176
18547TIP3    H177056   4.540   0.307  10.450  2.8352  0.2321 -1.4696
18547TIP3    H277057   4.518   0.410  10.559 -0.3059 -2.5687  0.7160
18548TIP3   OH277058   5.393   1.119  16.608 -0.2772  0.3534  0.2175
18548TIP3    H177059   5.417   1.210  16.591 -2.2095  1.6561  3.4248
18548TIP3    H277060   5.298   1.121  16.621 -0.4298 -2.2148  0.0093
18549TIP3   OH277061   5.744   4.344  13.875  0.2735  0.3813  0.3111
18549TIP3    H177062   5.792   4.369  13.954  0.0582  0.0208  0.5546
18549TIP3    H277063   5.812   4.322  13.811  0.5200  2.2496 -0.1529
18550TIP3   OH277064   4.635   3.567   3.724  0.4538 -0.2090 -0.5018
18550TIP3    H177065   4.576   3.534   3.791 -0.4877  1.0416 -0.6656
18550TIP3    H277066   4.621   3.510   3.649 -0.5605  0.0567 -0.5308
18551TIP3   OH277067   6.691   2.765  12.488 -0.2357  0.2483 -0.2334
18551TIP3    H177068   6.729   2.849  12.461 -0.5403  0.4515 -0.0264
18551TIP3    H277069   6.650   2.783  12.572 -0.2763 -0.1168 -0.1743
18552TIP3   OH277070   3.297   4.498  16.325  0.0325  0.6472 -0.2867
18552TIP3    H177071   3.273   4.450  16.404  1.8907 -0.1708 -0.1640
18552TIP3    H277072   3.378   4.455  16.295  1.7328  3.5736 -0.2596
18553TIP3   OH277073   2.950   4.532  16.675 -0.2104  0.3522 -0.2010
18553TIP3    H177074   2.929   4.625  16.688 -0.4522  0.4106 -0.9733
18553TIP3    H277075   2.874   4.497  16.629 -0.1199 -0.2331  0.0916
18554TIP3   OH277076   5.575   5.042  16.894 -0.1309 -0.4601  0.2276
18554TIP3    H177077   5.631   5.118  16.912 -0.3078 -0.5877  1.4638
18554TIP3    H277078   5.515   5.039  16.968 -0.5982 -1.3839 -0.1730
18555TIP3   OH277079   1.134   2.346  14.211 -0.0246 -0.5333 -0.7047
18555TIP3    H177080   1.124   2.265  14.262 -0.9499 -0.1734 -0.3088
18555TIP3    H277081   1.149   2.414  14.276 -1.6033 -0.0024 -0.8697
18556TIP3   OH277082   0.880   0.634   1.549  0.5003 -0.2382  0.5535
18556TIP3    H177083   0.833   0.565   1.594  0.6763 -1.0697 -0.5087
18556TIP3    H277084   0.901   0.698   1.618 -1.9805  0.0832  1.0924
18557TIP3   OH277085   2.635   5.002  14.625 -0.1025  0.9027 -0.0656
18557TIP3    H177086   2.569   4.958  14.572 -1.4022  2.7814 -0.0933
18557TIP3    H277087   2.631   4.957  14.710 -0.2262 -0.0610 -0.5655
18558TIP3   OH277088   2.581   2.781  13.716  0.1668  0.7711 -0.6619
18558TIP3    H177089   2.525   2.704  13.718  1.4229 -0.1866  1.2849
18558TIP3    H277090   2.646   2.762  13.649  1.9276 -1.0743  1.4123
18559TIP3   OH277091   1.448   1.163   0.039  0.7554 -0.1066 -0.6528
18559TIP3    H177092   1.420   1.173  -0.052  1.8200 -0.4017 -1.0287
18559TIP3    H277093   1.435   1.250   0.078 -1.4243 -0.4340 -0.5577
18560TIP3   OH277094   5.080   4.184   3.916 -0.0244  0.1473 -0.0584
18560TIP3    H177095   5.108   4.123   3.848 -0.8134 -0.1990 -0.0741
18560TIP3    H277096   4.996   4.218   3.885 -1.0694 -1.0304  1.3485
18561TIP3   OH277097   5.679   2.003   1.628  0.6241 -0.4371  0.4045
18561TIP3    H177098   5.724   2.053   1.560  2.2731 -1.1361  0.9530
18561TIP3    H277099   5.602   1.966   1.583  0.4961  0.8788 -0.5097
18562TIP3   OH277100   2.951   2.027   0.781 -0.7195 -0.3224 -0.4024
18562TIP3    H177101   2.976   1.982   0.701  1.9213 -1.6910  1.0526
18562TIP3    H277102   2.919   1.959   0.839  2.0431 -0.2869  1.3511
18563TIP3   OH277103   5.716   0.331   5.339  0.3260  0.2736  0.1423
18563TIP3    H177104   5.677   0.396   5.280 -1.1873 -1.5976 -1.0023
18563TIP3    H277105   5.740   0.382   5.417 -0.3392  2.2887 -0.8864
18564TIP3   OH277106   3.323   3.798  15.768  0.6608 -0.2875 -0.2628
18564TIP3    H177107   3.262   3.771  15.699 -0.9854  2.0912  0.1124
18564TIP3    H277108   3.386   3.855  15.723  0.6788 -0.1811 -0.1030
18565TIP3   OH277109   1.751   5.587  13.485 -0.3883 -0.2386 -0.3937
18565TIP3    H177110   1.710   5.622  13.564 -2.5392 -0.8214 -1.1524
18565TIP3    H277111   1.823   5.646  13.466 -0.7799  0.7902  1.1510
18566TIP3   OH277112   3.654   3.909  11.131 -0.8476 -0.6445 -0.1847
18566TIP3    H177113   3.634   3.837  11.190  1.2513 -0.4116  0.9248
18566TIP3    H277114   3.700   3.973  11.187 -1.0983  0.7488 -1.5188
18567TIP3   OH277115   6.690   5.028   0.584  0.0903  0.0555 -0.4614
18567TIP3    H177116   6.748   4.954   0.566 -0.7091 -0.2980 -1.7142
18567TIP3    H277117   6.675   5.068   0.498  1.4867  2.4549  0.3161
18568TIP3   OH277118   6.469   4.706  12.524  0.2255  0.6769  0.7619
18568TIP3    H177119   6.473   4.787  12.576 -2.9329 -0.0725  2.4634
18568TIP3    H277120   6.431   4.734  12.441 -1.2448  0.9721  1.4918
18569TIP3   OH277121   4.740   1.851  16.205  0.4995  0.1312 -0.4901
18569TIP3    H177122   4.815   1.838  16.264 -1.1794  0.2055  1.7859
18569TIP3    H277123   4.704   1.763  16.194  0.5149  0.1909 -1.0159
18570TIP3   OH277124   3.550   1.163   1.116  0.0886 -0.9564 -0.2627
18570TIP3    H177125   3.566   1.202   1.202 -0.4556 -1.3741  0.0349
18570TIP3    H277126   3.475   1.211   1.081  1.6415  0.7234 -1.4787
18571TIP3   OH277127   1.607   4.900  12.283  0.5865  0.5837  0.4742
18571TIP3    H177128   1.537   4.934  12.339 -2.0312 -1.7627 -1.1520
18571TIP3    H277129   1.564   4.835  12.227  3.9449 -0.4149 -1.1892
18572TIP3   OH277130   4.321   4.254  10.390  0.2359 -0.9341 -0.6741
18572TIP3    H177131   4.347   4.162  10.397  2.6846 -0.2576  0.1529
18572TIP3    H277132   4.390   4.302  10.435 -0.4814  1.4086 -1.9034
18573TIP3   OH277133   5.538   4.411  12.492  0.0466  0.0340 -0.1356
18573TIP3    H177134   5.560   4.487  12.439 -1.0000  0.4456  0.0008
18573TIP3    H277135   5.501   4.447  12.573 -1.9319 -0.5813 -0.6971
18574TIP3   OH277136   1.539   3.336  15.769 -0.4294 -0.3980 -0.5170
18574TIP3    H177137   1.547   3.297  15.682  1.9325 -1.5442  0.1324
18574TIP3    H277138   1.576   3.424  15.759 -2.5613  0.4726 -1.2007
18575TIP3   OH277139   4.094   6.440   1.817 -0.4315  0.0067  0.0383
18575TIP3    H177140   4.150   6.512   1.846  0.5681 -1.1831  1.1685
18575TIP3    H277141   4.007   6.460   1.852 -0.5622  1.4459 -1.0275
18576TIP3   OH277142   2.653   1.307   0.512 -0.4492  0.2130 -0.4554
18576TIP3    H177143   2.716   1.316   0.583 -2.6226  0.1118  1.6318
18576TIP3    H277144   2.702   1.328   0.433  2.0881  0.3750  1.0587
18577TIP3   OH277145   6.085   5.663  10.919 -0.3503  0.4657  0.3160
18577TIP3    H177146   6.058   5.751  10.945  1.7033  1.6866 -1.3124
18577TIP3    H277147   6.058   5.656  10.827 -0.7235 -0.7408  0.4991
18578TIP3   OH277148   2.637   5.339   2.289  0.1726  0.3305  0.3530
18578TIP3    H177149   2.635   5.416   2.232 -0.5165 -0.1137 -0.2350
18578TIP3    H277150   2.546   5.328   2.317 -0.2306 -1.6967 -1.5402
18579TIP3   OH277151   3.545   0.776  16.314 -0.1892  0.0655  0.0629
18579TIP3    H177152   3.477   0.725  16.357 -0.3763 -1.2509 -1.6872
18579TIP3    H277153   3.529   0.763  16.220  2.1116  0.1839 -0.4008
18580TIP3   OH277154   3.542   6.251  16.441 -0.2106  0.1289  0.4664
18580TIP3    H177155   3.635   6.275  16.439 -0.6013  1.6984 -0.4041
18580TIP3    H277156   3.513   6.278  16.528 -0.3862  1.9723 -0.1169
18581TIP3   OH277157   2.805   2.424   4.721 -0.3636 -0.4173 -0.1288
18581TIP3    H177158   2.807   2.512   4.684  0.6547 -0.7117 -0.8315
18581TIP3    H277159   2.864   2.373   4.665 -0.2674 -1.3422  0.7747
18582TIP3   OH277160   6.257   4.871  16.627  0.5280 -0.3481 -0.3769
18582TIP3    H177161   6.223   4.812  16.560  0.8437  1.3846 -2.1592
18582TIP3    H277162   6.181   4.923  16.654  0.5503 -0.5652  0.1256
18583TIP3   OH277163   0.979   4.768  15.198 -0.7737  0.2933 -0.1475
18583TIP3    H177164   1.019   4.855  15.191  0.4618 -0.2920 -0.7403
18583TIP3    H277165   0.975   4.750  15.292  0.4099  0.3646 -0.0755
18584TIP3   OH277166   0.988   6.777  14.697 -0.0106  0.1191 -0.0300
18584TIP3    H177167   0.942   6.736  14.625  0.2880  0.8207 -0.6366
18584TIP3    H277168   0.952   6.736  14.776 -0.9003 -0.0919 -0.5386
18585TIP3   OH277169   3.447   0.681  14.898 -0.2926  0.7859  0.3814
18585TIP3    H177170   3.446   0.766  14.853  0.4566  1.8282  2.2214
18585TIP3    H277171   3.431   0.702  14.990 -0.4570 -1.1268  0.8306
18586TIP3   OH277172   3.329   3.589   2.555 -0.3812  0.1249 -0.0116
18586TIP3    H177173   3.238   3.617   2.568 -0.4594  0.3683 -1.0235
18586TIP3    H277174   3.328   3.540   2.473  0.8263  2.2619 -1.4013
18587TIP3   OH277175   5.719   0.022   0.932  0.2820  0.1500  0.4117
18587TIP3    H177176   5.676   0.102   0.964 -0.5121 -0.0991  0.0043
18587TIP3    H277177   5.650  -0.025   0.885  0.4650 -1.2493  1.4692
18588TIP3   OH277178   5.047   0.460  14.310 -0.2315 -0.3808 -0.3261
18588TIP3    H177179   5.122   0.506  14.347 -0.4287  0.7278 -1.2651
18588TIP3    H277180   5.022   0.512  14.234 -3.5370  0.7355  1.3517
18589TIP3   OH277181   5.308   3.063  10.376 -0.2282  0.2352 -0.1128
18589TIP3    H177182   5.220   3.099  10.389 -0.0265  1.3020 -1.5423
18589TIP3    H277183   5.296   2.968  10.383 -1.5783  0.3383 -0.7743
18590TIP3   OH277184   4.250   1.216   0.183  0.6338  0.7323 -0.0084
18590TIP3    H177185   4.205   1.182   0.260  1.5835  0.7263  0.5645
18590TIP3    H277186   4.189   1.201   0.110  0.2962 -0.5343  0.5153
18591TIP3   OH277187   0.589   2.195   5.496 -0.4921  0.0191 -0.7854
18591TIP3    H177188   0.671   2.148   5.513 -0.4811 -0.1351 -1.2498
18591TIP3    H277189   0.533   2.130   5.453 -1.3548 -0.2887  0.7242
18592TIP3   OH277190   5.948   2.261  14.971  1.0063  0.2237  0.4640
18592TIP3    H177191   5.853   2.258  14.978  0.9104  0.0102 -0.6947
18592TIP3    H277192   5.976   2.322  15.039  0.0113  0.6056  0.5410
18593TIP3   OH277193   0.957   0.426   4.629  0.7461 -0.6381 -0.1623
18593TIP3    H177194   0.977   0.490   4.697  0.8460 -0.5499 -0.2730
18593TIP3    H277195   0.862   0.419   4.629  0.6442  0.4617 -1.0079
18594TIP3   OH277196   3.906   3.558  15.010 -0.6889  0.2975 -0.4518
18594TIP3    H177197   3.956   3.499  14.952  0.3378 -0.7256  1.3771
18594TIP3    H277198   3.839   3.595  14.953  0.0110 -0.9461 -2.2104
18595TIP3   OH277199   5.760   5.367  14.242 -0.8542  0.1258 -0.1144
18595TIP3    H177200   5.722   5.295  14.191 -0.1711  0.1319 -0.6467
18595TIP3    H277201   5.707   5.370  14.322 -0.2174 -1.6988  0.4236
18596TIP3   OH277202   2.211   2.051   0.275  0.2641 -0.1896  0.0778
18596TIP3    H177203   2.210   2.146   0.289  0.4492 -0.4709  2.5252
18596TIP3    H277204   2.138   2.019   0.329 -2.0384 -1.2255 -3.3504
18597TIP3   OH277205   3.018   4.581  14.458  0.0944  0.1633 -0.3300
18597TIP3    H177206   3.045   4.672  14.464  1.0363 -0.1300  0.1268
18597TIP3    H277207   3.099   4.531  14.473  0.1050 -0.7560 -2.9635
18598TIP3   OH277208   2.645   3.793  14.131  0.1522 -0.0498 -0.0806
18598TIP3    H177209   2.686   3.792  14.218 -0.1332  1.0899  0.0899
18598TIP3    H277210   2.718   3.808  14.071  0.1791  0.5163  0.0886
18599TIP3   OH277211   5.587   6.234  12.390  0.0812 -0.1029  0.0305
18599TIP3    H177212   5.510   6.271  12.346 -0.0876 -0.8173 -0.2858
18599TIP3    H277213   5.560   6.146  12.415  0.1628  0.2954  1.6290
18600TIP3   OH277214   4.173   5.239  15.681  0.1594 -0.0759 -0.1011
18600TIP3    H177215   4.210   5.176  15.743 -0.9711  0.2480  0.9586
18600TIP3    H277216   4.148   5.314  15.735 -2.1595 -0.3541 -0.6874
18601TIP3   OH277217   5.968   0.445   1.620 -0.1456  0.0735  0.1386
18601TIP3    H177218   5.974   0.524   1.675  2.7619  0.7958 -1.0255
18601TIP3    H277219   5.908   0.470   1.550 -0.5878  0.6383  0.6989
18602TIP3   OH277220   3.187   2.002   0.066 -0.7982  0.4048 -0.4019
18602TIP3    H177221   3.131   1.938   0.023  0.5140 -0.5326 -0.7741
18602TIP3    H277222   3.133   2.036   0.138 -1.2944 -1.6629  0.2851
18603TIP3   OH277223   5.455   6.200   0.327 -0.1200 -0.1428 -0.7129
18603TIP3    H177224   5.430   6.109   0.315 -0.2438 -0.5124  1.7858
18603TIP3    H277225   5.379   6.240   0.369  1.0390  0.3133  1.0390
18604TIP3   OH277226   3.573   3.831  11.478  0.7334 -0.2641  0.1605
18604TIP3    H177227   3.569   3.756  11.418 -0.9210 -0.0648 -0.0099
18604TIP3    H277228   3.524   3.900  11.433  1.5699  0.6863  0.6633
18605TIP3   OH277229   6.169   5.571   4.065 -0.0447 -0.2242 -0.4482
18605TIP3    H177230   6.253   5.602   4.031 -0.3568  0.9703 -0.1875
18605TIP3    H277231   6.155   5.623   4.144 -1.1494 -0.2381 -0.6257
18606TIP3   OH277232   5.168   1.699   0.170 -0.4681  0.6254  0.2925
18606TIP3    H177233   5.240   1.716   0.109 -1.0592  1.5298 -0.1834
18606TIP3    H277234   5.089   1.707   0.117 -1.0373  2.0571  1.2784
18607TIP3   OH277235   0.596   3.211  13.413 -0.2673  0.3674  0.2264
18607TIP3    H177236   0.668   3.273  13.422  1.2033 -1.0384 -1.1284
18607TIP3    H277237   0.536   3.252  13.350 -1.3331  2.0645  2.2306
18608TIP3   OH277238   1.611   6.062   3.868 -0.6244  0.4496 -0.3622
18608TIP3    H177239   1.625   6.003   3.794 -0.2645  0.4193 -0.2741
18608TIP3    H277240   1.555   6.013   3.928 -0.0037  0.0385 -0.1084
18609TIP3   OH277241   5.641   5.244  16.598  0.1887 -0.4556 -0.0343
18609TIP3    H177242   5.660   5.283  16.513  0.0689 -0.4322 -0.0519
18609TIP3    H277243   5.635   5.319  16.657  1.0632 -0.5309  0.1501
18610TIP3   OH277244   5.530   3.042  13.862  0.3527  0.5976  0.0011
18610TIP3    H177245   5.449   3.062  13.816 -0.0272  0.6726  0.7028
18610TIP3    H277246   5.557   3.125  13.901 -0.1475  0.2192  1.2017
18611TIP3   OH277247   2.226   3.898   3.194  0.4427 -0.0618  0.4383
18611TIP3    H177248   2.242   3.964   3.262  2.2511 -0.4755  0.4625
18611TIP3    H277249   2.278   3.823   3.221  2.4386  0.2543 -2.1007
18612TIP3   OH277250   1.027   3.009   2.651 -0.0517 -0.2275 -0.3823
18612TIP3    H177251   0.943   2.987   2.611 -0.6894 -1.1689  1.3423
18612TIP3    H277252   1.011   3.092   2.696  0.0025 -0.2947 -0.2385
18613TIP3   OH277253   3.769   5.189   2.847  0.2439  0.2995  0.3427
18613TIP3    H177254   3.699   5.254   2.839 -0.4150 -0.1598  2.0487
18613TIP3    H277255   3.770   5.145   2.762 -1.9698 -0.1005  0.4590
18614TIP3   OH277256   2.180   0.681  14.564 -0.2068 -0.2299  0.0252
18614TIP3    H177257   2.267   0.711  14.541 -1.3509  3.2895 -0.3331
18614TIP3    H277258   2.185   0.586  14.558  3.0071 -0.0885 -2.0363
18615TIP3   OH277259   4.032   4.671   5.625  0.3478 -0.0221 -0.3985
18615TIP3    H177260   4.090   4.631   5.690 -0.5493  1.1758  1.2130
18615TIP3    H277261   4.075   4.754   5.602 -0.0617  0.2559 -0.1818
18616TIP3   OH277262   3.008   0.855  14.956 -0.3063 -0.7612 -0.2697
18616TIP3    H177263   3.044   0.919  15.018 -1.8912 -1.3917  1.3989
18616TIP3    H277264   3.076   0.846  14.889  0.7867  1.1965  0.4782
18617TIP3   OH277265   1.666   6.586   5.249 -0.3953 -0.1511  0.0253
18617TIP3    H177266   1.721   6.604   5.326  0.7272 -4.0174  0.3584
18617TIP3    H277267   1.729   6.571   5.178 -1.2631 -0.0099 -0.7850
18618TIP3   OH277268   5.663   6.388   3.842 -0.4927 -0.0072 -0.5909
18618TIP3    H177269   5.703   6.301   3.835 -1.0706 -0.2146 -1.4602
18618TIP3    H277270   5.613   6.398   3.761 -3.2301 -0.2773  0.9261
18619TIP3   OH277271   6.049   2.042  15.327 -0.1889  0.1039 -0.0506
18619TIP3    H177272   5.983   1.977  15.302 -0.4632  0.3423  0.0600
18619TIP3    H277273   6.008   2.093  15.397  0.1898  0.1153  0.1659
18620TIP3   OH277274   1.525   4.070  12.767  0.2183  0.2363  0.7113
18620TIP3    H177275   1.436   4.063  12.801  0.5297 -1.3808  1.2817
18620TIP3    H277276   1.557   3.980  12.764  1.6475  0.7324 -0.0074
18621TIP3   OH277277   0.605   3.256  14.057  0.2079  0.2379 -0.3851
18621TIP3    H177278   0.520   3.260  14.013 -0.4592  0.7589  0.9026
18621TIP3    H277279   0.620   3.162  14.071  1.3765 -0.1434 -3.3851
18622TIP3   OH277280   0.385   3.398   1.842  0.5933 -0.2656  1.0300
18622TIP3    H177281   0.310   3.457   1.847  1.3297  0.8848 -0.8952
18622TIP3    H277282   0.416   3.404   1.752  3.5077 -0.0754  1.9350
18623TIP3   OH277283   2.963   0.350  11.190 -0.5554 -0.0100 -0.1158
18623TIP3    H177284   2.912   0.281  11.147 -0.2503 -0.2461 -0.1004
18623TIP3    H277285   2.977   0.318  11.279 -1.5878  0.6852  0.3282
18624TIP3   OH277286   5.080   2.341   4.271 -0.3942 -0.6187  0.8046
18624TIP3    H177287   5.151   2.331   4.208 -0.4219 -0.1243  0.6877
18624TIP3    H277288   5.003   2.358   4.218 -0.6356 -1.3003  0.9234
18625TIP3   OH277289   0.523   5.848   5.487  0.3573 -0.1970 -0.0212
18625TIP3    H177290   0.554   5.883   5.571 -1.0024  0.3351  0.2954
18625TIP3    H277291   0.512   5.754   5.503  1.1409 -0.2801  0.0572
18626TIP3   OH277292   2.971   5.358   0.057 -0.5861 -0.1069  0.7079
18626TIP3    H177293   2.954   5.448   0.088  2.4273  1.1012 -0.7477
18626TIP3    H277294   3.018   5.317   0.129 -0.5063  0.0513  0.7484
18627TIP3   OH277295   3.132   5.956  12.582 -0.2283 -0.1360 -0.0580
18627TIP3    H177296   3.134   5.986  12.491  3.5734 -0.6946 -0.3227
18627TIP3    H277297   3.104   6.033  12.632  2.1412  1.6785 -1.3502
18628TIP3   OH277298   5.671   3.457   5.124 -0.9844  0.0499  0.3386
18628TIP3    H177299   5.677   3.381   5.182 -1.3355 -0.0478  0.2464
18628TIP3    H277300   5.755   3.460   5.079 -1.3029 -0.8251 -0.3397
18629TIP3   OH277301   6.600   5.052  13.415 -0.1121  0.2257  0.0435
18629TIP3    H177302   6.532   5.047  13.348  1.0620 -0.8517 -1.1400
18629TIP3    H277303   6.676   5.089  13.369  0.7259 -0.5655  0.7530
18630TIP3   OH277304   3.625   2.619  16.988  0.0349  0.3779  0.2690
18630TIP3    H177305   3.569   2.541  16.990 -0.4236  0.6988 -0.2269
18630TIP3    H277306   3.591   2.672  16.917 -0.5461  1.7057  1.4863
18631TIP3   OH277307   5.242   5.874  16.208  0.5769  0.1067  0.5381
18631TIP3    H177308   5.246   5.803  16.144 -0.0391  1.3024 -0.8916
18631TIP3    H277309   5.260   5.832  16.292 -0.3073 -1.8445 -0.1821
18632TIP3   OH277310   1.542   3.742  14.604 -0.2702  0.5180  0.1000
18632TIP3    H177311   1.495   3.823  14.587  1.1987  1.1338 -1.2746
18632TIP3    H277312   1.634   3.766  14.599  0.2331 -0.8543  1.6938
18633TIP3   OH277313   5.837   4.510  14.445  0.1626  0.0152  0.1135
18633TIP3    H177314   5.909   4.553  14.491  1.6281 -1.0229 -1.1317
18633TIP3    H277315   5.857   4.417  14.452 -1.6455 -0.3797  0.6327
18634TIP3   OH277316   3.915   1.398  12.135  0.0182  0.4460  0.0294
18634TIP3    H177317   3.941   1.321  12.186 -1.0600 -0.5077 -0.7949
18634TIP3    H277318   3.972   1.397  12.058 -0.1893  0.2850 -0.1261
18635TIP3   OH277319   1.853   1.118  16.238  0.5691  0.1545  0.3161
18635TIP3    H177320   1.857   1.213  16.248 -0.8186  0.1071  1.5707
18635TIP3    H277321   1.761   1.096  16.250  0.8085 -1.3327 -0.3301
18636TIP3   OH277322   5.421   2.238  11.284 -0.4343 -0.2230  0.5108
18636TIP3    H177323   5.432   2.226  11.189 -1.1299  0.8399  0.2713
18636TIP3    H277324   5.327   2.256  11.295 -0.3862 -0.4929  1.4279
18637TIP3   OH277325   2.834   6.512  15.088 -0.0671 -0.1036 -0.0108
18637TIP3    H177326   2.878   6.469  15.162 -0.9046  0.7534  1.0059
18637TIP3    H277327   2.903   6.523  15.023  0.4362 -1.8947  0.1746
18638TIP3   OH277328   6.266   6.678  14.379 -0.3334 -0.6526  0.9401
18638TIP3    H177329   6.332   6.727  14.428 -1.1197  2.0191 -0.4845
18638TIP3    H277330   6.216   6.633  14.447  1.6635 -1.1319  2.1838
18639TIP3   OH277331   2.565   2.688   5.970 -0.2795 -0.0391  0.4985
18639TIP3    H177332   2.634   2.626   5.947  0.9545  1.6160 -0.5043
18639TIP3    H277333   2.522   2.649   6.046  0.0654 -2.3634 -0.4131
18640TIP3   OH277334   2.757   0.636   0.501  0.0436  0.0450  0.5058
18640TIP3    H177335   2.734   0.694   0.428  2.2779  0.6071  0.1577
18640TIP3    H277336   2.795   0.695   0.566  0.3364 -0.7581  1.0771
18641TIP3   OH277337   2.024   3.773  12.990 -0.1625  0.4374 -0.0022
18641TIP3    H177338   2.044   3.805  13.078  1.3564 -2.1514  0.6907
18641TIP3    H277339   1.938   3.732  12.998  1.2239 -2.4974  1.1759
18642TIP3   OH277340   6.242   3.310   1.590 -0.1546  0.2088 -0.2753
18642TIP3    H177341   6.184   3.302   1.514 -0.6790  0.7648  0.0528
18642TIP3    H277342   6.239   3.403   1.612  2.9837  0.8339 -1.8875
18643TIP3   OH277343   0.498   1.906  12.501 -0.1786  0.0942  0.2340
18643TIP3    H177344   0.461   1.930  12.416  0.3040  0.7302  0.2002
18643TIP3    H277345   0.424   1.915  12.562 -0.6088 -0.6777 -0.1605
18644TIP3   OH277346   5.846   4.622  12.237  0.0608  0.3370 -0.3418
18644TIP3    H177347   5.802   4.538  12.250 -1.2541  1.1659  0.8245
18644TIP3    H277348   5.881   4.617  12.148  1.4841 -2.0768  0.2568
18645TIP3   OH277349   1.215   0.915   1.621 -0.1996 -0.1434  0.5461
18645TIP3    H177350   1.224   0.868   1.703  0.1142  0.0266  0.6095
18645TIP3    H277351   1.175   0.852   1.561  0.6440 -0.6378  0.4958
18646TIP3   OH277352   1.591   5.214  12.963  0.0527 -0.1098 -0.5918
18646TIP3    H177353   1.596   5.286  12.900 -0.8138  0.4151 -0.0801
18646TIP3    H277354   1.570   5.137  12.910  1.3397 -0.0766 -1.1950
18647TIP3   OH277355   5.828   6.309  16.016  0.0088 -0.3097  0.0877
18647TIP3    H177356   5.791   6.265  16.093 -1.5125  0.4787 -0.1744
18647TIP3    H277357   5.847   6.397  16.046 -2.3466  0.6002 -0.8698
18648TIP3   OH277358   3.514   5.693  13.477  0.3115 -0.5468 -0.1655
18648TIP3    H177359   3.605   5.680  13.504  0.7334  1.1239 -0.6492
18648TIP3    H277360   3.514   5.779  13.434 -1.5850 -0.3134  0.2193
18649TIP3   OH277361   3.449   4.398   1.376 -0.1034 -0.1029  0.8035
18649TIP3    H177362   3.461   4.327   1.439  0.8952 -0.7466 -0.0893
18649TIP3    H277363   3.428   4.474   1.430 -1.8814 -1.1913  1.7380
18650TIP3   OH277364   2.750   3.633  12.227  0.1435 -0.2388  0.0302
18650TIP3    H177365   2.841   3.610  12.246 -0.2440 -0.6296  1.5395
18650TIP3    H277366   2.747   3.728  12.236  0.1117 -0.3578  1.3648
18651TIP3   OH277367   3.515   6.139  12.266  0.6502  0.5327  0.0311
18651TIP3    H177368   3.499   6.045  12.263 -0.5900  0.7333  0.0716
18651TIP3    H277369   3.469   6.170  12.345  1.0015  1.1793 -0.0044
18652TIP3   OH277370   1.583   1.966   4.532 -0.0217  0.5066  0.3462
18652TIP3    H177371   1.556   1.874   4.527 -0.5881  0.6740  0.2400
18652TIP3    H277372   1.606   1.979   4.624 -1.0938  0.5720  0.6201
18653TIP3   OH277373   2.210   4.532  11.222  0.2889 -0.4559  0.0157
18653TIP3    H177374   2.180   4.623  11.226  0.3728 -0.4446  0.4496
18653TIP3    H277375   2.299   4.535  11.257  0.5448 -0.6010 -0.6086
18654TIP3   OH277376   3.845   2.882  11.798  0.5026  0.3182 -0.1934
18654TIP3    H177377   3.826   2.878  11.704  1.0031  2.1264 -0.4120
18654TIP3    H277378   3.924   2.830  11.809 -1.5183 -3.0382 -0.0973
18655TIP3   OH277379   3.519   2.499  14.991  0.0159 -0.4819 -0.3884
18655TIP3    H177380   3.501   2.418  14.943  0.5863 -1.0022  0.2499
18655TIP3    H277381   3.614   2.498  15.006  0.1051  0.5434 -0.7734
18656TIP3   OH277382   1.433   1.829  16.838  0.0773 -0.0990  0.0289
18656TIP3    H177383   1.345   1.849  16.804  0.4722 -0.3106 -1.1648
18656TIP3    H277384   1.434   1.734  16.846  0.4400 -0.1640 -0.6915
18657TIP3   OH277385   1.253   4.577  14.175 -0.5520  0.0304  0.4199
18657TIP3    H177386   1.272   4.671  14.177  1.4153 -0.3186  0.3617
18657TIP3    H277387   1.330   4.536  14.214  0.2367 -1.7495 -2.6243
18658TIP3   OH277388   2.487   3.354   3.122 -0.0294 -0.3787  0.0170
18658TIP3    H177389   2.543   3.368   3.046 -0.1902  0.9502  0.1106
18658TIP3    H277390   2.517   3.272   3.160  1.1238 -0.2392 -0.5549
18659TIP3   OH277391   0.859   1.223  14.318 -0.6548  0.1295  0.0397
18659TIP3    H177392   0.864   1.154  14.385  1.6527 -0.0861 -0.2835
18659TIP3    H277393   0.771   1.213  14.281 -1.0506 -1.4196  1.2588
18660TIP3   OH277394   2.355   3.587   1.066  0.0739  0.4534 -0.0378
18660TIP3    H177395   2.303   3.544   1.134 -1.2396  1.0128 -0.6524
18660TIP3    H277396   2.390   3.665   1.108 -2.0370  1.6462 -0.3852
18661TIP3   OH277397   2.466   0.332  16.068  0.3190  0.1945  0.0765
18661TIP3    H177398   2.430   0.401  16.124 -0.2664 -1.4919  1.9132
18661TIP3    H277399   2.397   0.316  16.003  0.7020  1.6919 -0.7310
18662TIP3   OH277400   5.166   3.476   1.862  0.0838 -0.6454 -0.2795
18662TIP3    H177401   5.079   3.443   1.885 -0.3964  0.1755 -0.8510
18662TIP3    H277402   5.203   3.506   1.945 -0.2083 -0.9268 -0.0437
18663TIP3   OH277403   4.838   0.514   0.948 -0.3682  0.1665 -0.2345
18663TIP3    H177404   4.808   0.492   1.036 -0.2581 -0.3990 -0.3337
18663TIP3    H277405   4.929   0.483   0.946  0.1863  1.6834  0.0058
18664TIP3   OH277406   0.498   0.036   5.493  0.0602  0.1907 -0.3368
18664TIP3    H177407   0.424  -0.015   5.526 -0.7965  1.1986 -0.6603
18664TIP3    H277408   0.517   0.100   5.561  0.4274  0.1500 -0.3955
18665TIP3   OH277409   5.991   4.553  12.587 -0.0444 -0.0425 -0.3440
18665TIP3    H177410   6.081   4.559  12.619  0.2277 -1.0307 -0.8729
18665TIP3    H277411   5.957   4.473  12.628 -0.6195  0.2196 -0.3066
18666TIP3   OH277412   1.047   5.695   2.754  0.0585  0.4915 -0.3935
18666TIP3    H177413   0.970   5.739   2.792  1.0479  0.0909  2.3487
18666TIP3    H277414   1.068   5.626   2.817  2.5599  0.4626 -1.1404
18667TIP3   OH277415   1.727   6.380  14.108  0.5954 -0.3070 -0.2213
18667TIP3    H177416   1.818   6.402  14.124  0.4138 -0.2689  0.8288
18667TIP3    H277417   1.718   6.289  14.135  0.4964 -0.5718 -1.0919
18668TIP3   OH277418   0.055   5.096   5.247  0.8942  0.3855 -0.4530
18668TIP3    H177419   0.075   5.188   5.264 -1.3358  0.4086  2.9451
18668TIP3    H277420  -0.030   5.098   5.203 -0.0498  0.0006  1.2657
18669TIP3   OH277421   2.400   4.762   1.740 -0.0017  0.1195  0.1988
18669TIP3    H177422   2.339   4.804   1.800 -0.2505  0.8221 -0.5325
18669TIP3    H277423   2.483   4.808   1.755  0.2487 -0.5337  0.8723
18670TIP3   OH277424   3.361   1.511   5.370 -0.2059  0.1433  0.2210
18670TIP3    H177425   3.335   1.584   5.426  0.6076  1.1759 -0.6856
18670TIP3    H277426   3.284   1.492   5.317 -0.0793  1.1660 -0.3636
18671TIP3   OH277427   4.731   2.867   3.264 -0.5096 -0.4027  0.8280
18671TIP3    H177428   4.688   2.941   3.220 -0.0239 -1.9375 -2.4985
18671TIP3    H277429   4.661   2.804   3.279 -0.4251 -0.5005  0.8145
18672TIP3   OH277430   1.551   5.973   0.136 -0.6213  0.0223 -0.2604
18672TIP3    H177431   1.553   6.068   0.153 -0.7129  0.0606 -0.4653
18672TIP3    H277432   1.464   5.956   0.101 -0.5209 -0.0983 -0.4549
18673TIP3   OH277433   3.406   0.194   3.890 -0.6031 -0.0251  0.2461
18673TIP3    H177434   3.407   0.119   3.948 -0.4725 -0.2434 -0.0356
18673TIP3    H277435   3.498   0.212   3.872 -0.6463 -0.0427  0.0023
18674TIP3   OH277436   4.012   3.607   5.358 -0.6431 -0.4045  0.3335
18674TIP3    H177437   4.058   3.601   5.274 -2.2459 -0.4754 -0.5863
18674TIP3    H277438   4.017   3.519   5.395  0.3643 -0.2914  0.5027
18675TIP3   OH277439   5.498   5.212  16.199  0.1960 -0.2026  0.6707
18675TIP3    H177440   5.523   5.187  16.288 -0.2038 -0.3091  0.7572
18675TIP3    H277441   5.520   5.305  16.192  0.5838 -0.2880  0.7499
18676TIP3   OH277442   2.632   4.915  16.396 -0.6156 -0.3642  0.3202
18676TIP3    H177443   2.724   4.933  16.414 -0.6446 -0.4972  0.6132
18676TIP3    H277444   2.620   4.942  16.305 -0.3237 -0.2105  0.3235
18677TIP3   OH277445   0.475   0.029   5.942  0.0595 -0.5684 -0.0869
18677TIP3    H177446   0.392   0.058   5.904  0.0351 -2.0952 -1.3015
18677TIP3    H277447   0.489  -0.059   5.905  0.3334 -1.9587  3.0376
18678TIP3   OH277448   4.381   3.344  13.838  0.3259  0.3684  0.4752
18678TIP3    H177449   4.389   3.341  13.933  1.3628  0.4750  0.4015
18678TIP3    H277450   4.322   3.272  13.817  1.5266 -0.8396  1.0707
18679TIP3   OH277451   2.005   0.637  11.709  0.1976 -0.3804  0.4737
18679TIP3    H177452   2.088   0.609  11.671 -0.3468 -1.4745  0.0161
18679TIP3    H277453   2.001   0.592  11.793  0.0749 -0.3170  0.5022
18680TIP3   OH277454   5.621   2.877  12.291  0.1864  0.1801 -0.1031
18680TIP3    H177455   5.572   2.796  12.281  2.4923 -1.3699  0.3608
18680TIP3    H277456   5.608   2.924  12.209 -1.4447 -0.4581 -0.2549
18681TIP3   OH277457   2.322   1.872   2.006  0.2476  0.6997  0.3126
18681TIP3    H177458   2.300   1.792   2.053 -2.0306  2.1129  1.8643
18681TIP3    H277459   2.361   1.929   2.072  0.1485  1.5257 -0.3230
18682TIP3   OH277460   3.387   0.340  13.231 -0.7237  0.0413 -0.2031
18682TIP3    H177461   3.372   0.390  13.150  0.6789  0.8975  0.0395
18682TIP3    H277462   3.482   0.332  13.237 -0.8659 -1.2078  0.6647
18683TIP3   OH277463   5.146   0.327  12.061  0.0888 -0.0061  0.3053
18683TIP3    H177464   5.186   0.393  12.004  0.2969 -2.4531 -2.6573
18683TIP3    H277465   5.220   0.274  12.091 -0.1994  0.2265  1.4403
18684TIP3   OH277466   1.404   3.946  14.780 -0.0130 -0.3191  0.2280
18684TIP3    H177467   1.378   4.016  14.840 -1.7877 -2.7147  2.4507
18684TIP3    H277468   1.474   3.900  14.825  0.1159 -0.8942 -0.5262
18685TIP3   OH277469   3.333   0.035  12.296  0.1961  0.3731 -0.2319
18685TIP3    H177470   3.310  -0.057  12.311  0.4448  0.7999  3.8790
18685TIP3    H277471   3.301   0.053  12.207 -2.0805 -2.9920 -0.3125
18686TIP3   OH277472   4.202   6.755   1.247 -0.1767  0.4601 -0.2186
18686TIP3    H177473   4.110   6.759   1.223 -0.9070 -1.9882  1.6554
18686TIP3    H277474   4.201   6.745   1.343  1.8645 -1.6320 -0.3088
18687TIP3   OH277475   6.183   3.841  16.110  0.6744  0.3721  0.2494
18687TIP3    H177476   6.112   3.867  16.169  2.0412 -0.4475  2.4100
18687TIP3    H277477   6.257   3.823  16.169  1.9433 -1.1641 -1.6871
18688TIP3   OH277478   1.677   1.080  15.355 -0.3524  0.1120 -0.7116
18688TIP3    H177479   1.661   1.166  15.316 -1.1424  0.2914 -0.0255
18688TIP3    H277480   1.675   1.096  15.449 -0.1581 -0.6045 -0.5820
18689TIP3   OH277481   6.129   2.181   2.701  0.4520  0.0682  0.6455
18689TIP3    H177482   6.202   2.242   2.703  0.1189  0.5479 -0.6285
18689TIP3    H277483   6.075   2.211   2.628  0.3630 -1.8339 -0.1406
18690TIP3   OH277484   6.033   6.191   2.143  0.1079 -0.2446 -0.0229
18690TIP3    H177485   5.991   6.218   2.224 -1.1528 -0.6830 -0.5073
18690TIP3    H277486   6.011   6.098   2.135 -2.5114  0.4426 -2.4110
18691TIP3   OH277487   2.143   3.446  10.770 -0.0234 -0.8360 -0.5234
18691TIP3    H177488   2.128   3.512  10.703  1.1708  0.6857  0.6210
18691TIP3    H277489   2.072   3.460  10.833 -0.5908 -1.6185 -0.9803
18692TIP3   OH277490   4.382   4.691   5.381 -0.3492  0.0613  0.4652
18692TIP3    H177491   4.385   4.707   5.287  0.8661  1.1087  0.6572
18692TIP3    H277492   4.346   4.602   5.389 -0.0425 -0.2205 -0.9939
18693TIP3   OH277493   6.712   5.986   5.542 -0.1187 -0.4049 -0.3713
18693TIP3    H177494   6.686   5.909   5.593 -2.0399 -0.5608 -1.4979
18693TIP3    H277495   6.668   6.059   5.585 -0.3059 -0.2915 -0.7529
18694TIP3   OH277496   3.303   0.776  11.721 -0.0024  0.8557  0.3624
18694TIP3    H177497   3.308   0.821  11.806  1.7108  0.5482  0.4663
18694TIP3    H277498   3.394   0.770  11.693 -0.5501  0.9944 -1.5424
18695TIP3   OH277499   3.574   6.396   1.986 -0.1569 -0.7532 -0.2921
18695TIP3    H177500   3.490   6.354   1.972 -0.5139 -0.0098 -0.4449
18695TIP3    H277501   3.567   6.479   1.939  0.3860 -0.3499  0.3214
18696TIP3   OH277502   3.857   6.173   1.102 -0.0248  0.5047  0.0380
18696TIP3    H177503   3.925   6.107   1.093 -0.7156 -0.3426  0.8602
18696TIP3    H277504   3.775   6.126   1.089 -0.5091  1.2958  0.1380
18697TIP3   OH277505   1.440   1.248   2.638 -0.2841 -0.3186  0.2036
18697TIP3    H177506   1.378   1.209   2.577 -0.4855  0.8364 -0.3592
18697TIP3    H277507   1.411   1.339   2.646 -0.5564 -0.5631  2.4195
18698TIP3   OH277508   1.731   4.722  14.361  0.5096  0.7444 -0.4435
18698TIP3    H177509   1.801   4.773  14.320  0.1081  2.5471  1.0026
18698TIP3    H277510   1.770   4.688  14.441  0.3826 -0.2232 -0.7681
18699TIP3   OH277511   3.703   6.065   2.776  0.2285  0.3586  0.4772
18699TIP3    H177512   3.773   6.095   2.834  1.5026 -1.6409  0.0724
18699TIP3    H277513   3.734   6.091   2.688  0.7066 -0.8911  0.2574
18700TIP3   OH277514   1.047   5.774  16.156  0.0707  0.7603 -0.1970
18700TIP3    H177515   1.142   5.785  16.150  0.2026 -0.8595 -3.7343
18700TIP3    H277516   1.035   5.712  16.229  2.0253 -0.9191 -1.1822
18701TIP3   OH277517   5.327   2.549   4.284  0.1076  0.0940  0.2163
18701TIP3    H177518   5.248   2.566   4.336 -0.4786 -4.0435  1.0382
18701TIP3    H277519   5.303   2.478   4.226  2.7345 -0.0119 -0.8867
18702TIP3   OH277520   1.442   2.525  10.536  0.3106  0.2402 -0.3286
18702TIP3    H177521   1.439   2.603  10.480  0.2858 -0.5525 -1.4660
18702TIP3    H277522   1.465   2.454  10.476 -2.1812 -1.0800  0.1516
18703TIP3   OH277523   5.725   5.464  11.446  0.7044  0.1377 -0.5585
18703TIP3    H177524   5.784   5.501  11.512  0.9649  0.6762 -1.0789
18703TIP3    H277525   5.764   5.490  11.363  0.3259 -0.4493 -0.9280
18704TIP3   OH277526   2.476   0.485   1.114 -0.2546  0.1813 -0.1916
18704TIP3    H177527   2.434   0.570   1.101  0.1007  0.7672  2.1279
18704TIP3    H277528   2.562   0.506   1.152 -1.7137 -1.1628  4.5181
18705TIP3   OH277529   4.112   6.431  11.573  0.4971 -0.0967 -0.3563
18705TIP3    H177530   4.202   6.463  11.574  0.3563  0.3538 -1.3098
18705TIP3    H277531   4.119   6.341  11.604  0.9637  0.6256  1.8278
18706TIP3   OH277532   1.240   2.536  10.744 -0.3725 -0.2982  0.1109
18706TIP3    H177533   1.253   2.608  10.682  0.1731  0.2160  0.8062
18706TIP3    H277534   1.300   2.468  10.715  1.4692  0.7539  1.2910
18707TIP3   OH277535   2.013   2.075  16.950  0.3552  0.3443  0.7849
18707TIP3    H177536   2.099   2.063  16.990  1.4951  0.7446 -1.4384
18707TIP3    H277537   1.977   2.151  16.996  1.2140  0.2456  1.6678
18708TIP3   OH277538   6.522   4.251  15.742  0.0622  0.1214  0.3670
18708TIP3    H177539   6.481   4.319  15.796 -0.2007 -0.1091  0.4551
18708TIP3    H277540   6.615   4.256  15.764  0.0767  0.6108  0.2038
18709TIP3   OH277541   3.530   4.357   5.308 -0.3073 -0.4915 -0.3663
18709TIP3    H177542   3.548   4.271   5.271  0.5923 -1.1924  1.5714
18709TIP3    H277543   3.485   4.339   5.391  1.4177  0.7880  0.9168
18710TIP3   OH277544   3.822   1.835   4.568 -0.1371 -0.0173  0.0129
18710TIP3    H177545   3.861   1.748   4.568 -0.3605 -0.1324  1.0652
18710TIP3    H277546   3.757   1.833   4.639  1.5209  1.7056  1.7242
18711TIP3   OH277547   5.302   5.018  11.448  0.1238  0.6883 -0.1493
18711TIP3    H177548   5.207   5.016  11.460  0.0159  0.3052 -0.9893
18711TIP3    H277549   5.328   4.926  11.451  0.1858  0.6220 -1.9256
18712TIP3   OH277550   4.814   6.170   3.346  0.1829 -0.2868  0.2460
18712TIP3    H177551   4.853   6.114   3.413  0.4732 -0.3434  0.0309
18712TIP3    H277552   4.801   6.112   3.270  0.2730 -0.1180  0.1006
18713TIP3   OH277553   1.407   4.906  15.678 -0.0715  0.1763  0.8882
18713TIP3    H177554   1.343   4.937  15.742  0.3943  2.2357  0.4160
18713TIP3    H277555   1.446   4.829  15.719 -0.4215  0.9083  2.7044
18714TIP3   OH277556   3.512   1.687  14.463 -0.8472  0.1952  0.8875
18714TIP3    H177557   3.549   1.764  14.506 -0.7719 -0.9464  2.9746
18714TIP3    H277558   3.587   1.628  14.453 -0.9286  0.3032 -0.5841
18715TIP3   OH277559   6.129   1.457  16.165 -0.0905  0.3428 -0.3587
18715TIP3    H177560   6.079   1.483  16.087 -0.2934 -1.2268 -0.7950
18715TIP3    H277561   6.135   1.361  16.159  0.6785  0.2640  1.0908
18716TIP3   OH277562   5.012   2.866   0.261 -0.1280 -0.0479  0.3105
18716TIP3    H177563   5.101   2.892   0.285  0.0738  0.1089 -0.5621
18716TIP3    H277564   4.996   2.786   0.311 -0.2282  0.9403  1.9417
18717TIP3   OH277565   6.432   2.160  16.503 -0.3209  0.1228 -0.5187
18717TIP3    H177566   6.388   2.135  16.422  0.8794 -0.1704 -1.0990
18717TIP3    H277567   6.488   2.234  16.479 -2.6527  2.5294  0.8550
18718TIP3   OH277568   4.963   5.931  16.146 -0.8446 -0.3418 -0.4219
18718TIP3    H177569   4.972   6.026  16.146  0.0677 -0.4145 -0.7992
18718TIP3    H277570   5.052   5.899  16.165 -0.9355 -1.1220 -1.2308
18719TIP3   OH277571   0.811   6.001  17.015  0.0214  0.3033  0.3718
18719TIP3    H177572   0.814   6.065  17.086  1.0882 -0.7647  1.3370
18719TIP3    H277573   0.891   6.018  16.964  0.0248  0.1147  0.3110
18720TIP3   OH277574   5.934   4.518   3.106 -0.2705  0.4357 -0.6477
18720TIP3    H177575   5.999   4.519   3.035  0.0834  0.2928 -0.3295
18720TIP3    H277576   5.897   4.430   3.102 -0.2609  0.4325 -0.6670
18721TIP3   OH277577   2.888   2.933  10.625 -0.2785  0.2335 -0.9179
18721TIP3    H177578   2.940   3.013  10.617  0.3097 -0.1925 -1.4428
18721TIP3    H277579   2.816   2.944  10.562 -1.8755  1.5805  1.0171
18722TIP3   OH277580   3.032   0.614  15.929  0.0264  0.2469  0.5214
18722TIP3    H177581   3.023   0.670  15.852  1.1490  0.6713  0.6783
18722TIP3    H277582   3.104   0.654  15.979 -1.3143  0.5527  2.2853
18723TIP3   OH277583   0.267   3.832   0.182 -0.5151 -0.2435  0.3543
18723TIP3    H177584   0.206   3.772   0.137  0.8999 -0.9639 -0.7010
18723TIP3    H277585   0.246   3.822   0.275 -1.1433 -1.4543  0.1090
18724TIP3   OH277586   5.018   1.228   2.648  0.3931 -0.4438  0.4504
18724TIP3    H177587   5.113   1.224   2.634  0.3043  0.5180 -0.6642
18724TIP3    H277588   5.008   1.254   2.739  1.3960  4.5007 -0.5707
18725TIP3   OH277589   6.223   3.573  15.428 -0.2503 -0.3743 -0.6079
18725TIP3    H177590   6.132   3.573  15.399 -0.0108  0.1512 -1.3974
18725TIP3    H277591   6.266   3.508  15.373 -0.1601 -0.7042 -0.1597
18726TIP3   OH277592   6.550   0.482   2.748 -0.2743  0.0411  0.2373
18726TIP3    H177593   6.577   0.474   2.839  0.0523  0.0469  0.1420
18726TIP3    H277594   6.539   0.392   2.718 -0.3666  0.0389  0.2770
18727TIP3   OH277595   5.955   3.985   0.892  0.1237 -0.2708 -0.6574
18727TIP3    H177596   5.987   4.019   0.809  0.9189  1.0305  0.1597
18727TIP3    H277597   5.896   4.052   0.925  1.4208  0.2251  0.7954
18728TIP3   OH277598   0.674   3.809  14.720  0.1800 -0.3064  0.3755
18728TIP3    H177599   0.661   3.837  14.630 -0.1633 -0.2649  0.4380
18728TIP3    H277600   0.707   3.720  14.713 -2.7417 -1.4880  0.2522
18729TIP3   OH277601   6.140   2.000  14.587  0.0669 -0.2098 -0.7992
18729TIP3    H177602   6.204   2.013  14.517  1.3124  0.3236  0.3861
18729TIP3    H277603   6.063   2.048  14.557  1.4620  2.2881 -0.6911
18730TIP3   OH277604   1.951   6.557   3.964 -0.4940  0.2132  0.4102
18730TIP3    H177605   1.889   6.610   3.914  2.3504  0.6315 -3.1171
18730TIP3    H277606   1.903   6.477   3.985 -2.0203 -0.0111 -3.1315
18731TIP3   OH277607   1.232   3.859  11.397  0.3853 -0.1839 -0.0192
18731TIP3    H177608   1.252   3.837  11.488 -0.8985 -0.3744  0.2306
18731TIP3    H277609   1.316   3.849  11.351  0.7145 -1.6538  0.8358
18732TIP3   OH277610   5.927   5.502  14.661 -0.2517  0.6634 -0.5377
18732TIP3    H177611   5.845   5.523  14.705 -0.0736 -0.3368  0.2946
18732TIP3    H277612   5.924   5.408  14.647  0.8990  0.5529 -0.1648
18733TIP3   OH277613   6.816   6.786  16.305  0.3593 -0.3053  0.1741
18733TIP3    H177614   6.855   6.836  16.377 -0.1483  1.1584 -0.5336
18733TIP3    H277615   6.803   6.698  16.341 -0.4603  0.5506  2.0662
18734TIP3   OH277616   5.389   2.998   5.295  0.1633  0.3009  0.2139
18734TIP3    H177617   5.365   2.906   5.288 -0.8109  0.4556  1.2325
18734TIP3    H277618   5.337   3.041   5.226  1.3374 -0.0075 -0.9059
18735TIP3   OH277619   6.381   0.552   0.651 -0.4425  0.5385 -0.3433
18735TIP3    H177620   6.421   0.483   0.705  0.9477  1.5857  0.0208
18735TIP3    H277621   6.454   0.585   0.597 -1.5372  0.3294 -2.0293
18736TIP3   OH277622   6.812   3.460  15.682 -0.5815  0.2976 -0.6911
18736TIP3    H177623   6.757   3.400  15.631 -0.2473 -0.3382 -0.3054
18736TIP3    H277624   6.753   3.532  15.705 -0.9923  0.1111 -1.1368
18737TIP3   OH277625   0.696   4.791   0.354 -0.5906 -0.1401 -0.1708
18737TIP3    H177626   0.746   4.797   0.272  0.9618  1.9796  0.8332
18737TIP3    H277627   0.605   4.785   0.326 -0.0553 -0.0304 -2.0668
18738TIP3   OH277628   2.151   0.180  16.685  0.0058 -0.1083 -0.7142
18738TIP3    H177629   2.204   0.181  16.765 -1.1461 -0.0889  0.0671
18738TIP3    H277630   2.213   0.156  16.616  1.8823  3.3191 -0.4507
18739TIP3   OH277631   2.479   6.746   2.005 -0.3758 -0.2214  0.0693
18739TIP3    H177632   2.551   6.741   1.942  1.2529  1.2048  1.7146
18739TIP3    H277633   2.401   6.728   1.953  1.1327 -1.9192 -1.7680
18740TIP3   OH277634   1.073   3.106   1.025  0.1489  0.6560  0.0806
18740TIP3    H177635   1.087   3.178   1.087 -0.8111 -0.7391  2.0352
18740TIP3    H277636   1.042   3.034   1.079 -0.5123 -0.7405 -2.0339
18741TIP3   OH277637   3.874   1.232  11.416  0.2641 -0.2906  0.2632
18741TIP3    H177638   3.784   1.200  11.404 -0.0236  0.6835 -0.3458
18741TIP3    H277639   3.912   1.231  11.328  0.6061 -0.0242  0.4051
18742TIP3   OH277640   0.857   1.244   0.721  0.0004 -0.7697 -0.4985
18742TIP3    H177641   0.820   1.330   0.701  2.2960  0.3875 -0.1200
18742TIP3    H277642   0.913   1.258   0.797 -0.9776 -3.0277  0.7335
18743TIP3   OH277643   6.389   5.300   1.207  1.0249 -0.0439 -0.2617
18743TIP3    H177644   6.336   5.328   1.132  2.5246  1.0642 -0.9813
18743TIP3    H277645   6.470   5.267   1.167  0.8166 -1.9445  0.7821
18744TIP3   OH277646   3.839   6.181   5.510 -0.4616 -0.0645  0.4910
18744TIP3    H177647   3.881   6.118   5.569  2.9812 -0.7209 -2.2893
18744TIP3    H277648   3.827   6.133   5.428  0.2192  2.1859 -1.0509
18745TIP3   OH277649   3.234   0.691  16.107  0.0951  0.3905 -0.1609
18745TIP3    H177650   3.324   0.687  16.075 -0.2678 -1.6445 -1.0351
18745TIP3    H277651   3.240   0.672  16.200  0.5614  0.1838 -0.2329
18746TIP3   OH277652   4.064   5.445  16.396 -0.0393  0.1005 -0.0252
18746TIP3    H177653   4.060   5.369  16.338 -1.1176 -0.4403  0.7393
18746TIP3    H277654   3.973   5.462  16.420  0.1568  1.7383 -0.2931
18747TIP3   OH277655   6.440   5.572  15.979  0.1894 -0.0788 -0.4353
18747TIP3    H177656   6.521   5.556  15.930  0.7847  0.7368  0.2410
18747TIP3    H277657   6.370   5.554  15.917  0.9208  1.0440 -1.6456
18748TIP3   OH277658   1.905   4.845   0.453  0.2359 -0.3034 -0.5775
18748TIP3    H177659   1.932   4.775   0.513 -2.1396 -0.5551  0.3202
18748TIP3    H277660   1.862   4.909   0.508  2.2889  1.9327 -1.4108
18749TIP3   OH277661   4.172   4.763  14.354  0.7599 -0.2137  0.0166
18749TIP3    H177662   4.262   4.742  14.379 -0.1792 -2.9037  1.5528
18749TIP3    H277663   4.146   4.833  14.413  1.1047 -1.1507  1.3253
18750TIP3   OH277664   2.317   0.671   6.059  0.5547 -0.1810  0.0548
18750TIP3    H177665   2.318   0.601   5.993  0.4326  0.1532 -0.3051
18750TIP3    H277666   2.230   0.667   6.098  0.8451 -0.8005  0.6549
18751TIP3   OH277667   5.084   6.256  12.138  0.4909  0.3652  0.2084
18751TIP3    H177668   5.014   6.281  12.198  0.1261 -1.1080  0.4442
18751TIP3    H277669   5.068   6.308  12.059 -0.0549  1.0504  0.7639
18752TIP3   OH277670   2.450   4.294  16.395  0.2893  0.0471  0.0465
18752TIP3    H177671   2.529   4.330  16.355 -1.6521  0.8570 -3.4696
18752TIP3    H277672   2.449   4.202  16.369  1.2173 -0.6172  2.1846
18753TIP3   OH277673   1.617   0.641   5.482  0.3118 -0.5782 -0.2336
18753TIP3    H177674   1.710   0.662   5.473 -0.1709  1.1881 -1.7125
18753TIP3    H277675   1.591   0.683   5.564  0.3886  0.7462 -0.8638
18754TIP3   OH277676   6.007   3.868   5.262 -0.7385 -0.0219  0.7533
18754TIP3    H177677   6.102   3.861   5.268 -0.6726 -2.0609 -1.1894
18754TIP3    H277678   5.985   3.946   5.313  2.0192  0.8759  0.7282
18755TIP3   OH277679   0.452   1.532  16.249  0.4398 -0.0149  0.1610
18755TIP3    H177680   0.413   1.445  16.257  0.2532  0.1216  0.8392
18755TIP3    H277681   0.415   1.582  16.323 -0.8316  1.1789 -1.2075
18756TIP3   OH277682   0.205   3.750  14.006  0.2311 -0.0374 -0.2128
18756TIP3    H177683   0.201   3.813  14.078  2.7537 -0.9381  0.8138
18756TIP3    H277684   0.272   3.785  13.947  1.1252 -1.3370 -0.0035
18757TIP3   OH277685   5.848   0.855  16.824  0.1854  0.1751 -0.4735
18757TIP3    H177686   5.929   0.817  16.789 -0.3066 -2.3219  0.8712
18757TIP3    H277687   5.878   0.920  16.888  1.0941  0.4504 -1.1583
18758TIP3   OH277688   6.012   2.598  10.629  0.0602  0.1044  0.1951
18758TIP3    H177689   5.925   2.612  10.668 -1.0402 -2.1248 -1.2748
18758TIP3    H277690   6.025   2.675  10.573 -1.6691 -0.2217 -0.7206
18759TIP3   OH277691   1.363   3.038   3.176 -0.2480  0.2030 -0.5375
18759TIP3    H177692   1.278   3.063   3.212  0.3421 -1.3206  2.2035
18759TIP3    H277693   1.344   3.011   3.086 -2.4935  0.7843 -0.2924
18760TIP3   OH277694   1.182   3.611   5.052  0.5842 -0.1882  0.0994
18760TIP3    H177695   1.200   3.602   5.146  1.3234 -2.4716 -0.1988
18760TIP3    H277696   1.089   3.631   5.048  0.5156 -0.1646  1.3282
18761TIP3   OH277697   5.427   2.176  14.783  0.3154 -0.0917 -0.3192
18761TIP3    H177698   5.468   2.118  14.847 -1.2253 -0.9743 -0.0837
18761TIP3    H277699   5.438   2.132  14.699 -0.0438 -0.2728 -0.2718
18762TIP3   OH277700   4.996   4.027  16.884 -0.2336  0.4543  0.3763
18762TIP3    H177701   4.997   3.948  16.939  0.0403  0.9957  1.1569
18762TIP3    H277702   4.903   4.046  16.873 -0.2882  0.6175  1.0627
18763TIP3   OH277703   3.262   1.123   5.186 -0.5766  0.1056  0.1935
18763TIP3    H177704   3.211   1.105   5.264 -0.9591  0.9761  0.1584
18763TIP3    H277705   3.343   1.074   5.198 -1.3691 -1.2402  0.2843
18764TIP3   OH277706   5.338   4.394   1.686 -0.2190 -0.3473 -0.6014
18764TIP3    H177707   5.331   4.455   1.759 -2.2007 -0.9033 -0.2558
18764TIP3    H277708   5.421   4.416   1.643 -1.2644  3.2535 -1.0917
18765TIP3   OH277709   6.583   0.527  13.911  0.1332 -0.1364 -0.3781
18765TIP3    H177710   6.643   0.599  13.891 -1.1758  1.0653 -0.1381
18765TIP3    H277711   6.560   0.490  13.826  2.8081 -2.0481 -0.3997
18766TIP3   OH277712   0.057   0.077   0.685 -0.2495  0.7978  0.4008
18766TIP3    H177713   0.004   0.019   0.629 -1.1110  1.2798  0.6959
18766TIP3    H277714   0.108   0.129   0.623  1.3464 -0.9629  0.1371
18767TIP3   OH277715   1.048   3.914  14.578  0.2838 -0.1409  0.4261
18767TIP3    H177716   1.125   3.904  14.634  1.5280 -1.8613 -1.4739
18767TIP3    H277717   1.050   4.006  14.550  0.4164  0.3705  2.0139
18768TIP3   OH277718   0.886   3.919   4.250  0.2772 -0.1631 -0.5480
18768TIP3    H177719   0.801   3.958   4.271  0.8342  2.5097 -2.6080
18768TIP3    H277720   0.866   3.853   4.183 -0.1130  2.0208 -2.7350
18769TIP3   OH277721   5.176   6.719  11.067  0.0039 -0.2827  0.3233
18769TIP3    H177722   5.142   6.653  11.128  0.6333 -1.7195 -0.8063
18769TIP3    H277723   5.141   6.692  10.981 -0.6430  1.5321 -0.0314
18770TIP3   OH277724   0.068   1.377   1.298 -0.1850 -0.2758  0.4265
18770TIP3    H177725   0.008   1.445   1.328  0.2056  0.3691 -0.2164
18770TIP3    H277726   0.036   1.296   1.338 -0.7916  0.2508  1.0128
18771TIP3   OH277727   1.779   2.052   0.796  0.0965 -0.1816 -0.2793
18771TIP3    H177728   1.710   2.026   0.735 -0.2115 -0.0349  0.0082
18771TIP3    H277729   1.781   1.982   0.861  1.5548 -1.2136 -1.3523
18772TIP3   OH277730   6.637   1.620   3.836 -0.4980 -0.0001 -0.2358
18772TIP3    H177731   6.685   1.690   3.879 -0.2087  0.6065 -1.5003
18772TIP3    H277732   6.669   1.620   3.746 -1.6440 -0.7085 -0.6691
18773TIP3   OH277733   0.198   5.169   4.359  0.0986  0.1291 -0.3871
18773TIP3    H177734   0.163   5.140   4.275 -0.1549 -1.1264  0.1341
18773TIP3    H277735   0.126   5.217   4.400  0.0476  0.2812 -0.6508
18774TIP3   OH277736   6.220   3.883   0.712 -0.1285 -0.0179  0.2320
18774TIP3    H177737   6.311   3.873   0.739 -0.5710 -1.7407  1.2582
18774TIP3    H277738   6.171   3.828   0.773 -1.5970 -1.1083 -1.7988
18775TIP3   OH277739   5.653   2.588  16.728 -0.4631  0.3215 -0.0191
18775TIP3    H177740   5.743   2.561  16.744 -0.3644  0.2625 -0.6463
18775TIP3    H277741   5.610   2.510  16.694 -0.8830  0.2117  0.7311
18776TIP3   OH277742   5.719   6.537  14.377  0.5658 -0.0593  0.6781
18776TIP3    H177743   5.690   6.626  14.396 -1.1442 -0.6277  0.9096
18776TIP3    H277744   5.786   6.547  14.309  0.9466  1.4418  1.2506
18777TIP3   OH277745   6.276   1.697  13.900 -0.6467 -0.4899 -0.3844
18777TIP3    H177746   6.282   1.632  13.830 -1.1973 -0.3739 -0.5405
18777TIP3    H277747   6.291   1.781  13.857  2.0332 -0.6318  0.1173
18778TIP3   OH277748   1.651   5.963   4.295  0.3315 -0.3309 -0.1229
18778TIP3    H177749   1.676   6.017   4.370  0.5384 -1.9705  1.0429
18778TIP3    H277750   1.638   6.025   4.224 -2.5350  1.6656  1.8952
18779TIP3   OH277751   0.373   2.856  14.108  0.1394 -0.1241  0.2347
18779TIP3    H177752   0.342   2.782  14.160 -0.3469 -0.9088 -1.1195
18779TIP3    H277753   0.319   2.854  14.028  2.2267 -0.2287 -1.2588
18780TIP3   OH277754   2.221   4.769  12.657 -0.0463  0.6765  0.2316
18780TIP3    H177755   2.269   4.687  12.673  0.5943  1.2641  1.3508
18780TIP3    H277756   2.131   4.750  12.685  0.3469  0.6843  1.5608
18781TIP3   OH277757   3.700   5.378   1.059 -0.2169 -0.3369  0.2720
18781TIP3    H177758   3.659   5.462   1.080 -0.2706 -0.0336 -0.9234
18781TIP3    H277759   3.777   5.374   1.114  0.8032  1.3803 -0.9335
18782TIP3   OH277760   5.809   0.483  10.751 -0.2232  0.1398  0.0551
18782TIP3    H177761   5.715   0.486  10.732  0.1816  0.7972 -2.0367
18782TIP3    H277762   5.841   0.570  10.726  1.0836 -0.3685 -0.0864
18783TIP3   OH277763   3.411   0.077  12.987 -0.2528 -0.4276  0.5580
18783TIP3    H177764   3.400   0.150  12.925  1.2878 -0.2228  0.4821
18783TIP3    H277765   3.323   0.059  13.019 -1.0820 -0.4272 -1.5727
18784TIP3   OH277766   0.106   5.341  11.356 -0.2519  0.0373  0.0451
18784TIP3    H177767   0.058   5.418  11.385  2.2244  1.5664  0.4058
18784TIP3    H277768   0.119   5.355  11.262  0.3720  0.1803  0.1484
18785TIP3   OH277769   2.977   2.257   0.556  0.0581  0.0074  0.1401
18785TIP3    H177770   3.021   2.174   0.574  0.7881 -0.3066 -2.7156
18785TIP3    H277771   2.916   2.238   0.486 -0.1786  1.7727 -0.1827
18786TIP3   OH277772   2.220   4.792  14.585 -0.2080  0.2608  0.1702
18786TIP3    H177773   2.266   4.712  14.559  1.1059  0.4779  1.6513
18786TIP3    H277774   2.148   4.762  14.641  0.0765  0.0909  0.4461
18787TIP3   OH277775   3.661   4.606   2.147  0.0333 -0.1072 -0.3413
18787TIP3    H177776   3.731   4.547   2.118 -0.2083 -0.3829 -0.3735
18787TIP3    H277777   3.628   4.565   2.227  0.0790  0.1580 -0.1884
18788TIP3   OH277778   5.803   1.454  12.513 -0.1435  0.2466  0.1039
18788TIP3    H177779   5.745   1.489  12.581 -0.7499 -1.2631  0.4095
18788TIP3    H277780   5.842   1.376  12.552  1.1232  0.5196 -0.5648
18789TIP3   OH277781   0.656   4.459   1.089 -0.0437  0.0041 -0.1984
18789TIP3    H177782   0.664   4.392   1.022 -0.5999 -0.4947  0.2227
18789TIP3    H277783   0.717   4.431   1.158 -0.4391 -0.1885  0.0741
18790TIP3   OH277784   3.878   4.773   2.244 -0.1816  0.0334 -0.0094
18790TIP3    H177785   3.893   4.818   2.161 -1.5118  0.7564  0.1054
18790TIP3    H277786   3.796   4.724   2.230 -0.6337  0.4752  0.9818
18791TIP3   OH277787   2.471   0.511  16.991  0.0350  0.4417  0.8417
18791TIP3    H177788   2.462   0.430  16.940  0.5302  0.5151  0.6227
18791TIP3    H277789   2.561   0.508  17.024 -0.1684  0.5755  1.4068
18792TIP3   OH277790   1.880   5.656   2.398  0.0463 -0.1334  0.2165
18792TIP3    H177791   1.802   5.664   2.454 -0.2116  0.2549 -0.1899
18792TIP3    H277792   1.943   5.717   2.435  1.4335 -2.7252  2.5597
18793TIP3   OH277793   3.483   6.249  10.264 -0.2291 -0.2468  0.0042
18793TIP3    H177794   3.429   6.176  10.237  0.2855 -0.5861 -0.1298
18793TIP3    H277795   3.509   6.229  10.354 -0.6322  0.0981  0.2000
18794TIP3   OH277796   1.399   5.227   1.194  0.0426  0.1945  0.2100
18794TIP3    H177797   1.313   5.186   1.185  0.2203 -0.0240 -0.5418
18794TIP3    H277798   1.454   5.158   1.231  0.3207 -0.2387 -0.9763
18795TIP3   OH277799   0.553   3.835  13.845 -0.1436  0.9407 -0.1316
18795TIP3    H177800   0.572   3.928  13.857 -1.2492  1.0175  1.2917
18795TIP3    H277801   0.637   3.797  13.818  1.0161  1.9280  1.8328
18796TIP3   OH277802   3.263   1.287  11.935  0.5666  0.2774 -0.5093
18796TIP3    H177803   3.244   1.286  12.028  0.2006  2.9283 -0.4785
18796TIP3    H277804   3.302   1.202  11.917  0.5358 -0.3346  2.0226
18797TIP3   OH277805   2.254   1.114  12.363  0.4275  0.0740 -0.2330
18797TIP3    H177806   2.166   1.092  12.331  0.5181 -1.7016  0.6407
18797TIP3    H277807   2.312   1.088  12.291  0.3672 -0.4992 -0.0773
18798TIP3   OH277808   2.578   6.133   3.983  0.5278  0.2184  0.7176
18798TIP3    H177809   2.646   6.145   4.049 -0.3455  1.2886  1.4506
18798TIP3    H277810   2.520   6.208   3.993 -1.6337 -1.3850  1.1807
18799TIP3   OH277811   0.658   5.728  14.695 -0.2287  0.2367 -0.3775
18799TIP3    H177812   0.566   5.715  14.714 -0.4413  0.6389 -1.0985
18799TIP3    H277813   0.697   5.641  14.702 -0.6253  0.0978  0.1154
18800TIP3   OH277814   5.758   2.226   3.073 -0.0214  0.0639  0.2944
18800TIP3    H177815   5.819   2.186   3.012 -1.7548  0.9805 -2.2320
18800TIP3    H277816   5.691   2.159   3.087  0.5489 -0.2720  1.5532
18801TIP3   OH277817   1.059   6.780  14.980 -0.1494  0.0974  0.1453
18801TIP3    H177818   1.001   6.852  15.005 -1.2818 -0.8697  0.3297
18801TIP3    H277819   1.002   6.704  14.970  1.3103 -1.4248  2.4631
18802TIP3   OH277820   4.838   5.974   3.574 -0.5694  0.3791  0.1470
18802TIP3    H177821   4.912   5.964   3.634  0.7014 -1.5885 -1.6107
18802TIP3    H277822   4.765   5.931   3.618  0.0595 -0.1109  0.7188
18803TIP3   OH277823   5.761   1.458  15.843 -0.1114  0.1926  0.1478
18803TIP3    H177824   5.709   1.538  15.843 -0.8886 -0.2320 -2.0906
18803TIP3    H277825   5.724   1.405  15.772  1.2732 -1.5622  0.6413
18804TIP3   OH277826   1.575   5.383   3.214  0.4277  0.3015  0.1197
18804TIP3    H177827   1.623   5.302   3.229 -1.0227 -0.8923 -1.3265
18804TIP3    H277828   1.497   5.375   3.270  0.2638  0.6761 -0.0466
18805TIP3   OH277829   2.608   5.601   5.081 -0.6629 -0.4350  0.5185
18805TIP3    H177830   2.645   5.543   5.014 -0.7094 -0.0783  0.1812
18805TIP3    H277831   2.514   5.602   5.062 -1.0937 -2.4281  2.1978
18806TIP3   OH277832   5.986   1.292   3.966 -0.5353 -0.1531 -0.5258
18806TIP3    H177833   5.960   1.208   3.927 -0.1873  0.2126 -1.5862
18806TIP3    H277834   5.924   1.355   3.929 -2.7129 -0.2927  2.5032
18807TIP3   OH277835   5.655   4.659  16.109  0.3564  0.0169 -0.1718
18807TIP3    H177836   5.601   4.729  16.073  0.3014  0.9526  1.6199
18807TIP3    H277837   5.630   4.655  16.202  1.1749 -1.6242  0.0128
18808TIP3   OH277838   1.262   5.830   4.927 -0.3150 -0.4733 -0.5511
18808TIP3    H177839   1.240   5.917   4.896  0.7334 -0.7895 -2.3236
18808TIP3    H277840   1.334   5.801   4.870 -0.1400 -2.2012  0.4582
18809TIP3   OH277841   4.022   4.429  12.825 -0.4263 -0.3030  0.3519
18809TIP3    H177842   4.109   4.438  12.863 -0.6659  1.4289  0.5713
18809TIP3    H277843   4.033   4.368  12.752  1.0319  0.1257  0.1930
18810TIP3   OH277844   4.141   3.839   2.395 -0.0140 -0.2890 -0.3502
18810TIP3    H177845   4.096   3.807   2.473  1.8787  0.7620  1.2693
18810TIP3    H277846   4.079   3.897   2.352 -0.5174  0.4451  1.3163
18811TIP3   OH277847   2.248   2.114  11.844 -0.4165 -0.0150  0.0493
18811TIP3    H177848   2.190   2.184  11.814 -0.8324 -0.8354 -1.1336
18811TIP3    H277849   2.312   2.104  11.774  0.8080  0.4374  1.0485
18812TIP3   OH277850   0.178   4.170  14.046 -0.4645  0.1387  0.1571
18812TIP3    H177851   0.206   4.081  14.025  2.9701  1.1768 -0.3737
18812TIP3    H277852   0.125   4.161  14.125  0.8668 -2.2667  0.8704
18813TIP3   OH277853   5.569   1.422  16.079  0.4848  0.3605 -0.3352
18813TIP3    H177854   5.653   1.429  16.035  1.1761 -0.2229  0.8529
18813TIP3    H277855   5.552   1.511  16.112  1.0770  0.2878  0.1858
18814TIP3   OH277856   1.778   3.387  14.482 -0.1943  0.1395  0.1326
18814TIP3    H177857   1.819   3.320  14.536  1.6964  0.7032 -0.5268
18814TIP3    H277858   1.697   3.347  14.451 -0.1202 -1.0594  1.4134
18815TIP3   OH277859   1.161   3.624  10.402 -0.0499  0.6721 -0.0475
18815TIP3    H177860   1.225   3.564  10.366 -0.2883  0.4869 -0.1700
18815TIP3    H277861   1.078   3.597  10.363 -0.4126  0.1063  1.0496
18816TIP3   OH277862   5.739   6.464  10.753  0.4262  0.1092  0.4705
18816TIP3    H177863   5.668   6.415  10.709 -0.6431  1.7489  0.2917
18816TIP3    H277864   5.783   6.511  10.682  0.0507  1.0978  0.8790
18817TIP3   OH277865   0.691   0.301   4.655  0.0196  0.1042  0.0319
18817TIP3    H177866   0.621   0.360   4.626  1.3603  1.9687  0.4239
18817TIP3    H277867   0.688   0.305   4.751  0.3153 -0.2500  0.0614
18818TIP3   OH277868   0.814   5.152  14.438  0.3132  0.0223 -0.5695
18818TIP3    H177869   0.740   5.164  14.498  1.3946  1.1137  0.5909
18818TIP3    H277870   0.807   5.227  14.378  0.8340  0.4817 -0.0626
18819TIP3   OH277871   1.231   4.565  15.103  0.2346 -0.2000  0.0760
18819TIP3    H177872   1.298   4.611  15.153  1.7552 -3.0719  0.8880
18819TIP3    H277873   1.167   4.536  15.168  0.5306 -1.2186 -0.0770
18820TIP3   OH277874   4.427   4.495   1.185  0.3807  0.3272  0.1883
18820TIP3    H177875   4.436   4.482   1.279 -0.0779 -1.4360  0.0379
18820TIP3    H277876   4.472   4.420   1.146 -2.2837 -0.8813 -0.8624
18821TIP3   OH277877   5.804   0.498  16.345 -0.3508  0.2227 -0.6244
18821TIP3    H177878   5.788   0.530  16.256 -1.7164 -1.3715 -0.9996
18821TIP3    H277879   5.890   0.458  16.342 -0.3275  0.3168 -1.1967
18822TIP3   OH277880   5.351   6.081  10.452  0.1103  0.0091  0.0287
18822TIP3    H177881   5.432   6.080  10.502 -1.0338  0.2918  1.9781
18822TIP3    H277882   5.299   6.009  10.488 -0.6817  0.1062 -0.8773
18823TIP3   OH277883   6.281   0.618  14.526 -0.1016  0.5689  0.1604
18823TIP3    H177884   6.355   0.654  14.576  0.2038 -0.0826  0.1868
18823TIP3    H277885   6.219   0.691  14.520 -0.1046  0.7006  1.4069
18824TIP3   OH277886   2.070   3.270   6.119 -0.3128  0.1885  0.2457
18824TIP3    H177887   2.059   3.337   6.186 -0.5312  0.9553 -0.5411
18824TIP3    H277888   1.986   3.268   6.073  0.6230  1.5338 -1.6759
18825TIP3   OH277889   6.510   5.621  12.462  0.5472 -0.4886  0.2316
18825TIP3    H177890   6.547   5.709  12.450 -0.6910  0.3253  1.9952
18825TIP3    H277891   6.560   5.584  12.534  0.4610 -0.8875  0.0852
18826TIP3   OH277892   4.871   6.078  14.283 -0.0794 -0.3079  0.4018
18826TIP3    H177893   4.924   6.069  14.362  0.4548 -0.5194  0.0232
18826TIP3    H277894   4.834   5.991  14.268  1.0022 -0.6498 -0.3983
18827TIP3   OH277895   5.876   1.387  11.649  0.1389  0.0569  0.5469
18827TIP3    H177896   5.817   1.358  11.580 -0.9892 -0.7423  1.7942
18827TIP3    H277897   5.820   1.439  11.708  0.8234 -0.1369  1.3895
18828TIP3   OH277898   3.219   4.835  12.246  0.0982 -0.0462  0.4262
18828TIP3    H177899   3.171   4.842  12.163 -0.3482 -3.8868  0.1795
18828TIP3    H277900   3.157   4.866  12.312 -1.2002 -0.9535 -0.3082
18829TIP3   OH277901   5.280   1.988   0.798  0.0573 -0.7806  0.3965
18829TIP3    H177902   5.339   2.061   0.777  0.1340 -1.6467 -3.1059
18829TIP3    H277903   5.323   1.943   0.870  0.8575  1.6338  1.5524
18830TIP3   OH277904   2.852   3.961   2.181  0.0721  0.0045  0.1344
18830TIP3    H177905   2.933   3.929   2.143  0.1589  0.1098  0.2304
18830TIP3    H277906   2.867   3.959   2.275  0.0296  0.1966  0.1454
18831TIP3   OH277907   1.592   6.580   3.935 -0.1701 -0.2680  0.4143
18831TIP3    H177908   1.528   6.603   3.868 -1.0470 -1.0965  0.9335
18831TIP3    H277909   1.581   6.485   3.946  2.3379 -0.7667 -0.6914
18832TIP3   OH277910   0.196   0.203  14.655 -0.1987 -0.3787 -0.5346
18832TIP3    H177911   0.103   0.186  14.643 -0.0261 -0.7857 -1.3977
18832TIP3    H277912   0.239   0.148  14.589  0.6941 -0.8157  0.3918
18833TIP3   OH277913   0.690   6.401   5.352  0.6317  0.4668  0.2356
18833TIP3    H177914   0.748   6.330   5.380  0.8568  0.4166 -0.3412
18833TIP3    H277915   0.638   6.362   5.282  1.3371  1.1154 -0.6589
18834TIP3   OH277916   4.959   3.895   2.720 -0.0971  0.3870 -1.1200
18834TIP3    H177917   5.054   3.899   2.717 -0.0677  2.0430  0.3662
18834TIP3    H277918   4.940   3.843   2.799 -0.4524 -0.5474 -1.8022
18835TIP3   OH277919   0.561   5.617   3.652 -0.0309 -1.1120 -0.4584
18835TIP3    H177920   0.494   5.656   3.595  0.3679 -0.9578 -0.8299
18835TIP3    H277921   0.641   5.664   3.630 -0.4768  1.5504  2.7891
18836TIP3   OH277922   0.227   0.689  15.309 -0.1483 -0.4766 -0.0721
18836TIP3    H177923   0.308   0.638  15.320  0.2150 -0.4890 -2.4503
18836TIP3    H277924   0.157   0.624  15.311  0.1721 -0.8732 -1.2466
18837TIP3   OH277925   1.540   2.881   1.098  0.1222  0.2048 -0.0876
18837TIP3    H177926   1.453   2.846   1.076  0.1428  0.4666 -0.6071
18837TIP3    H277927   1.599   2.839   1.036  0.3746 -0.0026  0.2924
18838TIP3   OH277928   2.350   2.382   1.271  0.4534  0.5948  0.0896
18838TIP3    H177929   2.272   2.435   1.255 -0.5784 -0.9195 -0.1059
18838TIP3    H277930   2.416   2.417   1.210 -0.1665  1.6625  0.0071
18839TIP3   OH277931   5.357   6.023   5.122 -0.5796  0.1339  0.4866
18839TIP3    H177932   5.379   6.113   5.098  0.6201 -0.5161 -1.0006
18839TIP3    H277933   5.264   6.016   5.103 -0.5349  0.8537 -0.0657
18840TIP3   OH277934   3.056   2.548  14.398  0.0999 -0.2608  0.2330
18840TIP3    H177935   3.031   2.491  14.326 -0.0528  0.2846 -0.1469
18840TIP3    H277936   3.006   2.628  14.384  0.3163 -0.0270  0.7628
18841TIP3   OH277937   5.924   5.685  15.180 -0.1276 -0.0713  0.0631
18841TIP3    H177938   5.899   5.776  15.165 -1.5075 -0.7903 -2.4996
18841TIP3    H277939   6.015   5.680  15.150 -1.4207 -0.4239 -4.4568
18842TIP3   OH277940   0.441   0.183   3.258 -0.1282  0.2286  0.3850
18842TIP3    H177941   0.534   0.173   3.278 -0.0224  1.9660  0.9729
18842TIP3    H277942   0.397   0.116   3.309  0.8618 -1.2541 -0.6502
18843TIP3   OH277943   3.245   1.084  13.995 -0.0144  0.4421  0.1142
18843TIP3    H177944   3.318   1.122  14.043 -0.2849 -2.7128  3.4877
18843TIP3    H277945   3.173   1.147  14.007  1.2193  2.0134 -0.4258
18844TIP3   OH277946   6.794   0.454   1.955  0.7899  0.3405  0.2426
18844TIP3    H177947   6.806   0.387   2.023 -0.4391 -0.1259  0.0196
18844TIP3    H277948   6.881   0.493   1.945  1.3339 -0.6216  1.0000
18845TIP3   OH277949   0.832   3.754   4.796 -0.0294 -0.3281 -0.1311
18845TIP3    H177950   0.801   3.688   4.858 -0.6804 -0.7925 -0.9207
18845TIP3    H277951   0.926   3.736   4.788  0.4250  0.8251  1.9671
18846TIP3   OH277952   1.934   2.533   1.360  0.4994 -0.0305  0.3486
18846TIP3    H177953   2.019   2.517   1.401  0.3611  0.4073  0.8235
18846TIP3    H277954   1.898   2.607   1.409 -0.1449 -0.1978  0.1351
18847TIP3   OH277955   0.956   4.090  15.984 -0.2896  0.0275  0.4044
18847TIP3    H177956   0.903   4.013  16.004  0.4517 -1.0683 -1.5645
18847TIP3    H277957   1.038   4.076  16.031 -0.6463  0.3003  1.1238
18848TIP3   OH277958   2.004   4.580  13.080 -0.6210  0.1926 -0.1436
18848TIP3    H177959   1.925   4.527  13.071  0.0872 -0.9309  0.1710
18848TIP3    H277960   1.971   4.668  13.101 -1.8179  0.0188 -1.1954
18849TIP3   OH277961   3.472   5.234   4.542 -0.1422 -0.6168  0.7716
18849TIP3    H177962   3.511   5.153   4.576 -0.8738 -1.1667  0.3472
18849TIP3    H277963   3.438   5.278   4.620 -1.1193 -1.4967  0.8779
18850TIP3   OH277964   3.591   1.153  14.559  0.0548 -0.3513  0.1482
18850TIP3    H177965   3.609   1.207  14.636  0.4534 -1.9856  1.2558
18850TIP3    H277966   3.547   1.212  14.498  0.4984  1.2124  1.2781
18851TIP3   OH277967   1.033   5.071   2.272 -0.1291 -0.1363  0.2335
18851TIP3    H177968   1.128   5.072   2.267 -0.0779 -1.2478  0.6347
18851TIP3    H277969   1.007   5.162   2.257  0.9564  0.0773 -0.4509
18852TIP3   OH277970   3.807   6.755   2.163 -0.1515 -0.1943 -0.2719
18852TIP3    H177971   3.819   6.829   2.105 -1.3001  0.2030 -0.0210
18852TIP3    H277972   3.831   6.788   2.250  2.1692 -0.9564 -0.5459
18853TIP3   OH277973   3.929   1.324   1.607 -0.5697 -0.1402  0.8052
18853TIP3    H177974   3.893   1.381   1.675 -0.1053 -1.0215  1.8331
18853TIP3    H277975   3.863   1.323   1.539  0.3567  3.4432 -0.3691
18854TIP3   OH277976   4.528   5.330   4.974 -0.6273  0.1290  0.1763
18854TIP3    H177977   4.612   5.295   5.003 -0.6511  0.5877  0.8092
18854TIP3    H277978   4.550   5.395   4.907 -0.5421 -0.4849 -0.4094
18855TIP3   OH277979   2.419   3.937   0.935  0.0204  0.0095 -0.1102
18855TIP3    H177980   2.354   4.004   0.957 -0.5018 -0.2026 -0.9382
18855TIP3    H277981   2.491   3.985   0.896  1.3345  0.4920  2.6775
18856TIP3   OH277982   5.558   0.294   2.944 -0.5625  0.0990 -0.3685
18856TIP3    H177983   5.619   0.276   3.016  1.4770  3.1248 -1.1779
18856TIP3    H277984   5.485   0.339   2.985 -0.8861 -0.8779  0.1725
18857TIP3   OH277985   4.425   5.863   4.381 -0.6634 -0.0932 -0.1903
18857TIP3    H177986   4.430   5.870   4.286 -0.3310 -0.2922 -0.1900
18857TIP3    H277987   4.347   5.809   4.397 -1.1367  0.5394 -0.3196
18858TIP3   OH277988   3.431   3.035   5.282  0.2467  0.4890  0.0795
18858TIP3    H177989   3.434   2.981   5.361 -0.2889 -0.1317 -0.3123
18858TIP3    H277990   3.356   3.092   5.294  0.6092  0.9198  0.3415
18859TIP3   OH277991   4.989   6.508  11.237  0.2357 -0.8806  0.1194
18859TIP3    H177992   5.003   6.475  11.325 -0.7129 -2.6172 -0.3288
18859TIP3    H277993   4.903   6.473  11.212 -0.2613  0.9104 -0.9121
18860TIP3   OH277994   1.684   3.713  10.983 -0.5923 -0.1579  0.4801
18860TIP3    H177995   1.674   3.715  10.888  2.0020 -0.3409  0.1248
18860TIP3    H277996   1.778   3.724  10.997 -0.8263 -0.8361  3.0125
18861TIP3   OH277997   2.939   4.053  11.877 -0.3834 -1.0806 -0.3827
18861TIP3    H177998   2.864   4.069  11.935 -0.0828 -0.1434 -0.2486
18861TIP3    H277999   2.908   3.986  11.816 -1.6203 -0.0981 -0.8649
18862TIP3   OH278000   5.849   2.524  14.382  0.3413 -0.1810 -0.3932
18862TIP3    H178001   5.813   2.513  14.471  0.5984  2.2555  0.0899
18862TIP3    H278002   5.785   2.578  14.337  1.2063  0.3705 -0.9968
18863TIP3   OH278003   4.078   2.996   0.420 -0.2251  0.0142 -0.7282
18863TIP3    H178004   4.059   2.913   0.377 -0.1602  0.0787 -0.8805
18863TIP3    H278005   4.049   3.063   0.358 -1.8770  0.1172  0.0840
18864TIP3   OH278006   5.050   2.193   2.940  0.5153  0.5871 -0.0856
18864TIP3    H178007   5.108   2.118   2.956  0.9912  1.0759  0.5061
18864TIP3    H278008   4.965   2.153   2.921  0.4654 -0.0952  1.4378
18865TIP3   OH278009   4.307   0.586   5.381  0.2539  0.3407 -0.5934
18865TIP3    H178010   4.307   0.534   5.461  3.2125  0.6228 -0.3071
18865TIP3    H278011   4.333   0.524   5.313 -0.3855  0.5289 -1.0122
18866TIP3   OH278012   3.088   2.374   2.157 -0.1616  0.2812 -0.1112
18866TIP3    H178013   3.093   2.451   2.214 -0.4119  0.4396 -0.2984
18866TIP3    H278014   3.043   2.406   2.079 -1.4161 -0.3494  0.3223
18867TIP3   OH278015   2.796   1.533  14.617  0.6172 -0.9995  0.0851
18867TIP3    H178016   2.873   1.477  14.629  0.6035 -2.0194 -3.4798
18867TIP3    H278017   2.831   1.621  14.609  1.1520 -1.1372  0.8168
18868TIP3   OH278018   6.816   6.641   2.833  0.5386 -0.0270  0.2588
18868TIP3    H178019   6.783   6.583   2.764 -2.0667 -0.1355  1.4533
18868TIP3    H278020   6.910   6.646   2.819  0.3801 -1.8990 -1.8678
18869TIP3   OH278021   4.913   0.158  15.283 -0.7221 -0.2979  0.0812
18869TIP3    H178022   4.956   0.230  15.237 -2.9912  0.1688 -1.4722
18869TIP3    H278023   4.948   0.079  15.243  1.9757 -0.1983  1.9678
18870TIP3   OH278024   1.257   1.453  16.058  0.3527 -0.1061 -0.4110
18870TIP3    H178025   1.218   1.379  16.105  0.9215  0.2257  0.6178
18870TIP3    H278026   1.287   1.512  16.127  0.0502  1.0179 -1.2112
18871TIP3   OH278027   0.314   3.172   4.318  0.0324  0.4324 -0.2433
18871TIP3    H178028   0.388   3.182   4.258  1.1769 -0.2212  1.0392
18871TIP3    H278029   0.302   3.259   4.356 -0.3117  0.7030 -0.9496
18872TIP3   OH278030   0.261   3.926  14.202 -0.3347  0.1568  0.2836
18872TIP3    H178031   0.251   3.981  14.280  1.1670  0.5388  0.2343
18872TIP3    H278032   0.355   3.924  14.186 -0.5843 -0.2515 -1.2865
18873TIP3   OH278033   4.902   4.640  12.613  0.4458  0.4497  0.2229
18873TIP3    H178034   4.974   4.661  12.553 -0.6602  2.5313 -0.4565
18873TIP3    H278035   4.827   4.623  12.556 -0.3674  1.4335  0.9615
18874TIP3   OH278036   4.601   1.956   3.022  0.0738  0.3304  0.2715
18874TIP3    H178037   4.522   1.910   2.994 -0.7610  1.5558  0.5347
18874TIP3    H278038   4.628   1.912   3.103  0.8640 -1.3992 -0.8641
18875TIP3   OH278039   6.509   3.771   1.603  0.2339  0.4843 -0.0585
18875TIP3    H178040   6.590   3.818   1.623  0.1303  1.7037 -2.1774
18875TIP3    H278041   6.502   3.775   1.508 -3.4912  2.5080  0.0995
18876TIP3   OH278042   6.535   0.358   1.226  0.1344 -0.3723 -0.2936
18876TIP3    H178043   6.560   0.425   1.162  1.2644 -1.1407 -0.6935
18876TIP3    H278044   6.601   0.289   1.215 -0.4000 -1.0874  0.8248
18877TIP3   OH278045   1.344   4.286   3.821 -0.0729 -0.5235  0.0752
18877TIP3    H178046   1.269   4.343   3.805  0.0196 -0.4816 -0.2191
18877TIP3    H278047   1.414   4.321   3.765 -0.3331 -1.5735 -0.9527
18878TIP3   OH278048   0.976   5.407  13.522 -0.2199  0.6181  0.1061
18878TIP3    H178049   0.920   5.418  13.599  0.0839  0.5077  0.3492
18878TIP3    H278050   0.968   5.488  13.473  1.1104  1.5150  1.2784
18879TIP3   OH278051   1.713   2.063  11.383 -0.5000 -0.2944  0.2772
18879TIP3    H178052   1.669   2.021  11.457  1.7557  0.3519  2.0892
18879TIP3    H278053   1.763   1.993  11.342  0.1983 -0.1883  0.9226
18880TIP3   OH278054   6.781   0.981  11.598 -0.6021  0.1314 -0.4379
18880TIP3    H178055   6.754   0.894  11.569 -0.6959  0.3498 -1.0169
18880TIP3    H278056   6.831   1.017  11.525 -0.7815  0.6668 -0.3023
18881TIP3   OH278057   0.131   3.528   0.139 -0.2552 -0.2076 -0.7730
18881TIP3    H178058   0.056   3.586   0.135  0.0932  0.3308  0.1708
18881TIP3    H278059   0.094   3.440   0.130 -1.1388 -0.0311  0.8373
18882TIP3   OH278060   4.499   6.534   1.746  0.2968  0.0964  0.1768
18882TIP3    H178061   4.555   6.531   1.669  0.0784  0.2212  0.0135
18882TIP3    H278062   4.453   6.450   1.746  2.2637 -1.0862  1.6581
18883TIP3   OH278063   5.564   6.016  10.601  0.1318  0.1438 -0.2038
18883TIP3    H178064   5.644   5.988  10.646  0.7867 -0.4245 -1.6601
18883TIP3    H278065   5.494   5.998  10.663  0.7841 -2.4817 -0.0969
18884TIP3   OH278066   3.979   4.120   1.227 -0.4998 -0.0701  0.5538
18884TIP3    H178067   3.926   4.194   1.197  1.0642  1.4202  1.2715
18884TIP3    H278068   3.929   4.082   1.299 -0.0701  2.1702  2.1440
18885TIP3   OH278069   3.670   3.265   2.615 -0.4363  0.2136 -0.0523
18885TIP3    H178070   3.731   3.296   2.682 -0.4611  2.5094 -1.0155
18885TIP3    H278071   3.583   3.285   2.650 -0.5585 -0.7187  0.2083
18886TIP3   OH278072   5.896   0.215  14.510 -0.0848 -0.0002  0.0574
18886TIP3    H178073   5.976   0.266  14.521  0.2841 -0.7229  0.8275
18886TIP3    H278074   5.924   0.124  14.511 -1.0685 -0.3470  2.1762
18887TIP3   OH278075   5.396   5.255  16.781 -0.3124  0.1021 -0.3948
18887TIP3    H178076   5.359   5.211  16.858 -2.6463  0.7448 -1.0451
18887TIP3    H278077   5.422   5.184  16.723  0.1712 -0.3858  0.4017
18888TIP3   OH278078   5.606   5.036  15.342  0.2695  0.1020 -0.4193
18888TIP3    H178079   5.669   5.106  15.322  0.1400  0.2809 -0.2060
18888TIP3    H278080   5.587   5.048  15.435 -1.4006  1.1208 -0.8589
18889TIP3   OH278081   1.859   3.111   0.463  0.1495 -0.3980 -0.7975
18889TIP3    H178082   1.940   3.069   0.493  0.3763  1.1625  0.9230
18889TIP3    H278083   1.889   3.189   0.417 -0.3730  0.4519  0.2795
18890TIP3   OH278084   5.341   5.741  15.069 -0.0343  0.0126 -0.4705
18890TIP3    H178085   5.329   5.657  15.026  0.2838  0.4739 -1.4948
18890TIP3    H278086   5.423   5.775  15.034  0.4463  0.2510  0.8005
18891TIP3   OH278087   0.612   4.806   3.092 -0.1751  0.0871 -0.4338
18891TIP3    H178088   0.555   4.843   3.025 -0.9488  0.0331  0.1883
18891TIP3    H278089   0.554   4.757   3.150  0.4206  0.4394  0.4942
18892TIP3   OH278090   2.852   1.572  14.991  0.3330 -0.2764 -0.1229
18892TIP3    H178091   2.785   1.529  14.938 -1.5079  0.7530  1.2792
18892TIP3    H278092   2.876   1.506  15.056 -0.5231 -0.1226  0.3629
18893TIP3   OH278093   3.864   0.355   0.087  0.3177  0.0766 -0.1924
18893TIP3    H178094   3.786   0.308   0.116  0.5112 -0.4688 -0.5315
18893TIP3    H278095   3.937   0.302   0.118  0.5468  0.3416 -0.2711
18894TIP3   OH278096   0.121   6.244  13.006 -0.3304  0.3750  0.1286
18894TIP3    H178097   0.123   6.328  13.053 -3.6198 -0.4070  1.9837
18894TIP3    H278098   0.127   6.269  12.914  0.0302  2.5526  0.6708
18895TIP3   OH278099   3.589   0.429  16.049  0.1898 -0.5644 -0.7319
18895TIP3    H178100   3.525   0.359  16.063 -2.0737  1.2012 -1.6180
18895TIP3    H278101   3.600   0.469  16.135 -1.0055 -0.0010 -0.8338
18896TIP3   OH278102   6.705   2.132   0.841 -0.2593 -0.3489 -0.1195
18896TIP3    H178103   6.747   2.159   0.923 -1.0789 -0.9983  0.5434
18896TIP3    H278104   6.752   2.053   0.816  0.7358  0.4702 -0.9053
18897TIP3   OH278105   5.019   0.148  16.728  0.1876 -1.1899 -0.0863
18897TIP3    H178106   4.998   0.068  16.776 -0.5400 -0.6679  0.4846
18897TIP3    H278107   4.935   0.192  16.716 -0.0960 -2.3766 -3.9226
18898TIP3   OH278108   2.229   5.380   4.604 -0.1543 -0.7427  0.0259
18898TIP3    H178109   2.188   5.459   4.569 -1.5029 -1.0087  0.8964
18898TIP3    H278110   2.160   5.340   4.658  1.6546 -0.5543  2.6493
18899TIP3   OH278111   5.278   0.740   5.009  0.1100 -0.2521 -0.4479
18899TIP3    H178112   5.207   0.686   5.044  0.5591  0.2522  1.2906
18899TIP3    H278113   5.295   0.805   5.076  1.2904  0.5127 -1.4399
18900TIP3   OH278114   2.583   6.259  15.546 -0.3069 -0.3369  0.0581
18900TIP3    H178115   2.636   6.196  15.596  0.6778  0.4785  0.0885
18900TIP3    H278116   2.607   6.242  15.455 -1.1656 -0.9931 -0.0496
18901TIP3   OH278117   4.448   0.696   6.082  0.6400 -0.3350 -0.4947
18901TIP3    H178118   4.463   0.640   6.158 -1.9511  0.1950  0.5248
18901TIP3    H278119   4.373   0.655   6.038 -2.8195  3.2158  1.4632
18902TIP3   OH278120   0.203   0.929   3.771  0.4935  0.0321 -0.1163
18902TIP3    H178121   0.142   0.863   3.739 -1.0897  0.5572  1.6469
18902TIP3    H278122   0.289   0.886   3.768 -0.2726 -1.5457 -0.4386
18903TIP3   OH278123   4.324   3.587  13.674 -0.1072 -0.1568 -0.1180
18903TIP3    H178124   4.389   3.608  13.607  0.6553 -0.6956  0.4425
18903TIP3    H278125   4.367   3.523  13.731 -0.8790 -0.0069  0.6616
18904TIP3   OH278126   5.400   4.871  13.468  0.0326  0.2783 -0.3091
18904TIP3    H178127   5.366   4.951  13.508  0.3612  1.1759 -1.7335
18904TIP3    H278128   5.443   4.825  13.539  0.3680  1.6732  0.4349
18905TIP3   OH278129   2.143   6.694  11.831  0.0538  0.0235 -0.2087
18905TIP3    H178130   2.064   6.687  11.778 -0.3003 -1.6552  0.4816
18905TIP3    H278131   2.112   6.686  11.921  0.9350  0.1222  0.1191
18906TIP3   OH278132   4.927   2.727   3.125  0.3825 -0.4122  0.1009
18906TIP3    H178133   4.854   2.665   3.132 -0.8980  1.0320  0.1711
18906TIP3    H278134   4.907   2.795   3.189  2.1045 -0.2588  0.5068
18907TIP3   OH278135   2.877   6.092   5.748  0.2562  0.1594  0.7451
18907TIP3    H178136   2.799   6.124   5.792 -0.7970 -3.2538  1.6317
18907TIP3    H278137   2.950   6.129   5.798 -0.6266  3.3548 -0.0714
18908TIP3   OH278138   2.860   0.473   5.338  0.2318  0.0636  1.0774
18908TIP3    H178139   2.831   0.435   5.255  1.1768 -0.3199  0.9169
18908TIP3    H278140   2.932   0.417   5.367  0.6037  0.8103  1.6295
18909TIP3   OH278141   2.295   1.647   0.528 -0.5924  0.0262 -0.5124
18909TIP3    H178142   2.230   1.697   0.479 -1.5974 -0.2706  0.4949
18909TIP3    H278143   2.245   1.576   0.569  0.3399 -0.1138  0.4103
18910TIP3   OH278144   0.087   0.462  14.476  0.0850 -0.4519 -0.4322
18910TIP3    H178145   0.114   0.379  14.517  1.5818 -1.8224 -3.8443
18910TIP3    H278146  -0.001   0.445  14.443 -0.2024 -0.1228  0.1389
18911TIP3   OH278147   6.157   1.746  14.330  0.4099 -0.3461  0.5605
18911TIP3    H178148   6.084   1.713  14.383 -0.2259  0.0601 -0.0526
18911TIP3    H278149   6.139   1.840  14.321  0.1604 -0.5081 -0.8931
18912TIP3   OH278150   5.757   4.338   0.493 -0.0674 -0.3341 -0.0034
18912TIP3    H178151   5.767   4.251   0.531 -1.1345 -0.3767  0.2097
18912TIP3    H278152   5.756   4.397   0.569 -2.2871 -0.4279  0.0964
18913TIP3   OH278153   2.903   6.458  14.635 -0.1498  0.1100 -0.1133
18913TIP3    H178154   2.852   6.486  14.559  0.4108  1.7151  0.0670
18913TIP3    H278155   2.972   6.403  14.598 -0.0391  0.6603 -0.7441
18914TIP3   OH278156   5.314   5.442   4.463 -0.6209 -0.5057 -0.2761
18914TIP3    H178157   5.392   5.488   4.431 -0.6876 -1.0268 -1.2275
18914TIP3    H278158   5.247   5.460   4.397 -1.7688  1.1510  1.2602
18915TIP3   OH278159   4.931   6.149  11.078 -0.0831  0.2054 -0.2033
18915TIP3    H178160   4.916   6.090  11.004 -0.6723 -0.4464  0.4090
18915TIP3    H278161   4.843   6.170  11.110  0.1382  1.1351 -0.1914
18916TIP3   OH278162   6.602   2.259  11.104  0.0423 -0.0124 -0.0910
18916TIP3    H178163   6.678   2.202  11.111  1.5061  1.9175  0.4746
18916TIP3    H278164   6.587   2.269  11.010  1.2578  0.5240 -0.2463
18917TIP3   OH278165   5.871   0.155   2.350 -0.3282  0.2595 -0.0841
18917TIP3    H178166   5.912   0.205   2.421 -0.6622  0.5589 -0.0980
18917TIP3    H278167   5.819   0.089   2.395  1.6084 -1.3455 -0.0673
18918TIP3   OH278168   4.032   4.322  16.903  0.5500 -0.4635 -0.3757
18918TIP3    H178169   4.015   4.238  16.860 -1.7823 -0.9492  1.2602
18918TIP3    H278170   3.973   4.384  16.859  0.8915 -0.1053 -0.3384
18919TIP3   OH278171   0.804   6.270  11.344 -0.5987  0.1901  0.3317
18919TIP3    H178172   0.769   6.182  11.331 -0.5728  0.4289 -1.5602
18919TIP3    H278173   0.896   6.264  11.318 -0.6900  0.8508 -0.1746
18920TIP3   OH278174   5.049   4.308  13.695  0.2364 -0.6086 -0.7361
18920TIP3    H178175   5.132   4.318  13.742  0.1177 -1.0874 -0.4177
18920TIP3    H278176   5.013   4.397  13.690  0.3458 -0.5243 -0.0931
18921TIP3   OH278177   3.959   5.350   3.200  0.2338  0.1304 -1.0795
18921TIP3    H178178   4.018   5.275   3.202  0.3102  0.1341 -2.3050
18921TIP3    H278179   3.972   5.394   3.284  0.8019 -0.7571 -0.6972
18922TIP3   OH278180   1.914   3.407   5.183  0.3135 -0.4552  0.2983
18922TIP3    H178181   1.979   3.413   5.113 -2.1764  1.2680 -2.1104
18922TIP3    H278182   1.917   3.492   5.226 -0.8138 -0.0358 -0.3945
18923TIP3   OH278183   4.721   0.502  11.716 -0.1883 -0.5606  0.3363
18923TIP3    H178184   4.812   0.481  11.739 -0.5384 -0.8695  1.4788
18923TIP3    H278185   4.669   0.471  11.790 -1.2335 -0.3473 -0.2825
18924TIP3   OH278186   6.283   1.329  16.933 -0.1216 -0.4344 -0.0640
18924TIP3    H178187   6.288   1.287  17.019 -1.9379 -1.6862 -0.5178
18924TIP3    H278188   6.191   1.350  16.922  0.3679  1.5510 -0.9132
18925TIP3   OH278189   2.528   3.307   4.526  0.0944 -0.7048  0.3598
18925TIP3    H178190   2.522   3.381   4.465  0.6129 -0.9433  0.0098
18925TIP3    H278191   2.620   3.280   4.521 -0.1585 -1.5573  0.2677
18926TIP3   OH278192   5.252   4.204   5.873 -0.4509 -0.0825  0.3934
18926TIP3    H178193   5.289   4.190   5.960  0.6774 -2.1756 -0.3249
18926TIP3    H278194   5.310   4.267   5.832 -0.3060  0.0409  0.7844
18927TIP3   OH278195   0.755   0.950  14.008  0.3203  0.5475  0.3867
18927TIP3    H178196   0.814   0.927  13.936  0.3641 -0.5095  0.7288
18927TIP3    H278197   0.677   0.896  13.994 -0.1073  1.1141  0.5507
18928TIP3   OH278198   4.260   0.593   1.701 -0.3009 -0.3553 -0.1732
18928TIP3    H178199   4.354   0.598   1.684 -0.6583 -1.4433 -3.0283
18928TIP3    H278200   4.238   0.678   1.740  1.9163 -0.3133  1.1295
18929TIP3   OH278201   2.205   4.102  16.885 -0.2569  0.1953  0.2203
18929TIP3    H178202   2.136   4.116  16.820  0.5596  0.7255 -0.5532
18929TIP3    H278203   2.244   4.188  16.898 -0.7991  0.2205  1.8985
18930TIP3   OH278204   6.628   4.153   0.071 -0.8017  0.0261 -0.3716
18930TIP3    H178205   6.680   4.075   0.055 -0.6857  0.2339 -1.0682
18930TIP3    H278206   6.542   4.121   0.098  0.0029 -0.3231  2.0211
18931TIP3   OH278207   0.586   5.136  16.182 -0.3375 -0.3276  0.2511
18931TIP3    H178208   0.560   5.129  16.090  0.5935 -0.1629 -0.0333
18931TIP3    H278209   0.503   5.131  16.231 -0.7903 -0.9487 -0.5615
18932TIP3   OH278210   0.479   5.875  11.218 -0.0976  0.0767 -0.1832
18932TIP3    H178211   0.415   5.856  11.149 -0.1878  0.7540 -0.2996
18932TIP3    H278212   0.533   5.946  11.181  0.0675  0.2134  0.3132
18933TIP3   OH278213   2.405   3.448  12.127 -0.2796  0.4201 -0.0051
18933TIP3    H178214   2.452   3.370  12.097 -2.5801 -0.9155 -0.3661
18933TIP3    H278215   2.443   3.520  12.077  1.3271 -0.5704 -0.2773
18934TIP3   OH278216   4.241   6.403  11.303  0.1764 -0.2313 -0.6208
18934TIP3    H178217   4.193   6.364  11.376  1.2604  0.2237  0.3787
18934TIP3    H278218   4.258   6.493  11.331  0.4250  0.0153 -1.5392
18935TIP3   OH278219   3.421   0.941  12.501 -0.0553 -0.7321 -0.5823
18935TIP3    H178220   3.481   0.928  12.574  2.0205 -1.0529 -2.2599
18935TIP3    H278221   3.334   0.925  12.538  0.7975  0.3330  2.0683
18936TIP3   OH278222   2.464   5.433   4.721  0.1347 -0.7912  0.0732
18936TIP3    H178223   2.482   5.347   4.759 -0.5840 -0.5582  0.9831
18936TIP3    H278224   2.398   5.417   4.654  0.1142 -0.9680  0.1354
18937TIP3   OH278225   1.971   3.938   4.163  0.0623 -0.2573 -0.1555
18937TIP3    H178226   2.031   3.882   4.211 -0.1477 -0.6523 -0.3473
18937TIP3    H278227   1.986   4.026   4.198  0.3518 -0.4432  0.1870
18938TIP3   OH278228   6.500   2.015  16.825 -0.3144 -0.5628  0.1138
18938TIP3    H178229   6.504   1.963  16.905 -1.7585  0.3954  0.8431
18938TIP3    H278230   6.559   1.970  16.764  0.6361 -1.4441  1.6223
18939TIP3   OH278231   6.764   1.348  12.793  0.7711 -0.1356  0.0121
18939TIP3    H178232   6.678   1.306  12.788  0.1365  0.9007  1.5756
18939TIP3    H278233   6.789   1.363  12.702 -1.5505  1.2364 -0.4663
18940TIP3   OH278234   4.545   0.554   3.346 -0.4300 -0.3151  0.5366
18940TIP3    H178235   4.615   0.592   3.293 -1.0194 -0.0277 -0.0472
18940TIP3    H278236   4.590   0.493   3.404  0.2013 -0.9176 -0.5469
18941TIP3   OH278237   2.101   3.997   6.608 -0.8390 -0.3371 -0.7529
18941TIP3    H178238   2.162   4.008   6.534 -1.0876  1.8635 -0.6990
18941TIP3    H278239   2.041   4.070   6.600 -4.1835 -2.9117 -1.3532
18942TIP3   OH278240   4.793   6.380  13.283  0.3671 -0.4922 -0.4985
18942TIP3    H178241   4.802   6.463  13.329 -1.4259 -0.4784 -0.0724
18942TIP3    H278242   4.882   6.350  13.269  1.0328  1.0915  0.0829
18943TIP3   OH278243   6.315   1.325  14.333  0.3755  0.0247 -0.1710
18943TIP3    H178244   6.298   1.395  14.269 -0.6361 -1.4290 -1.6017
18943TIP3    H278245   6.251   1.258  14.311  0.7676 -1.0230  1.6932
18944TIP3   OH278246   5.640   2.172   5.298 -0.3638  0.3369 -0.4237
18944TIP3    H178247   5.666   2.097   5.352  1.7785  1.9370  0.9065
18944TIP3    H278248   5.658   2.144   5.208 -0.8570 -1.1831 -0.0916
18945TIP3   OH278249   4.038   2.934   3.689  0.4751 -0.7766  0.1148
18945TIP3    H178250   4.068   2.962   3.776  0.5129 -0.4255 -0.0077
18945TIP3    H278251   4.056   3.009   3.632  1.0529 -1.2410 -0.3289
18946TIP3   OH278252   2.690   4.828   4.646 -0.1683 -0.0213 -0.2105
18946TIP3    H178253   2.652   4.899   4.696  0.9046  2.2203 -2.3666
18946TIP3    H278254   2.765   4.798   4.698 -0.8512  0.1279  0.8835
18947TIP3   OH278255   6.816   1.177  12.219  0.4673 -0.0578 -0.4780
18947TIP3    H178256   6.799   1.171  12.125  3.2182  0.5511 -1.0974
18947TIP3    H278257   6.835   1.270  12.234 -0.3169 -0.0745  0.7879
18948TIP3   OH278258   4.882   2.454   5.789 -0.0254 -0.4305 -0.2242
18948TIP3    H178259   4.950   2.521   5.791 -0.9200  0.5053 -0.3707
18948TIP3    H278260   4.890   2.409   5.873  1.1837 -0.7789 -0.4947
18949TIP3   OH278261   5.100   0.036   2.621 -0.9572 -0.1618  0.6241
18949TIP3    H178262   5.018   0.084   2.636 -0.8900  0.1069  0.1284
18949TIP3    H278263   5.164   0.104   2.601 -0.8838 -0.4584 -0.1877
18950TIP3   OH278264   5.338   3.004  14.697 -0.5221 -0.1344  0.5391
18950TIP3    H178265   5.247   2.974  14.692 -0.2503 -0.8573 -0.3105
18950TIP3    H278266   5.372   2.961  14.776 -1.0211  0.4799  1.1074
18951TIP3   OH278267   3.736   0.813   0.831  0.5585 -0.3932  0.2194
18951TIP3    H178268   3.785   0.731   0.841  0.5300 -0.3346  0.8713
18951TIP3    H278269   3.653   0.797   0.876 -0.3061 -0.7150 -1.4198
18952TIP3   OH278270   0.223   3.257   5.237  0.3998 -0.0092  0.6203
18952TIP3    H178271   0.168   3.197   5.187 -0.2223  1.1055 -0.0769
18952TIP3    H278272   0.217   3.226   5.327  0.7718 -1.4863  0.1716
18953TIP3   OH278273   4.955   5.209  13.438 -0.9257  0.3571  0.0163
18953TIP3    H178274   4.995   5.211  13.350  1.5336  0.5794  1.0610
18953TIP3    H278275   4.941   5.116  13.455  2.3863 -0.1087  0.8843
18954TIP3   OH278276   5.739   6.185  14.646 -0.4950  0.1364  0.9156
18954TIP3    H178277   5.780   6.271  14.636 -2.2477  1.0550  1.1629
18954TIP3    H278278   5.737   6.149  14.557  1.5046 -0.2934  1.0090
18955TIP3   OH278279   2.351   2.715  14.911 -0.2953  0.1906  0.1931
18955TIP3    H178280   2.262   2.732  14.881 -0.5076  0.8074  1.1609
18955TIP3    H278281   2.369   2.782  14.976  1.6451  1.3943 -1.4394
18956TIP3   OH278282   4.111   1.772   3.549  0.0057  0.2352 -0.0030
18956TIP3    H178283   4.106   1.822   3.467 -2.0324  0.2195  0.0583
18956TIP3    H278284   4.195   1.727   3.544  0.2698  0.8336 -1.7417
18957TIP3   OH278285   6.224   4.170   2.509 -0.2180 -0.1583  0.1527
18957TIP3    H178286   6.248   4.220   2.431  0.1925 -1.2977 -0.4630
18957TIP3    H278287   6.305   4.128   2.537 -0.6781 -0.9410  0.3301
18958TIP3   OH278288   5.609   0.961   4.301 -0.1310  0.3066 -0.1159
18958TIP3    H178289   5.701   0.986   4.315  0.3714 -1.1951 -0.5571
18958TIP3    H278290   5.596   0.883   4.354 -0.7869 -0.2185 -1.0203
18959TIP3   OH278291   1.419   0.860  11.513 -0.5784  0.1513 -0.3283
18959TIP3    H178292   1.344   0.834  11.460 -2.3076  1.5537  1.2881
18959TIP3    H278293   1.495   0.830  11.464 -2.1884 -1.6872 -1.8446
18960TIP3   OH278294   3.226   5.762   1.334  0.5337  0.0045  0.6120
18960TIP3    H178295   3.239   5.679   1.378 -2.7352  0.1093  2.0767
18960TIP3    H278296   3.216   5.740   1.241  2.5235 -0.7962  0.5354
18961TIP3   OH278297   4.647   6.175   4.655 -0.4309 -0.0248 -0.1616
18961TIP3    H178298   4.570   6.222   4.621 -1.4458 -1.7738 -0.3941
18961TIP3    H278299   4.664   6.108   4.589  0.5316 -0.4556  0.5179
18962TIP3   OH278300   3.491   1.327   2.555 -0.7680  0.2818  0.0616
18962TIP3    H178301   3.525   1.253   2.605 -0.6332  1.0063  1.0777
18962TIP3    H278302   3.415   1.292   2.509 -0.4980 -0.5694  0.2492
18963TIP3   OH278303   4.456   3.782   0.139 -0.3871  0.0890  0.0079
18963TIP3    H178304   4.478   3.860   0.089  0.5809 -0.7178 -0.8502
18963TIP3    H278305   4.510   3.787   0.217  0.3884 -0.1952 -0.5029
18964TIP3   OH278306   2.531   1.170   4.300 -0.0464 -0.2052 -0.0582
18964TIP3    H178307   2.610   1.125   4.328 -0.5871 -1.4891 -0.4643
18964TIP3    H278308   2.553   1.263   4.300  0.6268 -0.3238  2.4069
18965TIP3   OH278309   3.258   6.072  13.023 -0.0824 -0.1461  0.2724
18965TIP3    H178310   3.278   6.157  13.063  1.7643 -0.5097  0.2330
18965TIP3    H278311   3.230   6.017  13.096  0.1289  0.1016  0.5433
18966TIP3   OH278312   4.798   5.894   2.874 -0.0075 -0.0826  0.8724
18966TIP3    H178313   4.812   5.962   2.808  1.4254 -0.1202  1.1109
18966TIP3    H278314   4.867   5.830   2.858 -0.9029 -1.1480  1.1134
18967TIP3   OH278315   1.389   5.632   3.895  0.3335 -0.3577  0.2412
18967TIP3    H178316   1.453   5.670   3.834  0.3635  0.6748  0.8820
18967TIP3    H278317   1.438   5.623   3.977 -0.3999  0.7423  0.8267
18968TIP3   OH278318   2.168   6.761  12.655 -0.2021  0.0270  0.0151
18968TIP3    H178319   2.204   6.792  12.738  0.5421  2.0917 -0.9896
18968TIP3    H278320   2.242   6.769  12.593 -0.7483 -1.4001 -0.8762
18969TIP3   OH278321   4.574   5.823  13.197  0.0102 -0.0266  0.2838
18969TIP3    H178322   4.611   5.890  13.254  0.6654  0.2261 -0.4198
18969TIP3    H278323   4.590   5.856  13.108 -0.8434 -0.4851 -0.0524
18970TIP3   OH278324   0.087   4.942  12.050 -0.1676  0.1894  0.6061
18970TIP3    H178325  -0.005   4.955  12.027  0.3370  1.0430 -1.0726
18970TIP3    H278326   0.125   4.898  11.975  0.8974  0.2202  1.1099
18971TIP3   OH278327   5.328   0.965   3.859 -0.0016 -0.0643 -0.2113
18971TIP3    H178328   5.349   0.873   3.876  0.9036  0.3137  0.9160
18971TIP3    H278329   5.233   0.971   3.868 -0.0726 -0.8943 -0.3584
18972TIP3   OH278330   2.529   3.146  16.312  0.3302 -0.4463 -0.5841
18972TIP3    H178331   2.535   3.166  16.406 -0.7780 -1.5709 -0.2423
18972TIP3    H278332   2.592   3.075  16.299  1.1409  0.3251 -0.8862
18973TIP3   OH278333   1.900   0.115   0.958  0.7715  0.1212 -0.1240
18973TIP3    H178334   1.896   0.183   1.025  1.6758  0.7815 -0.7162
18973TIP3    H278335   1.946   0.156   0.884 -2.4055  0.2781 -2.1852
18974TIP3   OH278336   2.386   3.490   1.524  0.4790  0.4435 -0.6545
18974TIP3    H178337   2.357   3.404   1.553 -0.7942  0.9174 -0.4636
18974TIP3    H278338   2.365   3.548   1.597  1.7201  0.8573 -0.6082
18975TIP3   OH278339   4.014   5.131   2.969  0.5512 -0.3475 -0.2128
18975TIP3    H178340   4.018   5.098   3.058  2.6666 -1.5375 -0.6630
18975TIP3    H278341   3.921   5.136   2.949 -0.0047  0.6835  2.2703
18976TIP3   OH278342   0.435   3.693  15.287 -0.0057 -0.6648  0.0445
18976TIP3    H178343   0.359   3.662  15.238  1.3643 -1.6112 -1.6061
18976TIP3    H278344   0.445   3.785  15.263  0.0031 -0.8317 -0.5846
18977TIP3   OH278345   5.524   1.078   2.735  0.1983  0.3224 -0.3801
18977TIP3    H178346   5.613   1.108   2.750  0.7654 -2.1970  2.0027
18977TIP3    H278347   5.532   0.987   2.706 -1.5386 -0.9269  2.6206
18978TIP3   OH278348   2.335   4.085   2.948 -0.3223  0.3594  0.6185
18978TIP3    H178349   2.389   4.052   3.020 -0.2302 -1.0648 -0.0684
18978TIP3    H278350   2.247   4.053   2.966 -0.1294 -0.7370 -0.3304
18979TIP3   OH278351   2.570   5.252  16.158  0.2762  0.2812  0.3717
18979TIP3    H178352   2.591   5.294  16.075 -1.7425  0.6527 -0.0096
18979TIP3    H278353   2.551   5.325  16.217  1.8263  0.0246  1.2331
18980TIP3   OH278354   5.269   1.540   0.382 -0.4203  0.1804 -0.4815
18980TIP3    H178355   5.191   1.547   0.436 -0.5866  1.4527 -0.8314
18980TIP3    H278356   5.243   1.579   0.298  0.3650 -0.0864 -0.8578
18981TIP3   OH278357   3.340   4.341  12.635  0.0787 -0.2398 -0.2169
18981TIP3    H178358   3.417   4.399  12.638  0.5950 -0.9350  0.2077
18981TIP3    H278359   3.367   4.264  12.684 -0.3054 -1.2043 -1.4878
18982TIP3   OH278360   4.594   3.689  11.832  0.5836  0.5904 -0.4056
18982TIP3    H178361   4.670   3.747  11.830  1.6204 -0.6269  1.1295
18982TIP3    H278362   4.547   3.715  11.912  0.1819  0.3793 -0.5710
18983TIP3   OH278363   4.338   0.221   0.720  0.6852  0.2388 -0.5526
18983TIP3    H178364   4.325   0.277   0.644  0.9118  0.7734 -0.2062
18983TIP3    H278365   4.415   0.168   0.698  1.5654  1.3185 -0.1788
18984TIP3   OH278366   4.376   2.561  13.690 -0.1692 -0.6841 -0.2230
18984TIP3    H178367   4.390   2.526  13.602  1.1425 -2.8832  0.8032
18984TIP3    H278368   4.360   2.485  13.745 -0.1405  0.5638  1.6218
18985TIP3   OH278369   1.310   3.553  12.953  0.3404  0.2819  0.1137
18985TIP3    H178370   1.342   3.599  12.876 -2.0910  0.6255 -0.7827
18985TIP3    H278371   1.265   3.476  12.918  0.1020 -0.1161  1.2499
18986TIP3   OH278372   3.969   4.318  15.179 -0.2529  0.3988 -0.2717
18986TIP3    H178373   4.059   4.322  15.212  0.0291  2.9742 -1.1237
18986TIP3    H278374   3.914   4.329  15.256  0.2637  1.4981 -0.0488
18987TIP3   OH278375   2.834   2.612  15.485  0.1325 -0.5493  0.2848
18987TIP3    H178376   2.817   2.585  15.575  0.1408 -0.5562  0.2844
18987TIP3    H278377   2.849   2.706  15.490 -2.0437 -0.1276  0.0258
18988TIP3   OH278378   6.412   6.459  10.642  0.5005  0.5687  0.2186
18988TIP3    H178379   6.478   6.397  10.611 -0.6360  0.5944 -2.5747
18988TIP3    H278380   6.458   6.543  10.645  1.0205  0.3041 -0.1325
18989TIP3   OH278381   3.146   0.198  13.352 -0.3068  0.5482  0.5013
18989TIP3    H178382   3.227   0.212  13.303 -1.3838 -1.2440 -2.0501
18989TIP3    H278383   3.167   0.130  13.416  0.3164  0.3927  0.1354
18990TIP3   OH278384   5.752   4.450   0.105  0.2499  0.1243 -0.5807
18990TIP3    H178385   5.819   4.384   0.120 -0.0630 -0.2956 -0.9880
18990TIP3    H278386   5.669   4.402   0.109 -0.2014  0.9447  1.9071
18991TIP3   OH278387   0.460   3.413  15.283 -0.0014 -0.0736 -0.6597
18991TIP3    H178388   0.555   3.411  15.298  0.0223  1.2159 -0.5281
18991TIP3    H278389   0.422   3.415  15.371 -0.0543  1.8385 -0.7003
18992TIP3   OH278390   0.941   0.238   1.548  1.0355  0.2490  0.1158
18992TIP3    H178391   1.031   0.262   1.570  1.4536 -1.7948  0.8788
18992TIP3    H278392   0.893   0.249   1.630  1.0010 -0.4249  0.1878
18993TIP3   OH278393   3.291   4.489   4.564  0.1161  0.2794 -0.0047
18993TIP3    H178394   3.232   4.564   4.570  0.8276  0.8416  0.2117
18993TIP3    H278395   3.235   4.416   4.540 -0.6753  0.7788  0.2798
18994TIP3   OH278396   6.340   6.193  15.849  0.2511  0.0382 -0.2596
18994TIP3    H178397   6.355   6.187  15.755  0.5100 -1.0349 -0.1613
18994TIP3    H278398   6.427   6.207  15.886  0.1255  0.6670 -0.1801
18995TIP3   OH278399   4.180   1.660  12.092 -0.4078  0.5590  0.2950
18995TIP3    H178400   4.178   1.613  12.176  1.0682 -0.0322  0.0237
18995TIP3    H278401   4.237   1.607  12.036 -1.0560  1.1570 -0.9722
18996TIP3   OH278402   4.462   1.328  13.977 -0.3554 -0.5243 -0.4769
18996TIP3    H178403   4.526   1.365  14.038 -0.3763 -2.4610  0.8207
18996TIP3    H278404   4.492   1.238  13.964 -1.3626 -0.6708 -1.9740
18997TIP3   OH278405   0.333   4.151  12.407  0.4914 -0.1818 -0.0257
18997TIP3    H178406   0.362   4.240  12.387  2.6819 -1.0236 -0.9188
18997TIP3    H278407   0.247   4.163  12.449 -0.1799  2.2224 -1.8175
18998TIP3   OH278408   0.096   3.054  13.522  0.1478  0.1453  0.2892
18998TIP3    H178409   0.054   3.029  13.605 -0.7983  0.0388 -0.2087
18998TIP3    H278410   0.176   3.099  13.549 -0.0340 -0.0846  1.2623
18999TIP3   OH278411   0.947   4.118  10.782  0.7227 -0.9859  1.0569
18999TIP3    H178412   1.020   4.071  10.824  1.9466  1.0549  1.3578
18999TIP3    H278413   0.983   4.148  10.699  0.3656  0.3174  1.3501
19000TIP3   OH278414   3.723   0.342   4.359 -0.6376 -0.1965  0.1733
19000TIP3    H178415   3.674   0.344   4.441 -0.3078 -1.5365  0.4212
19000TIP3    H278416   3.753   0.432   4.347 -2.0045  0.3497  0.7086
19001TIP3   OH278417   5.613   5.446  16.074  0.1337 -0.4811  0.1984
19001TIP3    H178418   5.634   5.366  16.026 -2.0452 -1.0258  0.0653
19001TIP3    H278419   5.548   5.492  16.020  0.8111  1.0431  0.6117
19002TIP3   OH278420   5.507   4.086   2.459 -0.7145 -0.4279  0.1139
19002TIP3    H178421   5.590   4.050   2.490 -0.3717  0.4138  0.2047
19002TIP3    H278422   5.456   4.010   2.430  0.1896 -0.9292 -0.1858
19003TIP3   OH278423   0.707   5.249  12.425  0.3564  0.1940  0.5636
19003TIP3    H178424   0.716   5.306  12.348 -2.6248 -1.3930 -1.1355
19003TIP3    H278425   0.786   5.195  12.424  1.5298  1.8125  0.1298
19004TIP3   OH278426   2.267   5.449  14.902 -0.5559 -0.1391 -0.6841
19004TIP3    H178427   2.342   5.474  14.956 -1.5990 -0.6258  1.0818
19004TIP3    H278428   2.195   5.504  14.934 -1.4971 -1.3338 -0.6769
19005TIP3   OH278429   5.023   3.066  14.226  0.2365 -0.0712  0.2074
19005TIP3    H178430   5.118   3.054  14.226  0.0926 -1.7853  2.1088
19005TIP3    H278431   5.009   3.155  14.259  1.1770 -0.1038  0.7193
19006TIP3   OH278432   5.189   1.769   3.453 -0.1184 -0.1625 -0.5765
19006TIP3    H178433   5.279   1.769   3.486 -0.1479 -0.3714 -0.4914
19006TIP3    H278434   5.152   1.851   3.485 -1.0528 -1.6191  2.4466
19007TIP3   OH278435   1.043   0.900  10.532  0.0849 -0.3402  0.1415
19007TIP3    H178436   1.009   0.858  10.453 -0.9359  1.1705 -0.2800
19007TIP3    H278437   0.965   0.935  10.575  0.7576 -0.1122  1.2083
19008TIP3   OH278438   4.243   5.504  11.573 -0.2699 -0.0024 -0.0443
19008TIP3    H178439   4.155   5.474  11.548  0.2835 -1.3588 -0.4365
19008TIP3    H278440   4.227   5.573  11.637 -1.6211 -0.6309  0.3355
19009TIP3   OH278441   1.543   4.681  15.783  0.2585 -0.0173 -0.6016
19009TIP3    H178442   1.505   4.593  15.791  1.4294 -0.6926 -1.9181
19009TIP3    H278443   1.625   4.667  15.736  0.4116  1.8022 -0.9475
19010TIP3   OH278444   1.020   3.573   3.978 -0.5965  0.5822 -0.1026
19010TIP3    H178445   1.071   3.599   3.902  0.9279 -1.1723  0.2559
19010TIP3    H278446   0.983   3.488   3.955 -2.2320  1.1600  0.2054
19011TIP3   OH278447   3.085   2.606   3.884 -0.2449 -0.5238 -0.2511
19011TIP3    H178448   3.137   2.579   3.808 -0.6592 -0.1945 -0.6602
19011TIP3    H278449   3.149   2.643   3.945 -0.0651  0.5698 -1.0604
19012TIP3   OH278450   1.718   4.108  13.029 -0.1020 -0.5493  0.0296
19012TIP3    H178451   1.766   4.148  13.102 -0.9549  2.0822 -0.7441
19012TIP3    H278452   1.777   4.113  12.955 -0.7634  0.8191 -0.4399
19013TIP3   OH278453   1.498   2.265  12.098 -0.7840 -0.0262  0.4110
19013TIP3    H178454   1.563   2.329  12.066  0.9140 -2.1532 -0.6539
19013TIP3    H278455   1.533   2.235  12.182 -2.0207  1.0148  1.3241
19014TIP3   OH278456   4.822   3.453   1.730  0.4202  0.3278  0.0574
19014TIP3    H178457   4.885   3.411   1.672 -2.2090  0.0717 -2.8889
19014TIP3    H278458   4.795   3.385   1.791  0.5112 -0.5686 -0.8834
19015TIP3   OH278459   6.282   5.536  15.711 -0.0716  0.1535  0.5237
19015TIP3    H178460   6.252   5.449  15.686  0.5478  0.3821 -1.0910
19015TIP3    H278461   6.202   5.587  15.722 -0.4834 -0.7748  2.2563
19016TIP3   OH278462   2.186   1.271  12.102 -0.7736  0.2920 -0.0517
19016TIP3    H178463   2.259   1.321  12.138 -0.3341 -0.4807  0.1607
19016TIP3    H278464   2.212   1.179  12.114 -1.7188  0.0089 -0.0952
19017TIP3   OH278465   5.725   3.124   4.978  0.3295  0.4122  0.6336
19017TIP3    H178466   5.806   3.084   5.009  0.1996 -2.5323 -2.3348
19017TIP3    H278467   5.657   3.061   5.002 -1.0390  2.3828  2.2232
19018TIP3   OH278468   2.483   0.315   1.881  0.4850  0.1078  0.6197
19018TIP3    H178469   2.542   0.378   1.841 -2.7563  1.6986 -2.2420
19018TIP3    H278470   2.472   0.247   1.814 -2.5080  1.0607 -0.0103
19019TIP3   OH278471   0.702   3.582  16.902 -0.0219  0.3078  0.7133
19019TIP3    H178472   0.702   3.658  16.844  0.2298 -0.1358  0.1173
19019TIP3    H278473   0.613   3.577  16.936 -0.2991  0.3165  0.0136
19020TIP3   OH278474   1.301   1.992   4.607  0.8338 -0.0222 -0.2589
19020TIP3    H178475   1.334   2.033   4.687 -1.8837  2.6396 -0.2975
19020TIP3    H278476   1.368   2.011   4.541  1.7177  0.4476  0.7418
19021TIP3   OH278477   1.436   0.427   2.543  0.2163 -0.2713 -0.0736
19021TIP3    H178478   1.363   0.399   2.598  0.5790 -1.2197 -0.0575
19021TIP3    H278479   1.407   0.411   2.453 -0.4897  1.5484 -0.2202
19022TIP3   OH278480   1.120   2.079  14.817  0.2532 -0.8777 -0.4478
19022TIP3    H178481   1.049   2.015  14.809 -0.1552 -0.2967 -1.7268
19022TIP3    H278482   1.133   2.112  14.728  0.2066  1.0778  0.2225
19023TIP3   OH278483   1.516   3.145   5.667  0.0236  0.1195 -0.3708
19023TIP3    H178484   1.571   3.147   5.745 -2.2827 -2.5891  1.5315
19023TIP3    H278485   1.464   3.225   5.672  1.5502  1.1734 -0.5384
19024TIP3   OH278486   6.561   6.167   5.684 -0.1225 -0.6410  0.4923
19024TIP3    H178487   6.480   6.121   5.704 -0.7623  0.5486  0.7522
19024TIP3    H278488   6.532   6.249   5.643  0.8218  0.7356  2.4093
19025TIP3   OH278489   1.033   0.368   4.377 -0.0867  0.5422 -0.7088
19025TIP3    H178490   1.126   0.349   4.390 -0.3921 -1.1371 -0.6782
19025TIP3    H278491   1.004   0.404   4.461  0.6370  1.6180 -0.8992
19026TIP3   OH278492   1.779   4.708   3.361  0.0890 -0.1673  0.0111
19026TIP3    H178493   1.702   4.656   3.383 -0.5709  0.1913 -1.3285
19026TIP3    H278494   1.776   4.716   3.265  0.5819  1.6889  0.1093
19027TIP3   OH278495   5.204   2.935   5.060 -0.4027  0.0296  0.1891
19027TIP3    H178496   5.148   2.906   5.132 -0.7530  0.6956  0.1928
19027TIP3    H278497   5.144   2.947   4.986 -0.0788 -0.4322 -0.1627
19028TIP3   OH278498   2.126   1.215  11.297  0.5612  0.5461 -0.1963
19028TIP3    H178499   2.126   1.136  11.243 -1.2392  0.0446  0.4469
19028TIP3    H278500   2.160   1.186  11.381 -0.8544  0.2082  0.2948
19029TIP3   OH278501   1.113   1.339  10.656  0.6240 -0.5206 -0.2587
19029TIP3    H178502   1.036   1.292  10.624  0.6723 -0.0685 -1.0720
19029TIP3    H278503   1.161   1.274  10.708  0.5868 -1.3277 -1.1853
19030TIP3   OH278504   5.790   0.253   5.026 -0.6328  0.2255 -0.2575
19030TIP3    H178505   5.827   0.340   5.039  2.5845 -0.6073 -2.4083
19030TIP3    H278506   5.813   0.205   5.106 -2.3121  1.2441  0.8827
19031TIP3   OH278507   2.995   6.680  13.711  0.4863 -0.0192 -0.2986
19031TIP3    H178508   3.007   6.622  13.635  1.1648  1.1011 -1.0822
19031TIP3    H278509   3.062   6.652  13.773  0.6625 -0.2312 -0.5817
19032TIP3   OH278510   4.404   1.066   0.516  0.2534 -0.1781  0.8266
19032TIP3    H178511   4.467   1.019   0.570 -0.7422 -2.7820 -0.1351
19032TIP3    H278512   4.439   1.058   0.427 -1.1977 -1.4153  0.3160
19033TIP3   OH278513   1.268   3.891  16.980  0.0747  0.2709  0.5988
19033TIP3    H178514   1.297   3.972  16.940 -2.0158  1.5903  1.5746
19033TIP3    H278515   1.262   3.829  16.908  1.4206  1.0441 -0.2123
19034TIP3   OH278516   4.700   4.549   5.119  0.3490 -0.1696 -0.0427
19034TIP3    H178517   4.774   4.490   5.104  0.5693 -0.1215  0.8297
19034TIP3    H278518   4.642   4.500   5.178 -0.5749 -0.4161 -1.1148
19035TIP3   OH278519   2.981   3.886  14.228  0.2864  0.2738 -0.2250
19035TIP3    H178520   3.066   3.920  14.255  1.4783  0.1043 -3.3450
19035TIP3    H278521   2.922   3.911  14.298  2.8434  0.5090  2.0237
19036TIP3   OH278522   4.398   4.561   3.367 -0.2969 -0.1848  0.3060
19036TIP3    H178523   4.392   4.603   3.452  2.0221  0.8769  0.0469
19036TIP3    H278524   4.314   4.578   3.325 -0.2670  2.3033  1.1065
19037TIP3   OH278525   3.663   5.591   4.626  0.2443  0.2613 -0.0519
19037TIP3    H178526   3.591   5.620   4.570 -0.0423  0.4766  0.4215
19037TIP3    H278527   3.738   5.643   4.597  0.4966 -0.7192 -1.2715
19038TIP3   OH278528   5.148   6.246   2.306 -0.4486 -0.0228  0.6830
19038TIP3    H178529   5.147   6.261   2.401 -0.3278 -1.2660  0.8959
19038TIP3    H278530   5.060   6.266   2.277 -1.0009 -1.3353  1.3602
19039TIP3   OH278531   3.270   5.664  16.968  0.8111  0.1792  0.2704
19039TIP3    H178532   3.227   5.589  16.925 -0.1081  0.3983  0.7708
19039TIP3    H278533   3.250   5.652  17.061  0.3810  1.2123  0.3210
19040TIP3   OH278534   3.826   4.641  13.772  0.1108 -0.5185 -0.3747
19040TIP3    H178535   3.839   4.593  13.690 -0.5456  2.3455 -2.3344
19040TIP3    H278536   3.737   4.678  13.764 -0.9433 -2.0396  2.7686
19041TIP3   OH278537   5.031   5.814   5.789 -0.5077 -0.6272  0.0344
19041TIP3    H178538   4.967   5.758   5.833 -0.1231 -0.6612  0.5603
19041TIP3    H278539   5.090   5.842   5.859 -0.5615  0.2540 -0.2652
19042TIP3   OH278540   2.489   5.856  15.270  0.0815 -0.0221  0.6724
19042TIP3    H178541   2.522   5.827  15.355  0.9832  0.8289  0.6250
19042TIP3    H278542   2.567   5.860  15.214 -0.6183 -1.5228 -0.4961
19043TIP3   OH278543   1.298   4.217  14.101 -0.1994  0.0407  0.2986
19043TIP3    H178544   1.320   4.287  14.162 -0.6457 -1.1659  1.8831
19043TIP3    H278545   1.203   4.219  14.095 -0.1090  1.9701 -2.6402
19044TIP3   OH278546   3.723   4.080  12.937  0.1359 -0.3814  0.2287
19044TIP3    H178547   3.682   4.011  12.989  0.0195 -0.9219 -0.5613
19044TIP3    H278548   3.814   4.083  12.968 -0.2546  0.2524  1.4027
19045TIP3   OH278549   1.263   0.599  10.684  0.1286 -0.5567  0.0901
19045TIP3    H178550   1.204   0.523  10.684  0.8343 -1.1197 -0.2465
19045TIP3    H278551   1.279   0.617  10.592 -0.0580  0.0232  0.1696
19046TIP3   OH278552   5.590   4.159   4.748  0.0832 -0.2996  0.5760
19046TIP3    H178553   5.583   4.216   4.672 -1.0679 -2.5210 -1.1228
19046TIP3    H278554   5.658   4.095   4.723  0.1293 -0.6911  1.6661
19047TIP3   OH278555   3.866   4.663  15.187 -0.2194  0.4573 -0.2211
19047TIP3    H178556   3.804   4.721  15.232 -0.9567 -1.1868  0.9977
19047TIP3    H278557   3.837   4.662  15.096 -1.2288  0.6951  0.0881
19048TIP3   OH278558   3.622   1.255  12.285 -0.6148 -0.2987  0.5323
19048TIP3    H178559   3.696   1.196  12.299 -0.8283 -0.7865 -0.2987
19048TIP3    H278560   3.565   1.241  12.361 -0.3822 -0.7379  0.6320
19049TIP3   OH278561   0.313   5.245  14.234  0.2845  0.6440  0.4740
19049TIP3    H178562   0.266   5.246  14.151  0.3075  1.0816  0.4668
19049TIP3    H278563   0.380   5.313  14.225  0.0888  0.9074  0.9670
19050TIP3   OH278564   0.204   3.523  14.167 -0.0231 -0.4365  0.4122
19050TIP3    H178565   0.204   3.605  14.117 -1.4327 -0.5738  0.1409
19050TIP3    H278566   0.296   3.499  14.175  0.2611 -0.1791 -1.7280
19051TIP3   OH278567   1.825   1.146   1.322 -0.1058  0.8677  0.6247
19051TIP3    H178568   1.748   1.203   1.319  0.5633  1.7915  0.2322
19051TIP3    H278569   1.896   1.203   1.353  0.6152  0.2905  0.0878
19052TIP3   OH278570   2.419   1.129  14.326 -0.0250  0.1783 -0.0768
19052TIP3    H178571   2.373   1.051  14.293  0.0333  0.7020 -1.4766
19052TIP3    H278572   2.383   1.142  14.414  0.0953 -1.5148  0.2733
19053TIP3   OH278573   0.293   4.158   1.831  0.0527  0.2916  0.5423
19053TIP3    H178574   0.206   4.192   1.849 -0.3366 -0.1287 -0.5187
19053TIP3    H278575   0.350   4.208   1.890 -0.9214  0.3933  1.4221
19054TIP3   OH278576   5.119   0.950  13.812 -0.1059  0.3066 -0.7050
19054TIP3    H178577   5.064   1.003  13.870 -0.0186  1.4166 -1.5992
19054TIP3    H278578   5.197   0.930  13.864  0.1987  1.7156 -0.5848
19055TIP3   OH278579   2.134   6.045   2.146  0.0397  0.3627 -0.4434
19055TIP3    H178580   2.185   6.065   2.224 -0.8937  0.5661  0.1365
19055TIP3    H278581   2.196   6.050   2.074  1.1253 -0.7987  0.3853
19056TIP3   OH278582   6.389   5.169  15.996  0.1443  0.1847  0.1031
19056TIP3    H178583   6.319   5.105  16.011  0.7717 -1.0558 -1.8775
19056TIP3    H278584   6.353   5.251  16.028 -1.4507 -0.7802  0.9348
19057TIP3   OH278585   2.636   4.524   3.632  0.4369  0.3886  0.6868
19057TIP3    H178586   2.628   4.439   3.677  0.3815  0.3506  0.6059
19057TIP3    H278587   2.557   4.571   3.656 -0.7885 -0.5475 -1.2856
19058TIP3   OH278588   0.194   6.565  16.901 -0.5288  0.0772  0.7785
19058TIP3    H178589   0.177   6.641  16.844 -1.8941  0.2237  1.3396
19058TIP3    H278590   0.191   6.490  16.841 -0.2793  0.3609  0.3995
19059TIP3   OH278591   3.165   3.118   2.057  0.6219 -0.0259  0.4407
19059TIP3    H178592   3.140   3.060   1.986 -0.6651 -0.7318  1.4170
19059TIP3    H278593   3.087   3.171   2.073  1.3358  1.0517  0.4523
19060TIP3   OH278594   0.971   3.608   1.111  0.3521  0.0464  0.5672
19060TIP3    H178595   1.007   3.626   1.197  0.4950  1.6240  0.2146
19060TIP3    H278596   1.041   3.634   1.050 -0.2721  0.3190 -0.0460
19061TIP3   OH278597   5.088   2.675  11.994  0.7113 -0.2151 -0.8707
19061TIP3    H178598   5.055   2.732  11.924  1.1317 -0.7943 -1.5419
19061TIP3    H278599   5.168   2.718  12.024 -0.2302  0.8208  0.2838
19062TIP3   OH278600   0.257   5.177  13.947  0.2375 -0.9028 -0.3087
19062TIP3    H178601   0.283   5.254  13.897 -0.8123 -0.1658  0.2409
19062TIP3    H278602   0.310   5.106  13.911  0.9059 -0.0162 -1.1255
19063TIP3   OH278603   3.105   4.283  15.703 -0.6817  0.1840 -0.1269
19063TIP3    H178604   3.071   4.199  15.734 -1.0774  0.2535 -0.3579
19063TIP3    H278605   3.050   4.304  15.627 -0.4028  0.5147 -0.2398
19064TIP3   OH278606   0.533   0.640  13.942  0.5216 -0.4075 -0.2913
19064TIP3    H178607   0.491   0.587  13.875 -4.0281  2.0394  0.1981
19064TIP3    H278608   0.529   0.587  14.022  2.9255 -2.0321 -1.1618
19065TIP3   OH278609   5.941   3.353  15.661 -0.6246 -0.5399 -0.8020
19065TIP3    H178610   5.931   3.367  15.755  0.9103 -0.5240 -0.6124
19065TIP3    H278611   6.036   3.342  15.648 -0.9529 -2.2856 -2.0976
19066TIP3   OH278612   1.937   3.323   3.953  0.0739  0.1612  0.4693
19066TIP3    H178613   1.891   3.242   3.932 -0.2830  0.7250 -1.0162
19066TIP3    H278614   1.957   3.315   4.047 -1.2148 -0.9975  0.6799
19067TIP3   OH278615   6.730   3.231  14.545  0.1821  0.5341 -0.1096
19067TIP3    H178616   6.726   3.276  14.460  2.6256  1.8784  0.3678
19067TIP3    H278617   6.683   3.289  14.605  0.3097  0.6713 -0.1427
19068TIP3   OH278618   2.289   4.004  16.094  0.1905  0.2390  0.0418
19068TIP3    H178619   2.333   3.983  16.176  2.6270 -0.1950 -1.2744
19068TIP3    H278620   2.342   3.962  16.027 -1.7271  0.5625 -1.7874
19069TIP3   OH278621   4.340   6.171  12.424  0.8273 -0.5328  0.5082
19069TIP3    H178622   4.336   6.232  12.497  1.0693  0.0655  0.0324
19069TIP3    H278623   4.259   6.187  12.374  1.9129  1.0387 -0.8721
19070TIP3   OH278624   1.715   5.695  12.806 -0.2548 -0.2610 -0.2998
19070TIP3    H178625   1.786   5.639  12.775  0.3872  0.8284 -0.8801
19070TIP3    H278626   1.718   5.687  12.901 -0.3176 -1.3476 -0.3718
19071TIP3   OH278627   1.982   3.406   1.035  0.2650  0.4981  0.1321
19071TIP3    H178628   1.919   3.457   0.984 -0.8824 -0.6826  0.3058
19071TIP3    H278629   2.015   3.468   1.100 -1.4928  0.9127  0.6851
19072TIP3   OH278630   4.838   0.329  16.648  0.0423  0.0289 -0.3162
19072TIP3    H178631   4.867   0.409  16.604 -0.8638  0.7898  0.4182
19072TIP3    H278632   4.746   0.347  16.671  0.0878 -0.8865  0.6196
19073TIP3   OH278633   2.934   1.721   2.142 -0.4097 -0.3504  0.0532
19073TIP3    H178634   2.878   1.798   2.141 -0.2682 -0.2536 -0.5184
19073TIP3    H278635   2.911   1.672   2.063  0.7154 -0.0006 -0.5204
19074TIP3   OH278636   2.698   6.247   5.930 -0.3925  0.4303 -0.3050
19074TIP3    H178637   2.775   6.265   5.983 -1.1929  0.7501  0.7811
19074TIP3    H278638   2.642   6.324   5.942 -1.7182 -0.6239  0.4763
19075TIP3   OH278639   0.007   6.024   5.951  0.0468 -0.6867 -0.1813
19075TIP3    H178640   0.092   6.057   5.923  0.5577 -1.6806  0.1593
19075TIP3    H278641  -0.051   6.039   5.875  1.0163 -1.8429 -1.1892
19076TIP3   OH278642   6.327   3.604   2.849  0.0141  0.5300  0.6998
19076TIP3    H178643   6.368   3.598   2.763  1.7209  2.9123  1.2321
19076TIP3    H278644   6.236   3.579   2.834  0.1990  1.1047 -1.8679
19077TIP3   OH278645   2.716   0.707   4.272 -0.2398  0.2985 -0.5148
19077TIP3    H178646   2.653   0.766   4.314 -0.9852 -0.1052 -1.0342
19077TIP3    H278647   2.676   0.620   4.278  0.8763 -0.1759  0.2975
19078TIP3   OH278648   2.547   4.541   5.799  0.3438 -0.8435  0.0227
19078TIP3    H178649   2.462   4.585   5.801  0.7012 -0.0938  2.4226
19078TIP3    H278650   2.609   4.609   5.772  0.5531 -0.5219  1.2513
19079TIP3   OH278651   6.638   2.454   1.925 -0.0236  0.2038 -0.5126
19079TIP3    H178652   6.565   2.489   1.874 -0.3319  0.0917 -0.1564
19079TIP3    H278653   6.608   2.460   2.016  0.2549 -0.2050 -0.3922
19080TIP3   OH278654   2.273   5.061  14.476 -0.3924 -0.4389  0.5396
19080TIP3    H178655   2.291   4.971  14.503  0.5601 -1.0403 -1.8416
19080TIP3    H278656   2.320   5.072  14.393 -0.8559  2.1187  0.5065
19081TIP3   OH278657   0.840   4.720   1.672 -0.1690 -0.1265 -0.1750
19081TIP3    H178658   0.920   4.771   1.660  0.7987 -1.4524  0.4255
19081TIP3    H278659   0.870   4.633   1.698 -1.7155 -1.3993 -2.3280
19082TIP3   OH278660   6.797   0.626  15.920  0.2392  0.0596 -0.2996
19082TIP3    H178661   6.852   0.702  15.934 -1.0356  0.8507  0.6181
19082TIP3    H278662   6.819   0.567  15.992 -0.3387  0.5201  0.2624
19083TIP3   OH278663   2.470   5.902  16.800  0.1364 -0.4810 -0.2059
19083TIP3    H178664   2.415   5.952  16.740 -1.6745 -0.9825  0.9662
19083TIP3    H278665   2.412   5.835  16.836  1.1746 -0.2764  2.0134
19084TIP3   OH278666   3.360   4.908  11.422  0.0283  0.1039 -1.2258
19084TIP3    H178667   3.445   4.903  11.466 -0.3053  0.8066 -0.4980
19084TIP3    H278668   3.305   4.961  11.479 -1.3278 -1.4254 -1.0329
19085TIP3   OH278669   0.597   0.451  11.524 -0.3389 -0.2044 -0.2728
19085TIP3    H178670   0.633   0.469  11.437  0.2549 -1.0787 -0.2159
19085TIP3    H278671   0.620   0.529  11.576 -0.0531 -0.0017 -0.6963
19086TIP3   OH278672   4.587   0.093   5.198  0.6134 -0.8112  0.0608
19086TIP3    H178673   4.532   0.143   5.138  2.4139  1.3260  0.0676
19086TIP3    H278674   4.535   0.086   5.278  0.2918  1.1626  0.0724
19087TIP3   OH278675   2.070   3.982   2.989  0.0065 -0.5444 -0.2042
19087TIP3    H178676   1.988   4.028   3.004  0.5369 -0.1706  1.8261
19087TIP3    H278677   2.096   3.951   3.076  0.8623 -2.6419 -1.1482
19088TIP3   OH278678   4.420   2.036   0.174  0.1612  0.5330 -0.1581
19088TIP3    H178679   4.377   2.009   0.093 -0.0096  1.2916 -0.3179
19088TIP3    H278680   4.400   2.128   0.184  0.8837  0.6550  0.3081
19089TIP3   OH278681   4.822   3.184  11.875 -0.8418 -0.2887  0.2510
19089TIP3    H178682   4.917   3.194  11.887 -0.6706 -0.3312 -0.9171
19089TIP3    H278683   4.786   3.270  11.893 -0.5195 -0.1481  0.2296
19090TIP3   OH278684   6.299   4.483  16.986  0.1297 -0.3729 -0.4976
19090TIP3    H178685   6.389   4.492  17.017  0.0100  1.3117 -0.5671
19090TIP3    H278686   6.305   4.495  16.891 -0.0409 -1.3486 -0.6417
19091TIP3   OH278687   0.039   4.403   6.227 -0.1451 -0.3731 -0.3450
19091TIP3    H178688   0.044   4.499   6.233  1.0333 -0.4613  0.2350
19091TIP3    H278689   0.130   4.374   6.219 -0.2409 -1.6019  2.0647
19092TIP3   OH278690   6.732   0.036   3.774  0.2792 -0.1580 -0.4434
19092TIP3    H178691   6.758   0.092   3.847  1.2270 -2.1555  0.8676
19092TIP3    H278692   6.637   0.045   3.768 -0.1886 -1.6913  2.7075
19093TIP3   OH278693   1.843   0.504   2.950 -0.1079 -0.0179  0.0480
19093TIP3    H178694   1.809   0.573   3.006 -0.5629  0.8221 -1.2263
19093TIP3    H278695   1.930   0.535   2.924 -0.5845  0.4170 -1.0710
19094TIP3   OH278696   4.736   5.877  13.435  0.5135 -0.2518  0.0616
19094TIP3    H178697   4.803   5.919  13.381  0.0673 -0.4195 -0.6460
19094TIP3    H278698   4.750   5.911  13.523  1.6381 -0.4268 -0.0422
19095TIP3   OH278699   4.124   3.592   1.792 -0.1226  0.0881 -0.3596
19095TIP3    H178700   4.126   3.503   1.755 -1.0686  0.3708 -1.1239
19095TIP3    H278701   4.178   3.644   1.732 -1.2683  0.4466 -1.1190
19096TIP3   OH278702   6.537   4.981  14.241  0.5367  0.0811  0.3010
19096TIP3    H178703   6.537   4.906  14.301  2.6464  0.5300  0.9235
19096TIP3    H278704   6.572   4.946  14.159 -0.1081  0.0204  0.0407
19097TIP3   OH278705   1.912   2.564   3.661 -0.2323  0.4204  0.5857
19097TIP3    H178706   1.915   2.655   3.692  1.9989  0.3912  0.5980
19097TIP3    H278707   1.890   2.571   3.568  0.4185  1.0089  0.4705
19098TIP3   OH278708   6.318   2.410   5.498 -0.1888  0.4882  0.2960
19098TIP3    H178709   6.311   2.503   5.478 -0.2799  0.5992  0.8376
19098TIP3    H278710   6.269   2.367   5.428  0.8207  0.7630 -0.6101
19099TIP3   OH278711   3.271   4.283   1.198  0.0800  0.3336  0.0964
19099TIP3    H178712   3.292   4.327   1.116 -0.2910 -1.2797 -0.9068
19099TIP3    H278713   3.326   4.327   1.263  0.7845  1.2918 -1.0994
19100TIP3   OH278714   5.769   2.739   5.629 -0.0319 -0.8043  0.6962
19100TIP3    H178715   5.720   2.740   5.711  0.2278 -0.0658  0.8533
19100TIP3    H278716   5.861   2.739   5.655  0.0543 -0.3214  0.4152
19101TIP3   OH278717   3.852   2.540   5.031  0.3303  0.3603 -0.8631
19101TIP3    H178718   3.866   2.629   5.063  1.6054 -0.4393  0.9464
19101TIP3    H278719   3.934   2.518   4.985 -0.6882  0.7391 -2.9913
19102TIP3   OH278720   1.690   0.357   4.441  0.5964 -0.2062  0.1203
19102TIP3    H178721   1.672   0.298   4.514  0.7084  0.5942  0.8035
19102TIP3    H278722   1.662   0.308   4.363 -0.5820 -0.6265  0.7898
19103TIP3   OH278723   3.077   4.856  13.458 -0.0517  0.5486  0.1818
19103TIP3    H178724   2.986   4.885  13.448 -0.5203 -0.6146  0.8363
19103TIP3    H278725   3.085   4.784  13.396  0.5075  0.8065 -0.0466
19104TIP3   OH278726   6.510   1.245  14.539  0.1999  0.5365 -0.2991
19104TIP3    H178727   6.428   1.278  14.502  0.3977  1.6157  0.1814
19104TIP3    H278728   6.486   1.163  14.582  0.0240 -0.9468 -3.0442
19105TIP3   OH278729   6.007   4.067   0.647  0.2959 -0.5787 -0.0267
19105TIP3    H178730   6.080   4.022   0.688  0.1865  1.7962  3.0990
19105TIP3    H278731   6.048   4.128   0.585  0.7211 -1.2270 -0.3988
19106TIP3   OH278732   5.855   5.544  11.220  0.1051  0.6445 -0.4938
19106TIP3    H178733   5.888   5.633  11.211 -0.5091  0.9664  0.3452
19106TIP3    H278734   5.821   5.521  11.133 -0.9551  1.7228 -0.3772
19107TIP3   OH278735   5.745   5.948  13.207 -0.2695 -0.3997  0.2691
19107TIP3    H178736   5.766   6.021  13.149  2.1401  0.3130  1.8909
19107TIP3    H278737   5.662   5.972  13.247 -1.0956 -0.0905 -1.5427
19108TIP3   OH278738   1.529   1.757  15.878 -0.1915  0.1105  0.1279
19108TIP3    H178739   1.479   1.838  15.886  0.5403  0.6994 -0.9687
19108TIP3    H278740   1.492   1.714  15.801  0.4368  0.1538 -0.2007
19109TIP3   OH278741   6.483   2.980   4.221  0.2559 -0.1738 -0.4236
19109TIP3    H178742   6.388   2.993   4.223  0.3263  0.3463  1.1168
19109TIP3    H278743   6.497   2.897   4.267  0.5362 -0.3369 -0.8019
19110TIP3   OH278744   0.277   3.293   2.476  0.2429  0.4653 -0.5545
19110TIP3    H178745   0.287   3.385   2.454  1.1020  0.3991 -0.4482
19110TIP3    H278746   0.249   3.251   2.395 -1.4850  1.0208 -0.2904
19111TIP3   OH278747   6.488   3.201   2.053 -0.1210  0.7662 -0.5147
19111TIP3    H178748   6.504   3.199   1.958  2.8373 -0.8877 -0.1201
19111TIP3    H278749   6.531   3.281   2.083  0.0926  0.6260 -0.4410
19112TIP3   OH278750   4.583   1.099  13.925 -0.4657  0.4930 -0.1528
19112TIP3    H178751   4.573   1.056  13.840  1.0919  0.4882 -0.3690
19112TIP3    H278752   4.657   1.053  13.966 -0.5279  1.1815  0.7554
19113TIP3   OH278753   1.022   5.187   4.397 -0.7157 -0.3955  0.2373
19113TIP3    H178754   0.945   5.168   4.344 -1.7515  1.1018  1.1094
19113TIP3    H278755   1.096   5.170   4.339 -1.7427 -0.6911 -1.0356
19114TIP3   OH278756   4.795   2.279   0.417 -0.2811  0.7883 -0.1891
19114TIP3    H178757   4.883   2.266   0.450  0.0811  1.1607 -0.9812
19114TIP3    H278758   4.800   2.257   0.324 -1.1746  0.1740 -0.1041
19115TIP3   OH278759   3.742   5.962  12.444  0.2479 -0.2952  0.1864
19115TIP3    H178760   3.682   5.932  12.513 -1.5782  0.7597 -0.8610
19115TIP3    H278761   3.714   6.051  12.425 -0.9615 -1.2995 -3.5370
19116TIP3   OH278762   2.463   5.003  16.101 -0.1615  0.0720  0.1389
19116TIP3    H178763   2.510   5.077  16.141 -0.5401  0.4984 -0.2007
19116TIP3    H278764   2.497   4.998  16.012  0.9372 -1.1017  0.5830
19117TIP3   OH278765   3.765   5.987  16.434  0.2113  0.5338 -0.0789
19117TIP3    H178766   3.822   5.910  16.438 -0.0572  0.2299 -1.6477
19117TIP3    H278767   3.680   5.956  16.466  0.7466  0.8646  1.7877
19118TIP3   OH278768   2.934   3.101  11.168 -0.2795  0.6734 -0.1868
19118TIP3    H178769   2.911   3.045  11.094  1.1214  0.1194 -0.2254
19118TIP3    H278770   2.902   3.188  11.142  1.4284  0.8167 -2.1214
19119TIP3   OH278771   3.948   4.749   0.189  0.2602 -0.0100  0.2250
19119TIP3    H178772   4.005   4.708   0.124  0.1624  0.8524 -0.4140
19119TIP3    H278773   3.926   4.834   0.152  0.9727  0.9126  1.8018
19120TIP3   OH278774   3.322   4.893   5.002 -0.2223  0.5815  0.0816
19120TIP3    H178775   3.274   4.866   4.923 -0.7487 -0.4933  0.7530
19120TIP3    H278776   3.255   4.930   5.059 -0.3402 -1.1739  1.1377
19121TIP3   OH278777   3.234   6.639  14.655 -0.2822 -0.3654 -0.9282
19121TIP3    H178778   3.307   6.626  14.595  0.9375 -1.3855  0.7396
19121TIP3    H278779   3.235   6.563  14.712 -0.4815  1.2500  1.3422
19122TIP3   OH278780   1.399   0.406  14.629 -0.2967 -0.1673 -0.4157
19122TIP3    H178781   1.367   0.323  14.593 -0.5896 -0.1905 -0.1113
19122TIP3    H278782   1.466   0.435  14.567  0.1887 -0.8993 -0.2468
19123TIP3   OH278783   6.021   4.509  16.148 -0.5305 -0.1423 -0.2390
19123TIP3    H178784   6.021   4.415  16.168 -1.0459 -0.1428 -0.2268
19123TIP3    H278785   6.022   4.551  16.234  2.8262 -0.0790 -0.1586
19124TIP3   OH278786   5.586   5.805  14.753 -0.2886 -0.3699  0.3745
19124TIP3    H178787   5.491   5.799  14.742 -0.4624  1.1228  0.9215
19124TIP3    H278788   5.598   5.856  14.832  0.9352  2.7875 -1.6555
19125TIP3   OH278789   0.566   3.006   2.072 -0.0318  0.0361 -0.3745
19125TIP3    H178790   0.492   2.977   2.126  0.4062 -4.2655 -1.7811
19125TIP3    H278791   0.629   2.935   2.078  3.0098  2.4718 -1.2117
19126TIP3   OH278792   2.260   5.857  14.019 -0.3408  0.4855 -0.1199
19126TIP3    H178793   2.283   5.949  14.008  0.0332  0.2494 -1.6654
19126TIP3    H278794   2.180   5.846  13.968  0.2422 -0.2697 -0.9125
19127TIP3   OH278795   5.311   5.178   5.264  0.2360 -0.3158 -0.2056
19127TIP3    H178796   5.364   5.166   5.185  1.5273  1.3236  0.3498
19127TIP3    H278797   5.319   5.272   5.284 -1.5818 -0.3329  0.8337
19128TIP3   OH278798   5.475   6.780   1.146 -0.0309  0.3078  0.1784
19128TIP3    H178799   5.502   6.731   1.068 -0.4540  0.8509 -0.3176
19128TIP3    H278800   5.554   6.782   1.200  0.0721 -0.6770  0.0857
19129TIP3   OH278801   2.884   1.057   2.704  0.1368  0.2946  0.4095
19129TIP3    H178802   2.835   1.006   2.769  0.0881 -3.1124 -2.0521
19129TIP3    H278803   2.853   1.147   2.717 -3.4199 -0.9400  1.9436
19130TIP3   OH278804   4.130   0.643  12.226 -0.1895 -0.0222  0.2477
19130TIP3    H178805   4.034   0.642  12.221 -0.1240 -0.8573 -1.2203
19130TIP3    H278806   4.152   0.735  12.244 -1.2627  0.0873  1.1320
19131TIP3   OH278807   6.590   4.509   2.810  0.6138  0.0829 -0.1548
19131TIP3    H178808   6.517   4.541   2.864  1.9129  1.1226  1.0405
19131TIP3    H278809   6.576   4.550   2.724 -1.4774 -1.5837 -0.7145
19132TIP3   OH278810   3.697   0.344  12.771 -0.0675 -0.1054 -0.4973
19132TIP3    H178811   3.650   0.323  12.690 -1.0136  0.2602 -0.0552
19132TIP3    H278812   3.729   0.433  12.757 -0.3192 -0.0044 -0.4250
19133TIP3   OH278813   5.075   5.267   5.138 -0.0945  0.1762  0.6308
19133TIP3    H178814   5.155   5.228   5.176  0.9317  1.1087 -0.5094
19133TIP3    H278815   5.100   5.292   5.049 -0.5822  3.7034  1.3485
19134TIP3   OH278816   5.267   4.092  13.351  0.3253 -0.1604 -0.3059
19134TIP3    H178817   5.275   4.021  13.287  0.5877 -0.4732  0.0663
19134TIP3    H278818   5.189   4.070  13.402  0.6977 -0.4593  0.1414
19135TIP3   OH278819   4.707   5.668  15.349  0.3277  0.1695  0.4956
19135TIP3    H178820   4.649   5.677  15.273  0.5270  0.8797  0.4206
19135TIP3    H278821   4.708   5.755  15.389  0.2913 -0.1761  1.2712
19136TIP3   OH278822   4.190   6.235  16.047 -0.6852 -0.4797  0.2326
19136TIP3    H178823   4.224   6.293  16.115 -0.6747  0.3840 -0.4806
19136TIP3    H278824   4.210   6.147  16.077  0.2538 -0.0682  0.8392
19137TIP3   OH278825   6.607   6.513  16.675  0.1483  0.9740  0.1177
19137TIP3    H178826   6.535   6.504  16.613 -0.5467 -5.7392  1.0975
19137TIP3    H278827   6.686   6.510  16.621 -0.4635 -1.7289 -0.7732
19138TIP3   OH278828   5.272   6.225  15.603 -0.3772  0.0850  0.0362
19138TIP3    H178829   5.234   6.150  15.559 -1.1712  1.8127 -2.4337
19138TIP3    H278830   5.220   6.235  15.683 -1.6721 -0.7102 -0.6890
19139TIP3   OH278831   0.274   3.077   5.834  0.2644  0.2964  0.2877
19139TIP3    H178832   0.347   3.071   5.772 -0.3343 -0.2107 -0.3828
19139TIP3    H278833   0.250   3.169   5.833 -0.0377  0.2271 -0.6136
19140TIP3   OH278834   4.645   6.781   3.795  0.4144  0.4095  0.1440
19140TIP3    H178835   4.581   6.800   3.727  0.8976  1.4893 -0.0178
19140TIP3    H278836   4.621   6.839   3.867  0.1395 -0.4552  0.7737
19141TIP3   OH278837   5.402   1.728  11.840 -0.4262  0.1984 -0.5527
19141TIP3    H178838   5.481   1.676  11.821 -1.1005 -0.5056 -1.5079
19141TIP3    H278839   5.435   1.809  11.878  0.6540 -1.3508  2.1347
19142TIP3   OH278840   1.438   2.496  11.269 -0.4338  0.7052 -0.0985
19142TIP3    H178841   1.405   2.584  11.289 -0.6810  0.1603  2.1873
19142TIP3    H278842   1.490   2.473  11.346 -1.6953 -1.7841  0.1006
19143TIP3   OH278843   1.880   2.425  14.308 -0.1863 -0.6460 -0.1559
19143TIP3    H178844   1.934   2.373  14.248  2.7495 -1.3234  2.7729
19143TIP3    H278845   1.921   2.511  14.308 -2.2773  0.4286 -1.5761
19144TIP3   OH278846   1.194   4.939   4.472  0.8599 -0.2355 -0.6077
19144TIP3    H178847   1.223   4.991   4.547  0.3673  0.1341 -0.6685
19144TIP3    H278848   1.224   4.988   4.395 -0.1626  0.3219 -0.6810
19145TIP3   OH278849   5.012   5.240  15.388 -0.1057  0.0508 -0.3366
19145TIP3    H178850   5.036   5.320  15.433 -2.5597 -0.6757  2.6028
19145TIP3    H278851   4.940   5.266  15.330  0.5634  0.3222 -1.0600
19146TIP3   OH278852   4.986   5.104  11.460  0.0002 -0.6300  0.3518
19146TIP3    H178853   4.967   5.164  11.388 -2.0871  0.1657  1.4769
19146TIP3    H278854   5.019   5.160  11.531  0.5016 -1.1750  0.5609
19147TIP3   OH278855   1.186   1.642  14.641  0.2537 -0.2743 -0.8189
19147TIP3    H178856   1.180   1.596  14.725  1.1098  0.0366 -0.5722
19147TIP3    H278857   1.098   1.673  14.624 -0.5826 -2.7379 -1.4417
19148TIP3   OH278858   6.759   1.085  10.427 -0.5239  0.4799 -0.7884
19148TIP3    H178859   6.820   1.152  10.397  0.2908  1.6053  2.8955
19148TIP3    H278860   6.815   1.016  10.463 -1.4227 -0.3031 -0.8563
19149TIP3   OH278861   0.175   6.751   6.503  0.4965  0.6097 -0.2233
19149TIP3    H178862   0.172   6.843   6.476  1.2334  0.8486  0.4796
19149TIP3    H278863   0.246   6.713   6.452 -0.4259  0.1774 -1.2244
19150TIP3   OH278864   3.094   5.190  14.979  0.1020  0.7316 -0.6596
19150TIP3    H178865   3.019   5.180  14.921  0.0975 -1.9463 -0.2803
19150TIP3    H278866   3.057   5.195  15.067  0.3193 -1.4131 -0.3930
19151TIP3   OH278867   0.478   1.648   0.724 -0.0196 -0.2730  0.2149
19151TIP3    H178868   0.549   1.585   0.733 -1.0861 -2.0864 -2.5700
19151TIP3    H278869   0.422   1.632   0.800  0.6717 -1.4247  0.5014
19152TIP3   OH278870   3.914   5.507  13.063 -0.0750 -0.4680 -0.0348
19152TIP3    H178871   3.860   5.582  13.086  0.5715  0.1280 -0.4023
19152TIP3    H278872   3.889   5.485  12.973 -0.4843 -0.8987  0.1796
19153TIP3   OH278873   3.956   1.561  12.829 -0.3620  0.1042 -0.2197
19153TIP3    H178874   3.927   1.623  12.761 -1.7820  3.2250  2.9133
19153TIP3    H278875   3.875   1.532  12.871  0.4654 -1.9251  0.0943
19154TIP3   OH278876   4.958   4.248   1.382 -0.1774  0.0577 -0.3161
19154TIP3    H178877   4.914   4.164   1.394  0.6072 -0.6289 -1.9528
19154TIP3    H278878   4.976   4.278   1.471 -2.0983 -0.6036  0.3531
19155TIP3   OH278879   6.432   3.968   3.198  0.1574 -0.7066 -0.4452
19155TIP3    H178880   6.469   3.880   3.207  0.0493 -0.7704 -0.6147
19155TIP3    H278881   6.356   3.956   3.141  0.7700 -0.3274 -1.3560
19156TIP3   OH278882   4.413   0.160   1.417 -0.6168  0.6300 -0.2006
19156TIP3    H178883   4.402   0.243   1.465  0.9092  0.8588 -0.2024
19156TIP3    H278884   4.402   0.092   1.484  0.0084  0.8972  0.1765
19157TIP3   OH278885   1.019   2.599   5.320  0.3762  0.3101 -0.0995
19157TIP3    H178886   1.098   2.570   5.274 -0.1877 -0.0779 -0.8497
19157TIP3    H278887   1.010   2.691   5.297  1.0364  0.5628  0.6233
19158TIP3   OH278888   2.649   4.570   1.884 -0.2161 -0.2635 -0.5964
19158TIP3    H178889   2.691   4.634   1.941 -0.0143 -1.2617  0.3997
19158TIP3    H278890   2.617   4.502   1.943 -0.6476 -0.9602 -1.6066
19159TIP3   OH278891   1.455   2.460   2.150  0.9088 -0.0699  1.2264
19159TIP3    H178892   1.429   2.369   2.165  1.1077 -0.1188  1.2775
19159TIP3    H278893   1.440   2.474   2.057  1.2207 -0.2648  1.1465
19160TIP3   OH278894   0.884   5.133   2.600  0.0430 -0.0807 -0.4110
19160TIP3    H178895   0.827   5.141   2.524  0.8190  0.8666 -0.9097
19160TIP3    H278896   0.852   5.200   2.661 -0.4474 -0.7000  0.0262
19161TIP3   OH278897   2.392   5.215   0.152 -0.2048 -0.1360 -0.5636
19161TIP3    H178898   2.478   5.172   0.148 -0.2955 -0.4984  0.7483
19161TIP3    H278899   2.343   5.178   0.080  0.8984  0.4656 -1.6754
19162TIP3   OH278900   5.454   5.964   2.273  0.0176  0.2850 -0.6859
19162TIP3    H178901   5.526   5.984   2.333  0.3104  1.2161 -1.3239
19162TIP3    H278902   5.428   6.049   2.238 -2.2923  0.1680  0.5242
19163TIP3   OH278903   5.197   5.478   1.287 -0.0324 -0.5501  0.6899
19163TIP3    H178904   5.130   5.421   1.249  1.5392 -2.3026  0.3876
19163TIP3    H278905   5.148   5.543   1.337 -2.0918  0.3550 -2.2670
19164TIP3   OH278906   6.803   2.800   4.846 -0.3983 -0.0303 -0.0006
19164TIP3    H178907   6.734   2.736   4.857 -0.2915 -0.1743 -0.1631
19164TIP3    H278908   6.780   2.846   4.765 -0.7822  0.5246  0.4114
19165TIP3   OH278909   0.691   2.600  11.288 -0.0047 -0.6848 -0.6588
19165TIP3    H178910   0.673   2.605  11.194 -0.1879  2.7242 -0.5448
19165TIP3    H278911   0.787   2.597  11.293 -0.0071 -1.9813 -0.9146
19166TIP3   OH278912   6.251   2.997   5.688  0.0660  0.3791  0.4833
19166TIP3    H178913   6.338   3.035   5.700 -0.5763  1.6077  1.5945
19166TIP3    H278914   6.211   3.001   5.775 -0.3903 -2.0845  0.4772
19167TIP3   OH278915   4.439   2.222  12.217  0.7201 -0.1534  0.1097
19167TIP3    H178916   4.523   2.184  12.190  1.6854  1.7090  0.2856
19167TIP3    H278917   4.463   2.284  12.286 -1.2624 -2.2524  2.8908
19168TIP3   OH278918   1.570   3.788   0.944  0.1563  0.1497  0.2224
19168TIP3    H178919   1.487   3.788   0.897 -0.5204  1.9772  1.2795
19168TIP3    H278920   1.568   3.707   0.996 -0.1973 -0.6367 -0.9829
19169TIP3   OH278921   4.061   2.956   2.305 -0.7511  0.7976 -0.0557
19169TIP3    H178922   3.991   3.004   2.350 -0.5342  1.4036 -0.3510
19169TIP3    H278923   4.016   2.904   2.238 -1.0283  0.2577  0.5389
19170TIP3   OH278924   6.751   3.593   2.246 -0.0822  0.3000 -0.1036
19170TIP3    H178925   6.835   3.548   2.238 -0.0231  0.4488 -0.3508
19170TIP3    H278926   6.773   3.682   2.272 -0.1018  0.5648 -0.9423
19171TIP3   OH278927   2.220   2.114  12.525  0.0792 -0.2597  0.2428
19171TIP3    H178928   2.128   2.101  12.503  0.5824 -2.6454 -0.7095
19171TIP3    H278929   2.262   2.134  12.442  0.9211 -2.6122  0.0437
19172TIP3   OH278930   2.762   0.222  16.574  0.5544  0.7104 -0.0766
19172TIP3    H178931   2.804   0.287  16.518  1.8555 -0.6229 -0.7555
19172TIP3    H278932   2.787   0.247  16.663 -0.0898  1.8798 -0.2182
19173TIP3   OH278933   3.795   2.246   0.595  0.1702 -0.2943 -0.1654
19173TIP3    H178934   3.846   2.320   0.629  0.8272 -0.2510 -1.2074
19173TIP3    H278935   3.832   2.229   0.509 -0.8057 -1.0433 -0.4518
19174TIP3   OH278936   3.943   0.245  13.804  0.6206 -0.9485 -0.3091
19174TIP3    H178937   3.938   0.334  13.837  0.0286  0.1740 -3.1002
19174TIP3    H278938   3.872   0.199  13.848 -1.8044  1.1260 -1.7543
19175TIP3   OH278939   3.072   6.644   1.101 -0.2681  0.4344  0.1461
19175TIP3    H178940   2.984   6.645   1.062 -0.7072 -1.4698  0.9482
19175TIP3    H278941   3.070   6.716   1.165 -1.4544  0.0767  0.5401
19176TIP3   OH278942   6.129   4.787   0.900  0.6717 -0.2258 -0.2397
19176TIP3    H178943   6.138   4.784   0.995 -0.3116 -2.1605 -0.1461
19176TIP3    H278944   6.049   4.836   0.884 -0.0846 -1.3409  0.0419
19177TIP3   OH278945   4.540   6.507   5.631  0.1541 -0.4387 -0.1134
19177TIP3    H178946   4.599   6.433   5.641  1.6384  0.5319 -1.1905
19177TIP3    H278947   4.477   6.479   5.565  0.6144 -0.7964 -0.4083
19178TIP3   OH278948   0.586   5.193   6.373 -0.2892  0.0051 -0.2573
19178TIP3    H178949   0.604   5.108   6.331  0.0763 -0.1565  0.2189
19178TIP3    H278950   0.634   5.189   6.455 -2.1817 -0.2799  0.8945
19179TIP3   OH278951   6.411   2.376   4.575  0.5483  0.1371  0.1160
19179TIP3    H178952   6.337   2.351   4.630  0.0628  0.5094 -0.3538
19179TIP3    H278953   6.486   2.330   4.612  0.2278  0.3834  1.0814
19180TIP3   OH278954   0.933   1.959  13.295  0.1624  0.0477  0.1984
19180TIP3    H178955   0.967   1.913  13.219  1.9413  1.6534 -0.0629
19180TIP3    H278956   0.965   1.908  13.370  1.2571  0.2647 -0.1000
19181TIP3   OH278957   3.045   0.374   2.748  0.0975  0.1313 -0.0886
19181TIP3    H178958   3.104   0.300   2.733 -1.2740 -1.2969  1.1011
19181TIP3    H278959   3.092   0.432   2.807  1.0344  0.0059 -0.7008
19182TIP3   OH278960   6.731   3.986   3.030 -0.6733 -0.4749 -0.2304
19182TIP3    H178961   6.679   3.984   2.950 -1.0897 -2.3546  0.0302
19182TIP3    H278962   6.807   3.931   3.011  0.7941  1.4885 -0.2968
19183TIP3   OH278963   5.409   4.733  15.839 -0.0758  0.5016  1.1946
19183TIP3    H178964   5.377   4.643  15.837 -2.0884  1.1568  1.4959
19183TIP3    H278965   5.338   4.784  15.800  1.5494  1.8348 -0.1296
19184TIP3   OH278966   2.246   4.408   0.515 -0.3429  0.0276 -0.1111
19184TIP3    H178967   2.158   4.378   0.491 -0.8402  0.3716  1.1788
19184TIP3    H278968   2.275   4.345   0.581  0.5030 -0.2353 -0.7111
19185TIP3   OH278969   3.330   0.122  15.198  0.6849 -0.7381  0.3410
19185TIP3    H178970   3.250   0.127  15.145  1.1083 -0.1152 -0.2699
19185TIP3    H278971   3.352   0.214  15.216  0.3329 -0.9422  1.9578
19186TIP3   OH278972   2.359   4.818  10.700  0.1346  0.1199  0.0846
19186TIP3    H178973   2.289   4.820  10.635 -0.1280  1.2321  0.3866
19186TIP3    H278974   2.315   4.789  10.781 -0.2480  1.8498  0.5445
19187TIP3   OH278975   6.638   6.187   2.038  0.0111  0.6916  0.3823
19187TIP3    H178976   6.698   6.141   2.098 -0.2344  0.1382  0.2132
19187TIP3    H278977   6.559   6.133   2.039  0.3416  0.1269 -1.1939
19188TIP3   OH278978   0.092   2.807  12.733  0.1406 -0.6986 -0.1986
19188TIP3    H178979   0.131   2.765  12.657  1.0419  0.4101 -0.3983
19188TIP3    H278980   0.019   2.858  12.699  0.2363 -0.5985 -0.2566
19189TIP3   OH278981   4.707   1.293  14.669 -0.1982  0.5403 -0.4422
19189TIP3    H178982   4.634   1.313  14.728 -0.5698  0.5177 -0.8897
19189TIP3    H278983   4.767   1.240  14.723 -0.1181  1.2267  0.1667
19190TIP3   OH278984   0.141   2.492  16.289  0.0216 -0.0670  0.2584
19190TIP3    H178985   0.218   2.536  16.253 -0.0279 -0.2015 -0.0206
19190TIP3    H278986   0.121   2.424  16.224 -0.2694 -0.0987  0.3814
19191TIP3   OH278987   0.483   5.131  15.924  0.8344 -0.1889 -0.3863
19191TIP3    H178988   0.431   5.052  15.908 -0.1310  0.7583 -2.1336
19191TIP3    H278989   0.420   5.202  15.921  1.9782  0.8373 -0.7636
19192TIP3   OH278990   3.283   2.223   2.342  0.4657 -0.0175  0.1165
19192TIP3    H178991   3.264   2.292   2.279 -0.9671 -2.0066 -1.8137
19192TIP3    H278992   3.239   2.249   2.422 -0.6084  0.9787 -0.7795
19193TIP3   OH278993   6.772   6.669  13.286  0.3404 -0.6267  0.4550
19193TIP3    H178994   6.792   6.763  13.277 -0.9042 -0.3051  0.8369
19193TIP3    H278995   6.712   6.665  13.360 -1.1938 -1.4859 -0.7754
19194TIP3   OH278996   6.648   6.096  14.180 -0.3442 -0.0693 -0.4427
19194TIP3    H178997   6.672   6.146  14.258 -0.8966  0.5602 -0.6654
19194TIP3    H278998   6.662   6.157  14.107 -2.0824  0.1490 -0.6233
19195TIP3   OH278999   5.321   0.275   4.260  0.0387  0.4251 -0.1508
19195TIP3    H179000   5.339   0.219   4.185  1.9948  0.6600  0.0973
19195TIP3    H279001   5.277   0.351   4.222 -0.4697 -0.1842 -0.8168
19196TIP3   OH279002   0.225   2.278  12.128 -0.1509 -0.3782  0.0643
19196TIP3    H179003   0.248   2.286  12.221 -0.5606 -1.9507  0.3422
19196TIP3    H279004   0.304   2.246  12.086 -0.4382 -1.2700  0.1832
19197TIP3   OH279005   6.295   5.882   2.844  0.0284  0.3709  0.0595
19197TIP3    H179006   6.229   5.947   2.819 -0.0476  0.1342 -0.3477
19197TIP3    H279007   6.252   5.798   2.831  0.0286  0.2382  0.8623
19198TIP3   OH279008   2.519   0.565   2.503  0.1408 -0.1256  0.4060
19198TIP3    H179009   2.565   0.627   2.560  0.1786 -0.1960  0.4528
19198TIP3    H279010   2.488   0.617   2.430  1.4971 -0.3189 -0.3359
19199TIP3   OH279011   4.113   6.144  12.773 -0.5745 -0.5749 -0.2423
19199TIP3    H179012   4.154   6.211  12.827  2.2922 -2.7019  0.4795
19199TIP3    H279013   4.103   6.184  12.687  0.3616  0.9838  0.3479
19200TIP3   OH279014   3.306   4.029  11.115 -0.3983 -0.1642 -0.0124
19200TIP3    H179015   3.348   4.040  11.030  1.2651 -0.5299  0.7085
19200TIP3    H279016   3.302   3.934  11.128  0.2802 -0.1090  0.7144
19201TIP3   OH279017   5.671   2.425  11.049 -0.1076  0.4253  0.8101
19201TIP3    H179018   5.666   2.431  10.953 -0.5037 -1.0376  0.7283
19201TIP3    H279019   5.641   2.337  11.070  0.5779  0.5023  2.2510
19202TIP3   OH279020   4.734   5.354  15.322  0.0957 -0.1840  0.2731
19202TIP3    H179021   4.773   5.312  15.245 -1.2388 -0.0599 -0.5237
19202TIP3    H279022   4.705   5.439  15.290 -0.6987 -0.2289  0.8319
19203TIP3   OH279023   0.987   3.983  10.377  0.0752 -0.1352  0.2513
19203TIP3    H179024   1.064   3.974  10.321 -1.1821 -0.1347 -1.5850
19203TIP3    H279025   0.993   4.072  10.412  0.9756 -0.1844  0.2365
19204TIP3   OH279026   0.052   5.577   4.185 -0.4878 -0.5200  0.1753
19204TIP3    H179027   0.054   5.549   4.277 -0.4930 -1.3105 -0.0567
19204TIP3    H279028  -0.034   5.550   4.154 -1.7018  2.3547  0.7018
19205TIP3   OH279029   1.948   5.392   4.518 -0.6312 -0.5572 -0.2001
19205TIP3    H179030   1.894   5.454   4.471 -0.5884  0.3639  0.9139
19205TIP3    H279031   1.974   5.438   4.598 -0.5430 -1.9763  0.6304
19206TIP3   OH279032   5.217   4.402   2.351 -0.2173 -0.3340 -0.3895
19206TIP3    H179033   5.173   4.321   2.328  2.3211 -2.2886  1.1526
19206TIP3    H279034   5.278   4.418   2.279  0.6141 -0.8595  0.1906
19207TIP3   OH279035   5.731   0.921   2.394  0.4010  0.3381 -0.0272
19207TIP3    H179036   5.729   0.844   2.450  0.6287  0.0406 -0.4291
19207TIP3    H279037   5.796   0.979   2.434 -2.2936  1.9814  2.4411
19208TIP3   OH279038   5.548   2.986   1.337 -0.1869  0.0681 -0.6821
19208TIP3    H179039   5.477   3.023   1.390  0.4483  2.2419 -1.2489
19208TIP3    H279040   5.514   2.991   1.247  0.2639  0.1349 -0.8488
19209TIP3   OH279041   5.028   4.252   2.987 -0.0812  0.1047 -0.3785
19209TIP3    H179042   5.057   4.205   2.909 -0.7342  0.0229 -0.5768
19209TIP3    H279043   4.978   4.326   2.954  1.6689  1.4611 -0.0905
19210TIP3   OH279044   6.762   5.766   0.335  0.1120  0.0412 -0.9904
19210TIP3    H179045   6.746   5.765   0.241 -2.9098 -0.7878 -0.5739
19210TIP3    H279046   6.676   5.756   0.374  1.4204 -1.1808  1.8713
19211TIP3   OH279047   1.998   4.454   5.792 -0.9863  0.1036  0.2313
19211TIP3    H179048   1.963   4.521   5.734 -1.5694  0.9938  1.5439
19211TIP3    H279049   1.921   4.420   5.838 -0.6818 -1.4162 -0.3508
19212TIP3   OH279050   2.579   4.045  14.226  0.3967 -0.0151  0.1150
19212TIP3    H179051   2.554   3.954  14.214  2.2727 -1.0277  2.7469
19212TIP3    H279052   2.531   4.073  14.304  1.6112  0.4266  0.7370
19213TIP3   OH279053   4.567   4.992   1.947  0.1200 -0.3428 -0.5639
19213TIP3    H179054   4.558   4.904   1.985 -0.5689 -0.7272 -1.5686
19213TIP3    H279055   4.479   5.029   1.953  0.2508  0.0066 -0.7922
19214TIP3   OH279056   0.518   4.472  16.879 -0.4402 -0.1885  0.3392
19214TIP3    H179057   0.548   4.457  16.968  1.8323 -0.1961 -0.3852
19214TIP3    H279058   0.561   4.553  16.852 -1.0697 -0.2027 -0.7890
19215TIP3   OH279059   0.268   0.774  12.220 -0.5204 -0.1512  0.4546
19215TIP3    H179060   0.256   0.684  12.191  0.4766  0.6669 -2.9374
19215TIP3    H279061   0.363   0.786  12.224 -0.6348  0.8709  0.3939
19216TIP3   OH279062   0.587   6.425  12.282  0.1383  0.1042  0.0338
19216TIP3    H179063   0.533   6.384  12.350 -0.0544 -1.8408 -1.2322
19216TIP3    H279064   0.564   6.379  12.202  0.3568  2.3396 -1.4077
19217TIP3   OH279065   4.261   0.423   4.360 -0.0620 -0.1245 -0.2217
19217TIP3    H179066   4.225   0.506   4.391 -0.1208  0.2487 -1.2348
19217TIP3    H279067   4.348   0.418   4.399 -0.6938 -0.4095  1.2041
19218TIP3   OH279068   6.811   1.368   3.896  0.2700  0.2896  0.2880
19218TIP3    H179069   6.888   1.394   3.947  0.0262  0.6256  0.4913
19218TIP3    H279070   6.783   1.449   3.853  1.7523 -0.3757 -2.1564
19219TIP3   OH279071   2.167   2.716   3.502 -0.5888 -0.7965  0.0652
19219TIP3    H179072   2.097   2.690   3.441 -0.4636  1.7058 -1.2561
19219TIP3    H279073   2.136   2.798   3.541  1.4676  0.2348 -0.3498
19220TIP3   OH279074   1.970   5.554   6.594 -0.3182 -0.1069 -0.4690
19220TIP3    H179075   2.045   5.495   6.585 -0.6334 -0.4256 -1.0162
19220TIP3    H279076   1.935   5.561   6.506 -1.1357 -0.2149 -0.1539
19221TIP3   OH279077   5.139   6.438   0.877  0.4065  0.5419 -0.0240
19221TIP3    H179078   5.065   6.455   0.818  1.0061 -2.8663 -1.9942
19221TIP3    H279079   5.099   6.403   0.956 -0.1883  0.1525 -0.4872
19222TIP3   OH279080   5.186   4.911   0.482 -0.0002 -0.1723  0.1949
19222TIP3    H179081   5.103   4.863   0.476 -0.2679  0.2367  0.5104
19222TIP3    H279082   5.206   4.912   0.576  0.4324 -0.3806  0.1068
19223TIP3   OH279083   4.472   5.148  12.086  0.5472 -0.1135  0.1760
19223TIP3    H179084   4.430   5.064  12.066  1.1599  0.0266 -1.9225
19223TIP3    H279085   4.560   5.139  12.051  0.6961  1.3196  0.1363
19224TIP3   OH279086   4.996   1.532   0.482 -0.3168 -0.2725 -0.1947
19224TIP3    H179087   4.903   1.535   0.457 -0.3025 -2.6628 -0.7583
19224TIP3    H279088   4.995   1.491   0.569  0.2055 -0.1335 -0.1233
19225TIP3   OH279089   4.395   3.728   2.320 -0.4604 -0.3962 -0.1915
19225TIP3    H179090   4.334   3.792   2.356 -0.2585 -0.5660  0.4548
19225TIP3    H279091   4.479   3.747   2.361 -0.7966 -2.2554  1.5110
19226TIP3   OH279092   2.322   0.948   5.457 -0.3765  0.0536  0.1124
19226TIP3    H179093   2.314   0.886   5.529  0.1139 -0.1465 -0.0039
19226TIP3    H279094   2.415   0.951   5.437 -0.3777  0.8978  0.1783
19227TIP3   OH279095   4.690   3.058  14.934 -0.4291 -0.3780  0.0143
19227TIP3    H179096   4.638   2.980  14.955 -1.4565  0.6078  1.3772
19227TIP3    H279097   4.698   3.056  14.839  0.6872 -2.7982  0.0841
19228TIP3   OH279098   1.834   1.681   1.336 -0.3861  0.0357  0.1064
19228TIP3    H179099   1.850   1.640   1.421 -0.7642  0.8761  0.5931
19228TIP3    H279100   1.839   1.775   1.353  0.0273  0.2181 -0.9022
19229TIP3   OH279101   0.926   6.546   1.030 -0.0280 -0.0320 -0.3608
19229TIP3    H179102   1.012   6.554   0.989  1.0821  1.2167  2.0358
19229TIP3    H279103   0.944   6.533   1.123 -2.4374 -0.8431  0.0724
19230TIP3   OH279104   4.655   6.134  14.120  0.7329  0.2484 -0.2437
19230TIP3    H179105   4.738   6.129  14.167  0.4679  0.0495  0.2142
19230TIP3    H279106   4.600   6.189  14.175  0.8097  1.0344 -0.9347
19231TIP3   OH279107   6.741   1.389   4.728 -0.1966  0.4860 -0.3438
19231TIP3    H179108   6.730   1.484   4.731 -1.1171  0.3794 -0.0784
19231TIP3    H279109   6.740   1.368   4.634 -1.3327  0.6038 -0.3696
19232TIP3   OH279110   3.139   2.850  11.706 -0.4809 -0.3120 -0.2062
19232TIP3    H179111   3.066   2.899  11.744  1.2913  0.4798  2.4709
19232TIP3    H279112   3.172   2.908  11.636 -1.2157  0.1877 -0.1571
19233TIP3   OH279113   1.697   0.229   1.865 -0.4115 -0.2633  0.4889
19233TIP3    H179114   1.653   0.221   1.781  0.8724 -0.7038 -0.1774
19233TIP3    H279115   1.704   0.323   1.881  0.7544 -0.1160 -0.7088
19234TIP3   OH279116   5.088   1.408   4.582 -0.1116 -0.1081 -0.0329
19234TIP3    H179117   5.073   1.475   4.649 -0.3584 -0.2538  0.0546
19234TIP3    H279118   5.144   1.452   4.517 -3.7121  1.7166 -2.2458
19235TIP3   OH279119   1.439   4.007  15.137  0.4712 -0.0662 -0.2878
19235TIP3    H179120   1.387   4.086  15.154  0.6277  0.1139 -0.6224
19235TIP3    H279121   1.524   4.041  15.110  0.3505 -0.3391 -1.0360
19236TIP3   OH279122   0.267   5.621   5.857  0.0872  0.4963  0.4660
19236TIP3    H179123   0.174   5.640   5.869  0.1047 -0.1917  1.8519
19236TIP3    H279124   0.298   5.692   5.800 -0.8600  1.8927  1.5999
19237TIP3   OH279125   5.734   0.446   1.477 -0.0790  0.2537 -0.0267
19237TIP3    H179126   5.700   0.502   1.547  0.3993 -0.6459  0.9602
19237TIP3    H279127   5.660   0.433   1.418 -0.8584  0.0539  0.9603
19238TIP3   OH279128   1.465   4.420  15.748  0.5367  0.5138 -0.4393
19238TIP3    H179129   1.378   4.443  15.715  0.0732  1.2894  1.2399
19238TIP3    H279130   1.494   4.350  15.690 -1.2392  0.1694 -0.9927
19239TIP3   OH279131   0.067   1.075   2.191 -0.1166  0.4110 -0.9601
19239TIP3    H179132   0.001   1.012   2.221 -2.2477  3.9347  2.7773
19239TIP3    H279133   0.149   1.044   2.229 -0.8942 -0.6627 -0.1066
19240TIP3   OH279134   3.103   2.690  11.960  0.2683 -0.4189  0.1189
19240TIP3    H179135   3.128   2.716  11.871  2.1035 -0.1244  0.6939
19240TIP3    H279136   3.105   2.771  12.011  1.4720 -0.9283  0.9147
19241TIP3   OH279137   0.866   4.761  12.162  0.0677 -0.0428  0.0881
19241TIP3    H179138   0.855   4.854  12.184 -2.4982 -0.1160 -0.5026
19241TIP3    H279139   0.782   4.736  12.124  0.5074 -2.7551  0.6923
19242TIP3   OH279140   1.440   6.624   3.701 -0.0753  0.0736  0.3326
19242TIP3    H179141   1.363   6.667   3.664 -0.8306 -0.5544  1.1493
19242TIP3    H279142   1.500   6.617   3.627 -1.3721 -0.7460 -0.6992
19243TIP3   OH279143   4.147   6.212  14.636  0.4767  0.2318  0.0583
19243TIP3    H179144   4.168   6.130  14.680  3.6682  0.6711 -0.4010
19243TIP3    H279145   4.202   6.277  14.679  1.1508  1.3072 -2.2551
19244TIP3   OH279146   3.210   1.339   1.957 -0.1108  0.1609 -0.6104
19244TIP3    H179147   3.154   1.348   1.880 -1.1347 -0.0656  0.0879
19244TIP3    H279148   3.265   1.418   1.955 -2.6516  2.0950  0.3993
19245TIP3   OH279149   2.214   2.762   2.952 -0.5587  0.5152  0.0037
19245TIP3    H179150   2.220   2.781   3.045  0.4949  0.3175 -0.0149
19245TIP3    H279151   2.159   2.684   2.947  1.0897 -0.7462  0.6491
19246TIP3   OH279152   2.094   0.910   0.506  0.5988 -0.0794 -0.0616
19246TIP3    H179153   2.043   0.846   0.458  0.6049  0.0774 -0.2770
19246TIP3    H279154   2.182   0.905   0.468  0.6652 -0.1255  0.0950
19247TIP3   OH279155   1.491   1.736  14.750  0.0406 -0.3253 -0.2460
19247TIP3    H179156   1.404   1.774  14.763  0.2165 -0.4864  1.8288
19247TIP3    H279157   1.476   1.641  14.757  0.4066 -0.3405  0.3871
19248TIP3   OH279158   3.122   5.283   2.478 -0.1192 -0.4896 -0.4124
19248TIP3    H179159   3.033   5.276   2.444  0.3255 -3.0046 -1.2091
19248TIP3    H279160   3.116   5.251   2.568  0.1436 -1.7738 -0.8324
19249TIP3   OH279161   5.113   5.573  11.629  0.7636 -0.5616 -0.2058
19249TIP3    H179162   5.093   5.483  11.605  1.2790 -0.8337  0.3873
19249TIP3    H279163   5.192   5.595  11.580 -0.1894  0.0836 -1.5276
19250TIP3   OH279164   1.028   0.138   0.020 -0.4329  0.3776 -0.2298
19250TIP3    H179165   0.983   0.094   0.092 -1.8016  0.9877 -0.6793
19250TIP3    H279166   1.090   0.198   0.063  0.2957 -0.7727  0.3887
19251TIP3   OH279167   2.203   3.003   0.018 -0.0181 -0.0332  0.5392
19251TIP3    H179168   2.198   3.028  -0.074  3.1472 -1.1274 -0.0318
19251TIP3    H279169   2.197   3.086   0.066  1.1007  0.8671 -0.8077
19252TIP3   OH279170   1.069   1.763  11.595 -0.0723  0.2138 -0.0500
19252TIP3    H179171   0.988   1.750  11.546 -0.1282  0.2789  0.0242
19252TIP3    H279172   1.085   1.858  11.590 -0.8097  0.4152  1.2096
19253TIP3   OH279173   4.616   0.056  12.366 -0.2801  0.1353  0.0516
19253TIP3    H179174   4.649   0.070  12.278  0.6573  0.1639  0.3977
19253TIP3    H279175   4.543  -0.005  12.355 -1.7625  2.0217 -1.0009
19254TIP3   OH279176   2.642   0.034  12.336 -0.8190 -0.5651  0.4165
19254TIP3    H179177   2.649   0.125  12.367 -0.8394 -0.5694  0.4332
19254TIP3    H279178   2.655   0.041  12.241 -0.8728 -0.5381  0.4108
19255TIP3   OH279179   4.657   1.319  13.088 -0.3756 -0.6459 -0.3097
19255TIP3    H179180   4.677   1.231  13.120  2.3273 -1.0514 -2.7500
19255TIP3    H279181   4.584   1.307  13.027 -0.2670 -1.1348 -0.3418
19256TIP3   OH279182   6.760   4.927  16.948 -0.1887  0.1025  0.4816
19256TIP3    H179183   6.704   4.872  16.893 -0.8108  2.5647 -1.5515
19256TIP3    H279184   6.739   4.900  17.038 -2.6279 -0.9069 -0.2986
19257TIP3   OH279185   5.121   4.687  16.074  0.2179 -0.6738  0.4483
19257TIP3    H179186   5.130   4.653  15.985  1.3468 -0.7077  0.5686
19257TIP3    H279187   5.145   4.779  16.068  1.6674 -0.9904  0.9501
19258TIP3   OH279188   4.363   3.734   4.767 -0.7762 -0.0264  0.0384
19258TIP3    H179189   4.396   3.677   4.697 -1.5109  0.6266 -0.8721
19258TIP3    H279190   4.274   3.756   4.740  0.3672  3.9272 -1.2453
19259TIP3   OH279191   0.388   4.571  10.267 -0.5117  0.0556  0.0745
19259TIP3    H179192   0.471   4.526  10.252 -1.2673 -0.8881 -1.5302
19259TIP3    H279193   0.409   4.663  10.254  0.2057 -0.2022 -0.7022
19260TIP3   OH279194   3.311   5.617   0.432  0.3333 -0.9117 -0.9196
19260TIP3    H179195   3.373   5.639   0.502  1.0029  2.2677 -2.3176
19260TIP3    H279196   3.232   5.590   0.478  0.9002  0.5522  1.0875
19261TIP3   OH279197   3.680   4.663   3.352  0.0947 -1.2151  0.2839
19261TIP3    H179198   3.593   4.677   3.390 -0.0045 -0.3741 -0.2264
19261TIP3    H279199   3.736   4.726   3.396  0.0063 -0.3190 -0.8473
19262TIP3   OH279200   4.256   5.947  14.596 -0.0301  0.6022 -0.1175
19262TIP3    H179201   4.321   5.912  14.535 -0.5583 -0.2173 -0.2134
19262TIP3    H279202   4.175   5.900  14.576 -0.3093  0.6036  0.9494
19263TIP3   OH279203   6.396   4.952  11.100 -0.2474  0.4402 -0.1665
19263TIP3    H179204   6.472   4.959  11.042  0.3554 -0.5050  0.4818
19263TIP3    H279205   6.324   4.925  11.043 -0.6490  3.3456 -1.1762
19264TIP3   OH279206   0.763   1.207  15.309 -0.5229  0.2260  0.2514
19264TIP3    H179207   0.704   1.275  15.342 -1.2690 -0.4820  0.4031
19264TIP3    H279208   0.720   1.174  15.230  1.4052  2.1330 -1.7097
19265TIP3   OH279209   5.339   3.376   1.328  0.1105 -0.0736  0.1713
19265TIP3    H179210   5.357   3.457   1.377 -0.5940  0.4038 -0.3439
19265TIP3    H279211   5.244   3.367   1.331 -0.1521  0.9269 -2.5552
19266TIP3   OH279212   6.095   5.265   3.328 -0.0431  0.1648 -0.3835
19266TIP3    H179213   6.026   5.200   3.333  0.5091 -0.6245 -2.2827
19266TIP3    H279214   6.093   5.309   3.413 -0.9044 -1.8251  0.6695
19267TIP3   OH279215   0.540   0.147  14.677 -0.3156  0.4809  0.8434
19267TIP3    H179216   0.487   0.223  14.701  0.3464  0.8630  1.1204
19267TIP3    H279217   0.514   0.127  14.587 -1.7661 -0.0716  1.3550
19268TIP3   OH279218   0.918   0.392  14.380  0.1186  0.0794  0.1081
19268TIP3    H179219   0.962   0.472  14.406  1.0040  0.1444 -1.5350
19268TIP3    H279220   0.945   0.327  14.446  0.8331  0.6690  0.3990
19269TIP3   OH279221   3.920   2.184   1.375 -0.0425  0.3178 -0.4446
19269TIP3    H179222   3.837   2.148   1.407 -0.3433  0.7758 -0.6911
19269TIP3    H279223   3.948   2.124   1.306  0.4941 -0.5493  0.5041
19270TIP3   OH279224   3.533   6.515  12.342 -0.1865 -0.0794 -0.2235
19270TIP3    H179225   3.538   6.526  12.437 -0.5095  3.7401 -0.5185
19270TIP3    H279226   3.621   6.536  12.311 -0.4622  0.1527 -0.8656
19271TIP3   OH279227   6.452   6.386  11.783 -0.0640  0.4589 -0.1724
19271TIP3    H179228   6.450   6.357  11.692  0.2791  0.6370 -0.2412
19271TIP3    H279229   6.528   6.341  11.821 -0.8373 -0.4476  0.3174
19272TIP3   OH279230   4.229   3.124   6.653  0.5476  0.5690  0.1067
19272TIP3    H179231   4.243   3.185   6.581 -0.1182  0.2566 -0.2867
19272TIP3    H279232   4.224   3.180   6.731 -0.6527  1.0812 -0.3169
19273TIP3   OH279233   2.941   5.167   3.729 -0.3835 -0.1692 -0.1404
19273TIP3    H179234   2.962   5.168   3.636 -0.8499 -1.9655 -0.2943
19273TIP3    H279235   2.858   5.215   3.735 -0.9329 -0.9994 -0.8318
19274TIP3   OH279236   3.913   5.000   3.834  0.6582  0.2871 -0.4763
19274TIP3    H179237   3.839   5.005   3.774 -1.9634  1.3322  2.5703
19274TIP3    H279238   3.885   5.050   3.911  4.2189 -0.0228  1.2020
19275TIP3   OH279239   3.803   5.799   4.338 -0.7227 -0.4670 -0.7221
19275TIP3    H179240   3.858   5.754   4.274  0.9973  0.6038 -0.0787
19275TIP3    H279241   3.856   5.800   4.418 -1.4905  0.9685 -0.1952
19276TIP3   OH279242   4.690   5.169  16.430 -0.2128 -0.0482 -0.0239
19276TIP3    H179243   4.701   5.255  16.471  0.2211 -0.5492  0.9439
19276TIP3    H279244   4.598   5.147  16.445 -0.4300  0.4277 -0.6422
19277TIP3   OH279245   4.423   4.083  15.280  0.0717 -0.1916  0.5747
19277TIP3    H179246   4.355   4.034  15.327 -0.5251 -0.5203 -0.5909
19277TIP3    H279247   4.505   4.057  15.323 -0.4678 -0.2906  1.5830
19278TIP3   OH279248   4.663   5.078  11.119 -0.1133  0.0181 -0.3228
19278TIP3    H179249   4.614   5.126  11.186 -1.3876 -0.5327 -0.8320
19278TIP3    H279250   4.684   5.143  11.053 -1.7334 -0.0705 -0.9563
19279TIP3   OH279251   0.291   6.073  11.104  0.0239  0.2323 -0.0821
19279TIP3    H179252   0.209   6.025  11.107  0.0414  0.2421  1.0555
19279TIP3    H279253   0.344   6.026  11.039 -0.4664 -0.4465  0.0004
19280TIP3   OH279254   3.326   2.758  14.659 -0.4264 -0.9812 -0.3191
19280TIP3    H179255   3.403   2.732  14.709 -0.9954  0.8886  1.6551
19280TIP3    H279256   3.263   2.686  14.673  0.4885 -1.9504 -0.9858
19281TIP3   OH279257   5.926   0.557  16.833  0.0200 -0.5157  0.0638
19281TIP3    H179258   5.899   0.579  16.744  0.8266 -0.3791 -0.1575
19281TIP3    H279259   5.853   0.587  16.889  0.4490  1.4661 -0.3484
19282TIP3   OH279260   2.959   0.059  15.317 -0.1292 -0.4902  0.0611
19282TIP3    H179261   2.945  -0.030  15.348  3.4334 -1.4724 -0.7518
19282TIP3    H279262   3.038   0.089  15.364 -0.5523  1.8037 -0.5534
19283TIP3   OH279263   1.585   0.817  14.467 -0.1173 -0.8035 -0.1080
19283TIP3    H179264   1.640   0.811  14.389 -1.4677 -2.4805 -1.0195
19283TIP3    H279265   1.613   0.897  14.511 -0.5589  1.2789 -3.2892
19284TIP3   OH279266   0.126   3.119  12.661  0.3145 -0.1710  0.4516
19284TIP3    H179267   0.159   3.076  12.741  0.8928  1.1784  0.9674
19284TIP3    H279268   0.104   3.207  12.689  2.5685  1.0504 -1.3075
19285TIP3   OH279269   3.434   1.158  16.277 -0.0008  0.4987 -0.2770
19285TIP3    H179270   3.488   1.233  16.299 -0.6669  0.7349  0.6103
19285TIP3    H279271   3.428   1.108  16.359  2.2646 -1.7439 -1.3345
19286TIP3   OH279272   5.634   6.779  16.973 -0.1024  0.1393  0.5772
19286TIP3    H179273   5.557   6.834  16.985  0.2644  0.9494 -0.5746
19286TIP3    H279274   5.707   6.840  16.973  0.3120 -0.3240 -0.7258
19287TIP3   OH279275   3.500   4.840   2.004  0.1701 -0.4338 -0.1205
19287TIP3    H179276   3.569   4.796   2.054  0.5162  0.0810 -0.1409
19287TIP3    H279277   3.543   4.873   1.925 -0.1759 -0.4275 -0.3112
19288TIP3   OH279278   0.574   5.590  13.199 -0.0411 -0.3313 -0.0297
19288TIP3    H179279   0.644   5.586  13.133  1.2158 -1.1800  1.2930
19288TIP3    H279280   0.552   5.498  13.216 -1.0625 -0.0875  0.0043
19289TIP3   OH279281   6.554   0.019   4.467 -0.1128 -0.0711 -0.3155
19289TIP3    H179282   6.546  -0.032   4.387 -1.1588  0.4202 -0.5447
19289TIP3    H279283   6.636  -0.010   4.506 -0.6981 -2.0002 -0.3896
19290TIP3   OH279284   2.509   5.656   5.997  0.0005 -0.1882  0.3983
19290TIP3    H179285   2.572   5.630   6.064  1.5043  1.0975 -0.4430
19290TIP3    H279286   2.546   5.736   5.959 -2.0548  0.5172 -0.2826
19291TIP3   OH279287   1.140   6.420  13.123 -0.0789  0.1989 -0.5579
19291TIP3    H179288   1.126   6.508  13.088  0.6993  0.9624  0.9562
19291TIP3    H279289   1.225   6.394  13.088 -0.7846 -0.4186 -1.8708
19292TIP3   OH279290   6.115   3.067   2.352 -0.1763  0.0492  0.0945
19292TIP3    H179291   6.188   3.128   2.358  1.0314 -1.2132 -1.0075
19292TIP3    H279292   6.066   3.096   2.275 -0.0187  0.0713  0.0007
19293TIP3   OH279293   0.861   6.018   0.558  0.5360  0.8663 -0.6524
19293TIP3    H179294   0.774   6.030   0.520 -0.5399  1.1222  1.6908
19293TIP3    H279295   0.866   5.924   0.578 -0.7456  1.3255  2.3942
19294TIP3   OH279296   2.642   0.206  11.413 -0.0064  0.3983  0.0601
19294TIP3    H179297   2.704   0.254  11.469  1.1708 -2.1190  1.0352
19294TIP3    H279298   2.557   0.223  11.453  0.2224  2.3043 -0.1303
19295TIP3   OH279299   2.500   4.701   1.232 -0.2265 -0.0214  0.0240
19295TIP3    H179300   2.454   4.660   1.159  0.3080  1.5389 -1.2409
19295TIP3    H279301   2.592   4.685   1.214  0.0438  2.1338 -0.8292
19296TIP3   OH279302   5.813   2.953   3.334 -0.0327  0.6872 -0.0061
19296TIP3    H179303   5.809   3.024   3.271 -1.2790  0.8059  0.1944
19296TIP3    H279304   5.741   2.969   3.395  1.0192  0.4649  1.3476
19297TIP3   OH279305   1.277   4.821   2.175  0.1496  0.5067  0.3004
19297TIP3    H179306   1.299   4.872   2.253 -1.7570 -0.3278  1.4490
19297TIP3    H279307   1.338   4.747   2.177 -0.9127 -0.3754  1.9524
19298TIP3   OH279308   4.149   4.495  10.858  0.2391 -0.0696 -0.5741
19298TIP3    H179309   4.065   4.490  10.811 -0.7153  1.5221  0.8529
19298TIP3    H279310   4.161   4.588  10.874  0.0186 -0.5637  3.1713
19299TIP3   OH279311   0.984   0.202  13.248 -0.4058 -0.6380  0.0523
19299TIP3    H179312   0.986   0.293  13.276  1.0127 -0.7340  0.3342
19299TIP3    H279313   0.893   0.187  13.221 -1.0668  0.3422  1.6331
19300TIP3   OH279314   6.511   2.860   3.968  0.4845 -0.5958 -0.0754
19300TIP3    H179315   6.500   2.866   4.063  1.1422  1.0098 -0.0754
19300TIP3    H279316   6.604   2.837   3.957  0.4710 -0.5197 -0.3425
19301TIP3   OH279317   0.686   4.214   6.175  0.2485 -0.8990 -0.5465
19301TIP3    H179318   0.668   4.123   6.150  0.4456 -0.9461 -0.5190
19301TIP3    H279319   0.615   4.237   6.234 -0.3751 -0.6978 -1.3585
19302TIP3   OH279320   6.153   3.706  14.956 -0.3852  0.0314  0.2641
19302TIP3    H179321   6.176   3.790  14.997 -1.7397  0.6749 -0.2549
19302TIP3    H279322   6.136   3.648  15.029  2.6315 -0.4685  0.7045
19303TIP3   OH279323   5.613   5.982  13.454  0.6651 -0.0321 -0.3816
19303TIP3    H179324   5.689   5.925  13.460  0.7638 -0.1522 -2.2751
19303TIP3    H279325   5.553   5.948  13.521  2.6530  0.7954  2.0117
19304TIP3   OH279326   5.062   0.708   1.518 -0.3032 -0.0262 -0.1211
19304TIP3    H179327   5.081   0.784   1.462  1.9710 -0.8985 -0.6695
19304TIP3    H279328   5.045   0.746   1.604 -1.3830  1.2111 -0.8398
19305TIP3   OH279329   2.888   4.075  12.822  0.0636  0.0714  0.9547
19305TIP3    H179330   2.946   4.005  12.853  0.8400 -1.3400 -2.9724
19305TIP3    H279331   2.829   4.031  12.761 -0.0361  2.6457 -0.9851
19306TIP3   OH279332   4.430   2.445   2.769 -0.3776  0.0181  0.0479
19306TIP3    H179333   4.492   2.516   2.787  0.6118 -0.6602 -0.5132
19306TIP3    H279334   4.462   2.407   2.686 -1.3818 -0.5400 -0.0957
19307TIP3   OH279335   0.520   0.902   6.049  0.4853  0.0453  0.2622
19307TIP3    H179336   0.470   0.969   6.002 -1.3314 -2.0255 -0.9386
19307TIP3    H279337   0.611   0.931   6.043  0.1478  0.8404 -3.0032
19308TIP3   OH279338   4.419   3.606   1.182 -0.4843  0.0248 -0.4770
19308TIP3    H179339   4.476   3.610   1.259 -2.3744  0.5554  0.9683
19308TIP3    H279340   4.401   3.513   1.170  0.0270 -0.0814 -0.4520
19309TIP3   OH279341   1.061   2.132   5.610 -0.3554 -0.2876 -0.3595
19309TIP3    H179342   1.083   2.195   5.542  2.6588 -0.2643  0.4818
19309TIP3    H279343   1.016   2.184   5.677 -0.8214  0.2721 -1.0958
19310TIP3   OH279344   6.031   5.867  10.620 -0.1717  0.0026 -0.6736
19310TIP3    H179345   6.069   5.902  10.540  0.5670  0.7498 -0.0234
19310TIP3    H279346   6.042   5.938  10.684  0.4155 -1.0413  0.4094
19311TIP3   OH279347   1.454   0.908   4.833  0.5276  0.0813 -0.2992
19311TIP3    H179348   1.500   0.978   4.881  3.0788 -1.1420 -0.7775
19311TIP3    H279349   1.447   0.942   4.743 -0.8480  0.8436  0.0736
19312TIP3   OH279350   5.355   5.622  13.537 -0.1253  0.1352  0.2444
19312TIP3    H179351   5.408   5.593  13.462 -0.8243 -1.8946  0.4590
19312TIP3    H279352   5.396   5.579  13.612 -0.4695  0.7515  0.7922
19313TIP3   OH279353   0.338   6.443   3.887 -0.4672 -0.3490  0.0036
19313TIP3    H179354   0.291   6.383   3.829 -0.2959 -0.2381 -0.2529
19313TIP3    H279355   0.270   6.502   3.920 -0.3290  0.6625 -1.4137
19314TIP3   OH279356   2.186   3.535   0.465  0.4932  0.3305  0.3709
19314TIP3    H179357   2.124   3.492   0.524 -0.9674 -1.2204 -2.1197
19314TIP3    H279358   2.137   3.547   0.384  2.8866  0.9068 -1.0722
19315TIP3   OH279359   5.291   2.302   0.573 -0.4917 -0.3574  0.1087
19315TIP3    H179360   5.302   2.212   0.603  0.3929  0.8307  3.9158
19315TIP3    H279361   5.379   2.331   0.550 -0.0955  0.5045  2.4235
19316TIP3   OH279362   4.960   2.791   2.868  0.2965 -0.8918 -0.0288
19316TIP3    H179363   4.973   2.790   2.963  0.7342  1.0393 -0.0367
19316TIP3    H279364   4.906   2.867   2.851  0.7853 -0.8165 -1.4016
19317TIP3   OH279365   2.748   1.553   4.562  0.3222  0.0434 -0.4239
19317TIP3    H179366   2.706   1.562   4.647  0.0109  0.8777 -0.6572
19317TIP3    H279367   2.808   1.628   4.557 -0.9103  0.9932 -1.6386
19318TIP3   OH279368   6.744   3.566   5.592 -0.0564  0.0805  0.3804
19318TIP3    H179369   6.802   3.546   5.666  1.9328 -0.5426 -1.2377
19318TIP3    H279370   6.711   3.481   5.565  0.1918  0.1568 -0.1708
19319TIP3   OH279371   2.325   4.827   1.026 -0.0012 -0.0550 -0.3869
19319TIP3    H179372   2.412   4.864   1.009 -0.3312  1.0397  0.2144
19319TIP3    H279373   2.286   4.817   0.939  0.2931  0.5487 -0.5935
19320TIP3   OH279374   5.356   1.540  16.942  0.2956  0.1849  0.4688
19320TIP3    H179375   5.436   1.498  16.909  1.7074  2.0109  1.3973
19320TIP3    H279376   5.375   1.634  16.939 -1.5574  0.6344  1.3958
19321TIP3   OH279377   2.110   4.100   4.527  0.3369  0.1237 -0.0986
19321TIP3    H179378   2.169   4.037   4.486  0.0301  0.4775 -1.1224
19321TIP3    H279379   2.025   4.056   4.527  0.2753  0.2428 -0.1298
19322TIP3   OH279380   1.600   4.950   1.565  0.7256  0.0143 -0.1530
19322TIP3    H179381   1.630   5.022   1.620  2.3482 -0.9178  0.2294
19322TIP3    H279382   1.626   4.871   1.612 -1.1015 -0.8700 -0.5054
19323TIP3   OH279383   4.487   2.281   1.811  0.0306  0.2849  0.2814
19323TIP3    H179384   4.582   2.292   1.810 -0.1408  2.2773 -1.4957
19323TIP3    H279385   4.452   2.370   1.815 -1.7321 -0.2913 -0.9707
19324TIP3   OH279386   0.351   5.573   3.086 -0.1340 -0.3264 -0.1125
19324TIP3    H179387   0.385   5.614   3.007  0.9721 -0.0858  0.4746
19324TIP3    H279388   0.330   5.483   3.060 -0.9993  0.1110 -0.9871
19325TIP3   OH279389   0.633   5.769  13.420  0.0499 -0.5943  0.1735
19325TIP3    H179390   0.716   5.807  13.447 -0.7895  0.0924  1.9235
19325TIP3    H279391   0.655   5.716  13.343  1.7472  1.1550 -0.6408
19326TIP3   OH279392   4.485   4.692  12.331  0.1343 -0.0088 -0.1405
19326TIP3    H179393   4.463   4.601  12.306  1.6698 -0.4338 -0.0168
19326TIP3    H279394   4.403   4.740  12.317 -0.7468 -1.4228 -0.1271
19327TIP3   OH279395   0.286   0.570  15.646 -0.8433  0.0199  0.4347
19327TIP3    H179396   0.292   0.482  15.683  0.1783  0.1342  0.5718
19327TIP3    H279397   0.330   0.626  15.709  1.1006  0.1945 -0.9846
19328TIP3   OH279398   3.881   0.571   0.795 -0.1299  0.0060  0.5030
19328TIP3    H179399   3.963   0.595   0.750 -0.4712 -0.9091 -0.6530
19328TIP3    H279400   3.901   0.488   0.837 -0.1519  0.3107  1.1158
19329TIP3   OH279401   3.540   1.612   4.664 -0.2347  0.2564 -0.4623
19329TIP3    H179402   3.498   1.676   4.721 -1.6555 -1.3863  0.4130
19329TIP3    H279403   3.504   1.629   4.577 -1.7573 -0.2573  0.0332
19330TIP3   OH279404   4.149   2.379   2.788  0.3082 -0.3605 -0.1251
19330TIP3    H179405   4.238   2.410   2.775 -0.0578  0.2942 -1.2393
19330TIP3    H279406   4.115   2.364   2.700 -0.5197 -1.0980  0.2939
19331TIP3   OH279407   3.661   4.878   2.731 -0.5029 -0.0507  0.3118
19331TIP3    H179408   3.688   4.873   2.639 -1.4079 -1.0332  0.0736
19331TIP3    H279409   3.603   4.802   2.743 -0.5812  0.1911  1.6357
19332TIP3   OH279410   5.455   1.902   6.360  0.2042  0.2250 -0.5554
19332TIP3    H179411   5.403   1.939   6.431 -0.8164 -0.1396 -1.0903
19332TIP3    H279412   5.529   1.861   6.404  0.3256  1.1850  0.1885
19333TIP3   OH279413   5.257   3.749   2.969 -0.1771  0.3475  0.0182
19333TIP3    H179414   5.224   3.747   3.059 -2.1892  0.5215 -0.6566
19333TIP3    H279415   5.280   3.841   2.954  1.5431  0.0747  0.7745
19334TIP3   OH279416   5.192   1.256   6.107 -0.6458 -0.1030 -0.6244
19334TIP3    H179417   5.126   1.290   6.167  1.3330  0.6484  1.2401
19334TIP3    H279418   5.214   1.170   6.142  1.2046  0.7301  0.3767
19335TIP3   OH279419   2.084   4.286  14.536  0.7572 -0.1541  0.9128
19335TIP3    H179420   2.074   4.359  14.597  1.6284  1.9438 -1.3177
19335TIP3    H279421   2.157   4.310  14.480 -1.0295 -1.0855 -2.0943
19336TIP3   OH279422   5.047   0.616  12.709  0.2564  0.0539  0.1201
19336TIP3    H179423   5.114   0.658  12.657 -0.3354  1.9194  0.7911
19336TIP3    H279424   4.975   0.599  12.647  0.0966  0.9946  0.0389
19337TIP3   OH279425   6.760   5.148  15.254 -0.3126 -0.6088 -0.1144
19337TIP3    H179426   6.822   5.220  15.260  0.3996 -1.3081  1.3992
19337TIP3    H279427   6.747   5.119  15.344  0.1827 -3.0090 -0.7322
19338TIP3   OH279428   1.181   0.314  10.995  0.3842  0.3689  0.7279
19338TIP3    H179429   1.230   0.396  11.002  1.2978 -0.2970  3.3622
19338TIP3    H279430   1.180   0.279  11.084 -0.3188 -2.3097 -0.2330
19339TIP3   OH279431   5.288   5.087   0.907 -0.1470  0.1257 -0.5103
19339TIP3    H179432   5.302   5.144   0.983  1.9684 -0.9607  0.0009
19339TIP3    H279433   5.376   5.070   0.874 -0.8004 -1.8973 -1.3482
19340TIP3   OH279434   6.411   0.690   1.192  0.7234 -0.0897  0.1054
19340TIP3    H179435   6.444   0.671   1.104  2.0040 -0.7266  0.7042
19340TIP3    H279436   6.316   0.694   1.182  0.7871 -1.2336 -1.0972
19341TIP3   OH279437   4.610   2.354  12.819  0.5697 -0.2191  0.2649
19341TIP3    H179438   4.649   2.362  12.906  1.7679  0.1393 -0.2901
19341TIP3    H279439   4.684   2.352  12.759 -0.2556  0.0540 -0.7953
19342TIP3   OH279440   1.326   6.079   4.776  0.3434 -0.2077  0.0071
19342TIP3    H179441   1.318   6.124   4.692  1.2915 -1.3316 -0.7150
19342TIP3    H279442   1.417   6.049   4.779  0.6750  0.8215  1.9715
19343TIP3   OH279443   2.529   0.494   0.478  0.1705  0.1701  0.8994
19343TIP3    H179444   2.608   0.543   0.503  0.0785  0.4257  0.6960
19343TIP3    H279445   2.521   0.426   0.544  1.7931 -1.2264 -0.2371
19344TIP3   OH279446   0.098   5.245  15.023 -0.2770  0.4188  0.4820
19344TIP3    H179447   0.045   5.178  14.979 -0.8066  2.0543 -1.5358
19344TIP3    H279448   0.171   5.261  14.963  1.9491 -0.9291  2.6622
19345TIP3   OH279449   3.244   1.695   5.038  0.6336 -0.1894 -0.4086
19345TIP3    H179450   3.223   1.615   5.086  0.2503  1.1326  1.7080
19345TIP3    H279451   3.338   1.707   5.051  0.8044 -0.5531 -1.2016
19346TIP3   OH279452   4.384   6.140   3.368  0.2828 -0.3256  0.8393
19346TIP3    H179453   4.461   6.174   3.322 -2.1791 -1.0926 -4.7643
19346TIP3    H279454   4.327   6.217   3.378  0.4990 -0.3084  1.9624
19347TIP3   OH279455   2.101   5.087   0.070  0.5546  0.4238  0.5428
19347TIP3    H179456   2.067   5.096   0.159  1.1238 -1.1592  0.9419
19347TIP3    H279457   2.119   4.994   0.060 -1.3292  0.2096 -1.9216
19348TIP3   OH279458   0.677   1.317  16.027 -0.2844 -0.3629  0.2242
19348TIP3    H179459   0.742   1.269  16.079 -0.7780 -0.0693  1.1447
19348TIP3    H279460   0.610   1.343  16.091 -0.0952  1.4348 -0.2378
19349TIP3   OH279461   3.046   4.544   1.905  0.2229  0.1999  0.0208
19349TIP3    H179462   2.968   4.581   1.946  0.0563  0.3837 -0.4491
19349TIP3    H279463   3.118   4.595   1.941  0.2525 -0.7420  1.3537
19350TIP3   OH279464   5.976   4.780  14.980  0.0125 -0.1858  0.1217
19350TIP3    H179465   6.022   4.734  15.050 -0.0693 -0.9402 -0.3101
19350TIP3    H279466   6.045   4.821  14.928  0.3494 -2.3221 -1.2425
19351TIP3   OH279467   0.752   5.845   2.053 -0.1378  0.2110  0.2987
19351TIP3    H179468   0.770   5.847   1.959  0.1565  1.0844  0.3683
19351TIP3    H279469   0.793   5.764   2.084  1.4228  0.8715  0.0037
19352TIP3   OH279470   6.168   3.808   3.417  0.6780  0.6764 -0.1148
19352TIP3    H179471   6.211   3.788   3.500  0.4440  1.5535  0.2287
19352TIP3    H279472   6.201   3.742   3.356 -0.8781 -1.4595  1.1984
19353TIP3   OH279473   0.337   3.518  16.662  0.2894  0.2813 -0.3590
19353TIP3    H179474   0.317   3.520  16.755 -0.0085  0.6324 -0.4287
19353TIP3    H279475   0.257   3.486  16.620  1.0904 -1.9363 -0.3231
19354TIP3   OH279476   5.333   3.211  10.667 -0.6736 -0.0232  0.2998
19354TIP3    H179477   5.267   3.156  10.710 -1.0974  0.2731  0.0319
19354TIP3    H279478   5.345   3.171  10.581  1.0332 -1.3196  1.0688
19355TIP3   OH279479   4.505   2.402   3.112  0.3711  0.4330 -0.5746
19355TIP3    H179480   4.458   2.343   3.171  0.6064 -1.7746 -2.4463
19355TIP3    H279481   4.440   2.467   3.086  0.0998  1.0768  1.5524
19356TIP3   OH279482   3.823   0.660   4.435 -0.0040 -0.2178 -0.2633
19356TIP3    H179483   3.729   0.650   4.448 -0.2528 -0.1929 -1.8752
19356TIP3    H279484   3.861   0.639   4.520 -1.2844 -2.8638 -0.2554
19357TIP3   OH279485   3.938   5.609   2.252 -0.0267 -0.6951  0.3971
19357TIP3    H179486   3.944   5.680   2.315  2.1964 -1.2566  0.9195
19357TIP3    H279487   3.910   5.651   2.171  1.7343  0.9099  0.5551
19358TIP3   OH279488   2.159   1.403   6.287  0.1381 -0.0958 -0.1091
19358TIP3    H179489   2.231   1.435   6.232 -0.2689  2.3985  0.7101
19358TIP3    H279490   2.199   1.388   6.373 -0.0657  0.0276  0.0068
19359TIP3   OH279491   0.805   3.217   2.597  0.1355  0.9503 -0.4048
19359TIP3    H179492   0.718   3.248   2.570 -0.3432  1.0473  1.1259
19359TIP3    H279493   0.787   3.145   2.658  1.0955  1.3903  0.4392
19360TIP3   OH279494   2.707   3.314  13.920 -0.4143 -0.4622  0.1621
19360TIP3    H179495   2.739   3.224  13.931  1.1846  0.2666  2.0037
19360TIP3    H279496   2.651   3.329  13.996 -0.1956  0.2921  0.1829
19361TIP3   OH279497   3.146   4.799   2.229  0.0355  0.0754  0.2345
19361TIP3    H179498   3.075   4.857   2.202  1.2067  2.7950  2.4397
19361TIP3    H279499   3.224   4.854   2.229  1.8175 -2.2680 -0.1588
19362TIP3   OH279500   1.895   2.848   4.683 -0.3059  0.3344  0.1894
19362TIP3    H179501   1.947   2.924   4.657  0.1598 -0.1473 -0.3127
19362TIP3    H279502   1.901   2.847   4.778  0.5042  0.3695  0.1510
19363TIP3   OH279503   6.634   5.226  16.377  0.0437 -0.7951  0.2064
19363TIP3    H179504   6.640   5.312  16.336  0.1342 -1.4454 -1.2049
19363TIP3    H279505   6.545   5.196  16.358 -0.4864 -0.4132  1.9704
19364TIP3   OH279506   6.091   4.232  15.187  0.3982 -0.6678 -0.5587
19364TIP3    H179507   6.179   4.265  15.206  0.8927 -1.6892 -1.0169
19364TIP3    H279508   6.057   4.292  15.120 -0.0534  0.9247  1.0210
19365TIP3   OH279509   0.721   5.950  12.207 -0.4598  0.1656 -0.0923
19365TIP3    H179510   0.677   5.901  12.138  1.2877  0.1558 -1.2565
19365TIP3    H279511   0.800   5.984  12.166 -1.0058  3.0560  0.9607
19366TIP3   OH279512   0.261   2.190  14.859 -0.3888 -0.4078 -0.0900
19366TIP3    H179513   0.273   2.226  14.772  1.6055  0.9126  0.6647
19366TIP3    H279514   0.207   2.254  14.905 -2.9137 -1.8969 -0.7355
19367TIP3   OH279515   2.030   3.255   4.200  0.0986  0.0479 -0.1191
19367TIP3    H179516   2.080   3.322   4.248  0.9629  1.3723 -2.6207
19367TIP3    H279517   2.098   3.204   4.155 -0.6738 -0.0982 -1.1499
19368TIP3   OH279518   6.067   6.062   2.977 -0.3584  0.9178  0.2228
19368TIP3    H179519   6.051   6.110   3.058 -0.0113  1.2371  0.1078
19368TIP3    H279520   6.157   6.084   2.954 -0.7995  1.7190 -0.8293
19369TIP3   OH279521   6.126   5.826  16.613  0.6778 -0.3247  0.1044
19369TIP3    H179522   6.188   5.798  16.546 -0.4522  1.1645 -1.6621
19369TIP3    H279523   6.082   5.902  16.575 -0.4321  0.2296  2.3236
19370TIP3   OH279524   4.659   6.668  15.358  0.3252 -0.4894 -0.4073
19370TIP3    H179525   4.567   6.658  15.382 -0.2545  1.4606 -1.6365
19370TIP3    H279526   4.697   6.722  15.427 -0.1393  0.9480 -1.2368
19371TIP3   OH279527   2.986   6.582   3.507  0.3223  0.1646  0.0668
19371TIP3    H179528   3.024   6.635   3.437 -0.2243  2.3484  1.3493
19371TIP3    H279529   3.011   6.626   3.588 -1.0113 -0.9816  1.1631
19372TIP3   OH279530   2.341   0.566   4.475  0.0548  0.6896 -0.1183
19372TIP3    H179531   2.255   0.562   4.517 -0.5392  0.8784 -1.2750
19372TIP3    H279532   2.380   0.647   4.509 -1.0845  1.7062 -1.1289
19373TIP3   OH279533   2.625   4.160  12.663  0.1288  0.2697 -0.4316
19373TIP3    H179534   2.548   4.105  12.676  0.7146 -0.7801 -1.2767
19373TIP3    H279535   2.682   4.109  12.606  1.6262  0.8553  0.4801
19374TIP3   OH279536   2.564   4.196   2.771 -0.3656 -0.0551 -0.5338
19374TIP3    H179537   2.549   4.290   2.763  0.4250  0.0034 -1.5223
19374TIP3    H279538   2.501   4.167   2.838 -1.0397  1.0610 -0.6630
19375TIP3   OH279539   0.217   2.368  10.818  0.3597 -0.9022 -0.0663
19375TIP3    H179540   0.167   2.398  10.894  0.2268 -1.7142  0.1862
19375TIP3    H279541   0.156   2.311  10.771  1.2364 -2.4798  0.6339
19376TIP3   OH279542   1.557   4.469  16.015  0.3344  0.0642  0.7644
19376TIP3    H179543   1.510   4.387  16.032 -0.4854  0.7508  1.9579
19376TIP3    H279544   1.570   4.469  15.920 -2.5103  0.0102  0.2729
19377TIP3   OH279545   3.132   1.010  12.781  0.3838 -0.0096 -0.1172
19377TIP3    H179546   3.077   1.054  12.845  0.8452  1.4633 -0.7010
19377TIP3    H279547   3.212   0.986  12.828 -0.2162 -1.0341  0.4145
19378TIP3   OH279548   2.497   0.842  16.288  0.0089 -0.1368 -0.5209
19378TIP3    H179549   2.558   0.809  16.221 -1.2059 -2.4559 -0.5820
19378TIP3    H279550   2.420   0.869  16.238  0.4764  1.6854 -0.3356
19379TIP3   OH279551   0.500   4.960  16.923 -0.5953  0.2461  0.0490
19379TIP3    H179552   0.535   4.874  16.949  0.0052  0.6380  0.5674
19379TIP3    H279553   0.442   4.985  16.995 -1.1456  0.0744 -0.3225
19380TIP3   OH279554   3.186   3.740  13.694  0.5688  0.2052  0.1187
19380TIP3    H179555   3.214   3.815  13.641 -0.9186  1.1429  0.6066
19380TIP3    H279556   3.204   3.766  13.784 -1.4557  0.7079  0.4242
19381TIP3   OH279557   4.684   3.693   4.263  0.3855  0.8544  0.4603
19381TIP3    H179558   4.600   3.695   4.218 -0.1827  0.1283  1.4365
19381TIP3    H279559   4.727   3.775   4.238 -0.5524  1.1736 -0.1572
19382TIP3   OH279560   3.610   3.259  15.568 -0.2066 -0.5190  0.4545
19382TIP3    H179561   3.569   3.207  15.637 -1.1631  1.6971  1.6840
19382TIP3    H279562   3.537   3.294  15.517  0.3725 -0.0068 -0.0378
19383TIP3   OH279563   5.487   5.979   4.415  0.1280  0.6796 -0.1056
19383TIP3    H179564   5.554   6.013   4.474  1.0838  1.6113 -1.6413
19383TIP3    H279565   5.467   6.053   4.357 -1.3088  0.0251 -0.4886
19384TIP3   OH279566   3.947   1.486   1.857 -0.1570  0.0588  0.0218
19384TIP3    H179567   4.033   1.506   1.894 -0.2568 -0.5671  0.6033
19384TIP3    H279568   3.914   1.415   1.911  0.3313 -1.9481 -2.1595
19385TIP3   OH279569   6.359   1.517   1.838 -0.7944  0.4658 -0.4640
19385TIP3    H179570   6.404   1.462   1.773  1.7357 -0.9115  2.1872
19385TIP3    H279571   6.384   1.606   1.816 -3.3957  0.5687 -3.7040
19386TIP3   OH279572   3.031   4.660   4.036  0.1154  0.8487  0.5418
19386TIP3    H179573   3.002   4.608   3.961 -0.8250  0.3010  1.2699
19386TIP3    H279574   2.959   4.722   4.050  1.0224  2.0766 -0.0355
19387TIP3   OH279575   2.160   0.860  11.879  0.7950  0.3223  0.0456
19387TIP3    H179576   2.082   0.915  11.887  0.9996  0.6276 -0.0341
19387TIP3    H279577   2.130   0.771  11.899 -0.1617 -0.0319 -2.5875
19388TIP3   OH279578   1.524   4.578   4.472 -0.0094 -0.2785  0.0850
19388TIP3    H179579   1.576   4.627   4.535  0.6559 -1.1689  0.2513
19388TIP3    H279580   1.434   4.593   4.498  0.2755 -1.3597  1.8295
19389TIP3   OH279581   3.409   1.639   4.430 -0.2720  0.1046 -0.3340
19389TIP3    H179582   3.466   1.672   4.361  2.8637 -1.2241  1.4498
19389TIP3    H279583   3.379   1.554   4.397  1.4867 -0.6807  0.0031
19390TIP3   OH279584   3.597   2.172   1.325 -0.8182 -0.0296 -0.3411
19390TIP3    H179585   3.545   2.231   1.270 -0.3574  2.1725  1.4422
19390TIP3    H279586   3.562   2.184   1.413  1.0316 -0.4326  0.4958
19391TIP3   OH279587   4.886   3.003   0.035  0.1599 -0.1690  0.7753
19391TIP3    H179588   4.900   2.926   0.090  0.2078  0.3360  1.4878
19391TIP3    H279589   4.821   2.975  -0.029 -0.6498 -0.4854  1.7100
19392TIP3   OH279590   5.472   3.531   5.716  1.0382  0.2596  0.0554
19392TIP3    H179591   5.502   3.517   5.806 -0.5910  0.1183  0.5981
19392TIP3    H279592   5.381   3.559   5.724  1.0956  1.0397 -1.5248
19393TIP3   OH279593   5.452   0.459  14.678  0.4666 -0.1369  0.3308
19393TIP3    H179594   5.536   0.416  14.693 -0.3221 -1.8501  0.1011
19393TIP3    H279595   5.395   0.424  14.746 -0.5704 -0.5462 -0.7116
19394TIP3   OH279596   5.194   5.922  14.674 -0.0833  0.2978 -0.3488
19394TIP3    H179597   5.182   5.957  14.762 -0.9594 -1.6735  0.3657
19394TIP3    H279598   5.256   5.982  14.633 -2.0197  3.0949  0.5121
19395TIP3   OH279599   0.458   0.504   4.651  0.1760  0.1006  0.7877
19395TIP3    H179600   0.398   0.460   4.710  0.1473  1.0679  1.5048
19395TIP3    H279601   0.526   0.539   4.708  0.7314  0.1239  0.1242
19396TIP3   OH279602   6.524   0.032  14.207  0.5005  0.2211 -0.7233
19396TIP3    H179603   6.494   0.072  14.289 -2.8474 -0.4939 -1.4694
19396TIP3    H279604   6.530   0.106  14.146  0.4431  0.4016 -0.5145
19397TIP3   OH279605   5.314   5.680   6.246  0.0957 -0.0186 -0.0541
19397TIP3    H179606   5.360   5.603   6.212  2.9980  1.4491  0.2239
19397TIP3    H279607   5.371   5.712   6.316  0.7091  4.1458 -2.1689
19398TIP3   OH279608   6.156   6.158   1.520  0.6704 -0.5333  0.1686
19398TIP3    H179609   6.065   6.147   1.550  0.5461  2.5663  1.2636
19398TIP3    H279610   6.154   6.236   1.466  2.9469  0.5834  1.5722
19399TIP3   OH279611   6.739   3.782  12.189  0.8779  0.1884 -0.3929
19399TIP3    H179612   6.718   3.845  12.120  0.5868  0.3989 -0.1194
19399TIP3    H279613   6.728   3.696  12.148 -3.1222  0.1387  0.3199
19400TIP3   OH279614   1.345   2.053  14.152 -0.0386  0.1270 -0.2526
19400TIP3    H179615   1.408   1.981  14.159  1.2511  1.2196 -0.0956
19400TIP3    H279616   1.387   2.115  14.092 -1.5010  0.3804 -1.0518
19401TIP3   OH279617   2.573   3.818  15.375  0.3090 -0.4122 -0.8721
19401TIP3    H179618   2.614   3.898  15.342 -0.4485  0.8592  1.0987
19401TIP3    H279619   2.647   3.766  15.407  0.6834  0.3369 -0.4805
19402TIP3   OH279620   1.882   3.594  13.385 -0.6642 -0.1957 -0.1430
19402TIP3    H179621   1.797   3.603  13.429 -1.0128 -2.0335 -0.3536
19402TIP3    H279622   1.920   3.515  13.424  0.7221  0.2992 -0.4475
19403TIP3   OH279623   2.530   2.526   3.372  0.2817  0.0936 -0.5086
19403TIP3    H179624   2.616   2.563   3.392  0.3506 -0.7914  1.0065
19403TIP3    H279625   2.485   2.522   3.456 -1.2218  0.4138 -1.2512
19404TIP3   OH279626   3.217   3.782   4.346  0.1160 -0.2174 -0.2227
19404TIP3    H179627   3.231   3.762   4.438 -0.0264  0.2595 -0.1000
19404TIP3    H279628   3.137   3.835   4.344  1.1694  1.4298 -0.4143
19405TIP3   OH279629   6.163   4.808  12.826 -0.3538  0.0943 -0.4893
19405TIP3    H179630   6.161   4.770  12.738  1.6064 -0.3278 -0.3800
19405TIP3    H279631   6.211   4.890  12.816 -0.7023  0.3695  0.0815
19406TIP3   OH279632   3.479   2.338  14.027  0.1004 -0.3610 -0.2248
19406TIP3    H179633   3.489   2.317  14.120 -4.0002  0.8042  0.6632
19406TIP3    H279634   3.415   2.274  13.995  1.6957 -0.9755 -2.4568
19407TIP3   OH279635   3.091   4.398  11.642 -0.5553 -0.2071  0.2113
19407TIP3    H179636   3.123   4.404  11.552 -0.3131  1.2661  0.3677
19407TIP3    H279637   3.081   4.490  11.670 -3.2099 -0.5859  0.7808
19408TIP3   OH279638   4.416   2.727  10.965 -0.2160  0.0967  0.6637
19408TIP3    H179639   4.333   2.770  10.946 -0.2877 -0.9106 -1.6435
19408TIP3    H279640   4.425   2.660  10.897  2.1244 -0.3464  1.3026
19409TIP3   OH279641   0.714   0.931  13.644  0.1077 -0.0190  0.4299
19409TIP3    H179642   0.624   0.908  13.663  0.7395 -3.5022 -0.2262
19409TIP3    H279643   0.739   0.874  13.571  2.4391  1.8557 -0.3753
19410TIP3   OH279644   3.637   6.650  13.403  0.1318 -0.0451 -0.0419
19410TIP3    H179645   3.645   6.701  13.483 -2.9731  1.0720 -0.3059
19410TIP3    H279646   3.647   6.559  13.431 -1.1280  0.2951  1.7333
19411TIP3   OH279647   2.066   6.108   1.133 -0.2449  0.5129 -0.7403
19411TIP3    H179648   2.016   6.188   1.113  1.4626  1.5925 -0.8275
19411TIP3    H279649   2.081   6.111   1.227  1.1786  1.1316 -0.9731
19412TIP3   OH279650   5.920   4.426   4.688  0.5206 -0.0854 -0.3435
19412TIP3    H179651   5.969   4.500   4.724 -0.2405  0.2986 -0.0849
19412TIP3    H279652   5.876   4.387   4.763  1.7854 -1.4831 -0.3018
19413TIP3   OH279653   2.338   1.254   4.983  0.5936 -0.1791  0.3865
19413TIP3    H179654   2.245   1.275   4.992  0.9714  1.3902  0.9130
19413TIP3    H279655   2.382   1.310   5.047  1.7737 -2.2284  1.4659
19414TIP3   OH279656   2.046   0.405  15.622 -0.0291  0.3572 -0.1021
19414TIP3    H179657   2.030   0.311  15.616  0.1838  0.3289 -0.2420
19414TIP3    H279658   1.964   0.445  15.591  0.1808  0.2110 -0.8822
19415TIP3   OH279659   2.556   4.185   0.848 -0.1823 -0.0071 -0.1566
19415TIP3    H179660   2.542   4.226   0.933 -0.2874  0.7709 -0.5398
19415TIP3    H279661   2.633   4.130   0.861 -2.1863 -2.6659  1.3732
19416TIP3   OH279662   0.244   5.563  15.538 -0.3519  0.6165 -0.3715
19416TIP3    H179663   0.271   5.639  15.487  0.2238  1.6869  1.4636
19416TIP3    H279664   0.296   5.491  15.502 -0.0453  1.2948 -1.3490
19417TIP3   OH279665   4.345   1.765   3.068  0.2067 -0.0258 -0.3582
19417TIP3    H179666   4.280   1.771   2.998 -1.6310 -0.0217  1.2381
19417TIP3    H279667   4.342   1.850   3.111  2.5989  0.5905 -1.2706
19418TIP3   OH279668   3.921   5.520  12.247  0.4216 -0.3784 -0.1721
19418TIP3    H179669   3.924   5.451  12.180  3.1586 -1.2997  0.7617
19418TIP3    H279670   3.959   5.479  12.324 -3.6823  0.2527  2.4623
19419TIP3   OH279671   4.425   5.907   3.506  0.0484  0.1464  0.3629
19419TIP3    H179672   4.421   5.997   3.477 -1.0169  0.4998  1.5013
19419TIP3    H279673   4.429   5.855   3.426 -0.6511  1.1478 -0.3373
19420TIP3   OH279674   4.177   5.770  10.926  0.0054  0.1613 -0.6557
19420TIP3    H179675   4.174   5.864  10.944  2.0004 -0.2359  2.5994
19420TIP3    H279676   4.132   5.729  11.000  1.3561 -1.5054 -0.6894
19421TIP3   OH279677   1.245   0.493  13.391 -0.1706  1.1192  0.7913
19421TIP3    H179678   1.200   0.522  13.312 -0.1324  0.8152  0.6569
19421TIP3    H279679   1.210   0.406  13.408  1.1650  0.4161  0.0625
19422TIP3   OH279680   3.751   2.460  13.773 -0.0402  0.5880  0.2689
19422TIP3    H179681   3.758   2.441  13.867 -2.2056  0.7267  0.5048
19422TIP3    H279682   3.674   2.515  13.765 -0.8722 -0.7414 -1.7672
19423TIP3   OH279683   3.349   5.582   2.658 -0.6514  0.6402  0.5781
19423TIP3    H179684   3.411   5.652   2.638 -0.0929 -0.1979 -0.7431
19423TIP3    H279685   3.388   5.537   2.733  0.0917  0.4419  0.0855
19424TIP3   OH279686   5.780   4.427  11.469 -0.1483 -0.6172 -0.6884
19424TIP3    H179687   5.708   4.490  11.466 -0.1637 -0.6402 -0.7991
19424TIP3    H279688   5.788   4.395  11.379 -1.6346 -2.4726 -0.2343
19425TIP3   OH279689   3.975   5.552   2.712 -0.1363  0.7346  0.2944
19425TIP3    H179690   4.036   5.597   2.653  0.7253  1.1589  1.4722
19425TIP3    H279691   4.007   5.462   2.716 -0.9370  0.3714 -0.8308
19426TIP3   OH279692   6.499   0.139  14.783  0.4538 -0.1373 -0.1588
19426TIP3    H179693   6.493   0.101  14.871 -0.5879 -0.5678 -0.4011
19426TIP3    H279694   6.452   0.077  14.727 -0.2025  0.8894 -0.7671
19427TIP3   OH279695   3.281   6.389  14.749  0.0057 -0.1968  0.4492
19427TIP3    H179696   3.235   6.318  14.705  2.0183 -0.2999 -1.7253
19427TIP3    H279697   3.373   6.363  14.747  0.4477  0.9777  2.6230
19428TIP3   OH279698   5.624   1.558   3.226  0.3454  0.4555  0.3689
19428TIP3    H179699   5.701   1.506   3.253  0.7638  1.4582  1.1899
19428TIP3    H279700   5.560   1.542   3.295 -0.3646 -0.7179 -0.5373
19429TIP3   OH279701   5.163   0.449  13.017 -0.2322  0.8158  0.0456
19429TIP3    H179702   5.097   0.382  12.998  0.4958  0.3243 -0.8203
19429TIP3    H279703   5.149   0.516  12.949  0.6070  0.3663 -0.5868
19430TIP3   OH279704   3.437   2.992   0.173 -0.6057  0.2330  0.2400
19430TIP3    H179705   3.415   3.084   0.160  1.8050  0.6712 -1.4627
19430TIP3    H279706   3.475   2.988   0.261  0.4372  1.1730 -0.1384
19431TIP3   OH279707   5.162   3.824  12.002  1.2132 -0.1363  0.0086
19431TIP3    H179708   5.243   3.813  11.952  1.7467  1.6287  0.4027
19431TIP3    H279709   5.187   3.878  12.077 -0.3385  0.5177  0.1025
19432TIP3   OH279710   0.451   2.509  13.913 -0.1037  0.0821 -0.0519
19432TIP3    H179711   0.479   2.505  14.004  0.5796  0.4357 -0.2382
19432TIP3    H279712   0.446   2.418  13.885 -3.2387 -0.2374  1.1736
19433TIP3   OH279713   4.001   3.887  16.299  0.6000  0.4246 -0.5242
19433TIP3    H179714   4.029   3.807  16.344  2.7720  0.9754 -0.7623
19433TIP3    H279715   3.981   3.859  16.210 -1.2339 -0.2418  0.0417
19434TIP3   OH279716   4.243   2.890  15.355 -0.6012 -0.0738 -0.4660
19434TIP3    H179717   4.221   2.837  15.431 -0.6496 -1.3468 -1.3264
19434TIP3    H279718   4.313   2.842  15.311  0.1507  1.1731 -0.6771
19435TIP3   OH279719   0.980   1.363   2.965  0.1198 -0.7238  0.3252
19435TIP3    H179720   1.066   1.385   2.930  0.1673  0.8284  1.3033
19435TIP3    H279721   0.935   1.447   2.972 -1.3340 -1.4608  0.2245
19436TIP3   OH279722   5.693   4.338   6.552  0.0840 -0.0589 -0.2578
19436TIP3    H179723   5.771   4.359   6.603  0.4915 -0.9549 -0.4902
19436TIP3    H279724   5.701   4.391   6.473 -0.0645  0.6097  0.1682
19437TIP3   OH279725   1.320   3.252   1.543 -0.1293  0.2797 -0.6121
19437TIP3    H179726   1.352   3.334   1.506 -0.8639  0.7158 -0.2977
19437TIP3    H279727   1.336   3.187   1.475  1.6385  0.4212 -0.3824
19438TIP3   OH279728   2.318   3.788   3.690 -0.1267 -0.0148  0.2021
19438TIP3    H179729   2.227   3.817   3.698 -0.1832  1.0593 -2.7653
19438TIP3    H279730   2.342   3.759   3.777 -3.0535  0.4327  1.2798
19439TIP3   OH279731   4.473   4.621  10.558 -0.0833  0.5191 -0.1937
19439TIP3    H179732   4.494   4.532  10.530 -1.4045  0.2030 -0.2457
19439TIP3    H279733   4.518   4.678  10.496 -0.9308 -0.1527 -1.4530
19440TIP3   OH279734   0.679   3.162   1.460  0.1408 -1.2000  0.5599
19440TIP3    H179735   0.709   3.137   1.373 -0.9992 -0.9283  0.0817
19440TIP3    H279736   0.620   3.091   1.487 -0.9759 -0.3875  0.3202
19441TIP3   OH279737   6.139   1.499  16.453  0.1726  0.2298 -0.3824
19441TIP3    H179738   6.156   1.431  16.518 -0.2852  1.1964  0.7809
19441TIP3    H279739   6.141   1.453  16.369  4.7019 -0.4674 -0.1631
19442TIP3   OH279740   2.478   6.271   0.139 -0.3619 -0.1657 -0.2328
19442TIP3    H179741   2.444   6.183   0.124  0.0965 -0.5386  0.8891
19442TIP3    H279742   2.540   6.285   0.068 -3.0286  0.6952 -2.6170
19443TIP3   OH279743   1.778   0.640   5.986 -0.6337  0.1334 -0.0779
19443TIP3    H179744   1.762   0.682   5.901 -0.0776 -1.8747 -1.2220
19443TIP3    H279745   1.871   0.655   6.003 -0.3461 -0.9117 -0.6702
19444TIP3   OH279746   0.646   1.148  14.151 -0.0624 -0.5275 -0.1210
19444TIP3    H179747   0.688   1.077  14.102 -0.7567 -0.8592 -0.2560
19444TIP3    H279748   0.577   1.179  14.093  1.9582  2.2029 -1.3048
19445TIP3   OH279749   6.064   4.186   1.172 -0.4323 -0.1032 -0.5766
19445TIP3    H179750   6.094   4.218   1.087  2.7923 -1.3214 -0.0252
19445TIP3    H279751   6.045   4.265   1.222  1.4921  0.8190 -1.1899
19446TIP3   OH279752   5.429   6.644   4.279  0.7159  0.2207  0.2795
19446TIP3    H179753   5.412   6.607   4.192 -0.0693  1.5643 -0.1779
19446TIP3    H279754   5.489   6.582   4.321 -2.8290 -3.2597  0.7698
19447TIP3   OH279755   0.225   5.972   4.027 -0.1416 -0.3094  0.0157
19447TIP3    H179756   0.152   6.020   4.067 -1.1199 -2.1101  0.4978
19447TIP3    H279757   0.287   6.040   4.001 -0.5974  1.1278  2.3471
19448TIP3   OH279758   0.329   4.619   4.244  0.8518  0.0429  0.2045
19448TIP3    H179759   0.307   4.561   4.317  1.3820  0.1542  0.4579
19448TIP3    H279760   0.377   4.691   4.285 -1.9617  2.0270  0.3205
19449TIP3   OH279761   5.905   2.546   1.250 -0.0921  0.1349 -0.0639
19449TIP3    H179762   5.908   2.451   1.239  0.8790 -0.1219  1.9994
19449TIP3    H279763   5.901   2.559   1.345 -1.3185  2.1497 -0.3463
19450TIP3   OH279764   5.460   2.946   0.189  0.1791 -0.6920  0.0506
19450TIP3    H179765   5.555   2.954   0.182  0.3836 -1.6587  1.2714
19450TIP3    H279766   5.447   2.866   0.241 -1.2740  0.0732  0.9199
19451TIP3   OH279767   6.561   4.741  16.808 -0.4086 -0.5683 -0.1927
19451TIP3    H179768   6.477   4.785  16.823  0.5325  1.3594 -0.2104
19451TIP3    H279769   6.552   4.656  16.851 -1.6815  0.3757  1.5301
19452TIP3   OH279770   5.050   4.308  16.945  0.4006 -0.2250  0.0545
19452TIP3    H179771   5.028   4.218  16.921 -0.6451  0.0105  0.0637
19452TIP3    H279772   5.035   4.359  16.864 -0.1075  0.1028  0.3497
19453TIP3   OH279773   0.534   3.461  11.899 -0.4805 -0.1157  0.2656
19453TIP3    H179774   0.549   3.551  11.928 -0.3583  0.3981 -1.3211
19453TIP3    H279775   0.577   3.456  11.814 -0.5145 -1.6765  0.3202
19454TIP3   OH279776   2.243   1.469  14.998  0.4761 -0.3741 -0.4472
19454TIP3    H179777   2.148   1.455  15.000  0.4714 -0.6613 -1.8687
19454TIP3    H279778   2.254   1.560  15.025 -0.2264 -0.2398 -0.5800
19455TIP3   OH279779   1.846   2.950  13.445 -0.1897  0.6037  0.6602
19455TIP3    H179780   1.907   2.919  13.378 -1.1036 -0.0806  0.1086
19455TIP3    H279781   1.869   2.900  13.523 -0.7094 -0.4561  0.1675
19456TIP3   OH279782   5.835   5.149  14.038  0.3415 -0.1594  0.5238
19456TIP3    H179783   5.910   5.144  14.097 -0.1257 -2.0945  1.0166
19456TIP3    H279784   5.859   5.094  13.964  0.1625  0.7696 -0.2456
19457TIP3   OH279785   1.849   4.955   5.896  0.1562 -0.4527  0.8020
19457TIP3    H179786   1.807   4.911   5.971  0.5800  2.0415  2.6330
19457TIP3    H279787   1.795   5.033   5.881 -0.0767 -1.0182 -1.7714
19458TIP3   OH279788   2.261   6.290   6.596 -0.2299 -0.1189  0.2005
19458TIP3    H179789   2.276   6.384   6.597  0.2665 -0.1967  0.5772
19458TIP3    H279790   2.344   6.253   6.565 -0.2807 -0.4535  0.4567
19459TIP3   OH279791   5.244   2.710  13.178  0.0254  0.0772 -0.0387
19459TIP3    H179792   5.270   2.621  13.202 -1.0730 -0.1762  0.2980
19459TIP3    H279793   5.291   2.767  13.239 -0.5856 -0.3961  0.9062
19460TIP3   OH279794   4.379   3.344   1.163 -0.2654  0.0418  0.2037
19460TIP3    H179795   4.384   3.303   1.249 -1.5610 -0.0284  0.2743
19460TIP3    H279796   4.337   3.278   1.108 -1.2015  0.7753  0.0063
19461TIP3   OH279797   1.646   5.050   5.588 -0.2765  0.0624  0.3142
19461TIP3    H179798   1.666   5.137   5.554  0.0366 -0.6911 -1.5629
19461TIP3    H279799   1.690   5.047   5.673  1.0242  1.2051 -0.2676
19462TIP3   OH279800   4.184   0.512  11.589  0.0376 -0.0775  0.3553
19462TIP3    H179801   4.100   0.473  11.564  0.0001 -0.5472  1.1806
19462TIP3    H279802   4.211   0.462  11.666 -0.0794  1.6118  1.5360
19463TIP3   OH279803   4.426   4.327   4.241  0.6770  0.2156  0.6470
19463TIP3    H179804   4.466   4.294   4.321  0.9849  1.1644  0.8942
19463TIP3    H279805   4.456   4.417   4.234 -2.6487  1.5462  1.7172
19464TIP3   OH279806   2.275   2.704   1.609  0.0285 -0.6747  0.1767
19464TIP3    H179807   2.271   2.755   1.529 -1.2082 -1.1160 -0.0682
19464TIP3    H279808   2.359   2.728   1.649  0.0741  0.5169 -0.5887
19465TIP3   OH279809   1.985   1.554  10.388  0.6208 -0.2710 -0.0038
19465TIP3    H179810   1.992   1.623  10.323  0.6596  0.4790  0.7818
19465TIP3    H279811   1.946   1.480  10.341 -1.8375  1.0934 -0.2794
19466TIP3   OH279812   6.115   6.160  13.662 -0.6678  0.5310  0.0870
19466TIP3    H179813   6.184   6.110  13.705 -0.4820  0.6086 -0.1181
19466TIP3    H279814   6.096   6.232  13.723 -1.3248 -0.0952  0.6357
19467TIP3   OH279815   0.820   2.877  13.575  0.4879 -0.5680 -0.2430
19467TIP3    H179816   0.776   2.917  13.649 -1.6320  0.2095 -1.8093
19467TIP3    H279817   0.795   2.784  13.580 -0.1826 -0.4010 -0.2905
19468TIP3   OH279818   3.578   0.298   4.618 -0.0457  0.4801  0.3252
19468TIP3    H179819   3.646   0.237   4.646  1.1484  2.3532  1.7635
19468TIP3    H279820   3.498   0.267   4.660  0.0932 -1.1590 -0.5467
19469TIP3   OH279821   1.993   5.470   4.774  0.3626 -0.1054 -1.0581
19469TIP3    H179822   2.034   5.490   4.858  1.4067 -0.5539 -1.4441
19469TIP3    H279823   1.915   5.419   4.797 -0.0444  0.8126 -0.3084
19470TIP3   OH279824   3.511   5.605   6.420  0.4360  0.3877  0.2495
19470TIP3    H179825   3.511   5.532   6.483  1.7465  1.6773  1.8576
19470TIP3    H279826   3.604   5.627   6.410  0.5144 -1.0622 -3.8383
19471TIP3   OH279827   0.627   1.600  13.069 -0.3866 -0.1875  0.2182
19471TIP3    H179828   0.572   1.533  13.026  0.1280 -0.4155 -0.0957
19471TIP3    H279829   0.570   1.638  13.135 -1.9482  1.6805 -2.0454
19472TIP3   OH279830   3.719   3.373   3.409  0.0326  0.0932 -0.1595
19472TIP3    H179831   3.699   3.281   3.428 -0.3045  0.1855 -0.0605
19472TIP3    H279832   3.777   3.399   3.481 -1.6962  0.6039  1.1255
19473TIP3   OH279833   2.280   1.089  14.594  0.1116 -0.1567  0.4359
19473TIP3    H179834   2.242   1.103  14.681  2.4826  0.7481  1.4160
19473TIP3    H279835   2.345   1.019  14.607  1.5625  1.0156 -0.2113
19474TIP3   OH279836   5.537   3.200  16.539  0.2804 -0.3762 -0.7600
19474TIP3    H179837   5.521   3.113  16.502 -2.2382 -0.1813 -0.3085
19474TIP3    H279838   5.562   3.254  16.463  0.3345 -1.1483 -1.2985
19475TIP3   OH279839   3.609   3.042  11.129  0.0934 -0.3234 -0.6407
19475TIP3    H179840   3.518   3.026  11.105  0.2572  0.0113 -1.5199
19475TIP3    H279841   3.609   3.132  11.162  0.0721 -0.3926 -0.4507
19476TIP3   OH279842   6.023   6.054  12.653  0.2515 -0.6434 -0.5572
19476TIP3    H179843   6.032   6.017  12.741  2.0910 -0.3269 -0.5684
19476TIP3    H279844   5.964   6.128  12.664  0.4347 -0.6289  0.4064
19477TIP3   OH279845   5.081   4.814  16.347  0.0364  0.0023 -0.3863
19477TIP3    H179846   5.023   4.867  16.292  0.4156 -0.5511 -1.3552
19477TIP3    H279847   5.165   4.817  16.302  0.5764  0.2078  0.6213
19478TIP3   OH279848   4.825   1.489  11.061  0.0526 -0.2140  0.0430
19478TIP3    H179849   4.910   1.455  11.036  0.7519  0.6353  1.1600
19478TIP3    H279850   4.772   1.483  10.981  0.6257 -2.2789 -0.2409
19479TIP3   OH279851   4.990   6.457   5.916 -0.4483 -0.0753 -0.0794
19479TIP3    H179852   4.995   6.466   5.821  0.9190 -0.9112 -0.1060
19479TIP3    H279853   4.971   6.365   5.931 -1.4453  0.2017  0.4613
19480TIP3   OH279854   2.700   6.630  13.200  0.0863  0.4317 -0.1610
19480TIP3    H179855   2.676   6.723  13.201  0.4984  0.5387  0.0358
19480TIP3    H279856   2.616   6.584  13.202 -0.1274  0.7986  1.6338
19481TIP3   OH279857   2.542   4.442   4.232  0.0088  0.5307  0.4332
19481TIP3    H179858   2.484   4.484   4.168 -0.1851  0.1947  0.3872
19481TIP3    H279859   2.628   4.439   4.189  0.0532  0.9819  0.4824
19482TIP3   OH279860   0.804   5.676  15.130  0.1033  0.1718 -0.6380
19482TIP3    H179861   0.751   5.735  15.183 -0.6171 -0.8606 -0.1739
19482TIP3    H279862   0.876   5.649  15.188 -0.4461 -0.6226 -0.3133
19483TIP3   OH279863   5.021   4.205  14.469  0.0888 -0.1671 -0.1391
19483TIP3    H179864   4.994   4.285  14.515 -0.5903 -1.1386  1.2338
19483TIP3    H279865   4.963   4.201  14.393 -0.8504 -0.0606  0.5450
19484TIP3   OH279866   4.621   5.130  15.025  0.6296  0.2394 -0.5584
19484TIP3    H179867   4.573   5.074  15.087  0.5735  1.7238  0.7987
19484TIP3    H279868   4.573   5.121  14.942 -1.2981  0.7211  0.4419
19485TIP3   OH279869   2.530   3.241  11.113  0.3073  0.8597 -0.1435
19485TIP3    H179870   2.468   3.265  11.182 -0.1218 -1.7691  0.4656
19485TIP3    H279871   2.478   3.244  11.032 -0.9651 -2.0213  0.4357
19486TIP3   OH279872   2.480   4.786  15.041 -0.2020 -0.5240  0.4295
19486TIP3    H179873   2.538   4.721  15.002  0.1852 -0.9188  1.6485
19486TIP3    H279874   2.515   4.870  15.011 -1.1960 -0.8269 -1.8518
19487TIP3   OH279875   2.273   1.897  11.563  0.2713  0.6469 -0.7850
19487TIP3    H179876   2.184   1.880  11.533 -0.3552  0.8198  0.8807
19487TIP3    H279877   2.280   1.851  11.646  1.6043  0.9927 -0.6774
19488TIP3   OH279878   6.640   4.494  12.507  0.1864  0.2386  0.7327
19488TIP3    H179879   6.685   4.507  12.591  1.5975  3.6846 -0.3744
19488TIP3    H279880   6.586   4.573  12.497 -2.7533 -1.7363 -0.0636
19489TIP3   OH279881   3.730   5.453   2.342 -0.1415 -0.4276 -0.9638
19489TIP3    H179882   3.657   5.507   2.374 -1.2795 -1.0221 -2.4503
19489TIP3    H279883   3.797   5.517   2.316  0.1847  0.1060  1.0140
19490TIP3   OH279884   1.922   2.010  10.393  0.2969 -0.2222 -0.0633
19490TIP3    H179885   1.976   1.986  10.318 -0.4729 -0.3374 -0.5903
19490TIP3    H279886   1.923   2.106  10.394  2.6206 -0.1792  1.4970
19491TIP3   OH279887   2.519   1.610  14.570  0.1573  0.3549 -0.0933
19491TIP3    H179888   2.492   1.650  14.653 -0.1680  1.7879 -0.8448
19491TIP3    H279889   2.612   1.632  14.562 -0.2576  1.9863 -1.0023
19492TIP3   OH279890   2.329   5.326   0.442 -0.2999  0.3682  0.7763
19492TIP3    H179891   2.340   5.270   0.365  1.9798  1.9293 -0.1661
19492TIP3    H279892   2.235   5.328   0.457 -0.5809 -2.4199 -0.0696
19493TIP3   OH279893   2.477   1.718   4.084 -0.0799  0.0391 -0.1449
19493TIP3    H179894   2.573   1.721   4.084 -0.0515  1.1218 -2.1904
19493TIP3    H279895   2.455   1.670   4.163  2.2107 -2.2472 -0.7544
19494TIP3   OH279896   0.930   3.075  12.226 -0.2488 -0.0840  0.5341
19494TIP3    H179897   0.911   2.981  12.220  0.6808 -0.3518  1.3602
19494TIP3    H279898   1.016   3.084  12.185  0.5592  0.0500  2.1611
19495TIP3   OH279899   4.976   2.266   1.581  0.6501  0.4179  1.0578
19495TIP3    H179900   4.912   2.221   1.526  1.3452  1.4006 -0.6371
19495TIP3    H279901   5.041   2.199   1.602  1.4513  0.4491 -1.0802
19496TIP3   OH279902   1.467   3.062   5.406 -0.6095  0.5477  0.2674
19496TIP3    H179903   1.502   3.066   5.495  0.1970  0.2523 -0.0229
19496TIP3    H279904   1.395   2.999   5.412 -0.7012  0.6889  0.7494
19497TIP3   OH279905   2.809   5.262  16.871  0.3252  0.4541 -0.3495
19497TIP3    H179906   2.872   5.283  16.939  3.2295 -1.6171 -2.1402
19497TIP3    H279907   2.820   5.331  16.806  0.1616  0.5149 -0.3139
19498TIP3   OH279908   4.129   3.610  13.168 -0.1245  0.1902 -0.2974
19498TIP3    H179909   4.087   3.525  13.161  0.2855 -0.3397  2.4194
19498TIP3    H279910   4.190   3.613  13.095  1.4405 -2.8674  0.6969
19499TIP3   OH279911   1.808   6.699   0.879  0.2348 -0.0273 -0.8291
19499TIP3    H179912   1.842   6.788   0.878  0.0824  0.0319 -0.6887
19499TIP3    H279913   1.870   6.649   0.825 -0.5160  0.4618 -2.1880
19500TIP3   OH279914   5.059   5.424  12.447 -0.5479 -0.3598  0.4544
19500TIP3    H179915   5.022   5.399  12.532  0.0882 -0.4638  0.7083
19500TIP3    H279916   5.031   5.355  12.387 -0.3891 -0.6728  0.7392
19501TIP3   OH279917   1.937   3.632  11.839  0.7302 -0.2984 -0.5810
19501TIP3    H179918   2.011   3.656  11.895  0.6306 -1.0782 -0.1095
19501TIP3    H279919   1.909   3.715  11.800  2.7285 -0.1540 -1.8639
19502TIP3   OH279920   5.222   4.794   2.371  0.5331  0.1841 -0.0311
19502TIP3    H179921   5.236   4.813   2.463 -0.3540  1.6671 -0.1693
19502TIP3    H279922   5.191   4.877   2.334 -0.7805 -0.8367 -1.3151
19503TIP3   OH279923   3.225   5.873  15.650 -0.1224 -0.2584 -0.2389
19503TIP3    H179924   3.284   5.877  15.725  0.4894 -0.3520 -0.7175
19503TIP3    H279925   3.270   5.920  15.580 -0.9864  0.4397 -0.3575
19504TIP3   OH279926   6.263   5.942  11.390 -1.5766 -0.2358  0.0538
19504TIP3    H179927   6.315   6.014  11.425 -0.2964 -1.3726  0.5989
19504TIP3    H279928   6.313   5.911  11.314 -1.8240 -0.8895  0.1506
19505TIP3   OH279929   0.031   3.860   0.839 -0.1107  0.3677 -0.1243
19505TIP3    H179930  -0.005   3.925   0.778 -1.8750  0.4851  0.9771
19505TIP3    H279931  -0.021   3.781   0.823  0.8240 -0.2520 -0.2049
19506TIP3   OH279932   5.772   4.721   6.648 -0.0656  0.1219  0.5594
19506TIP3    H179933   5.794   4.808   6.679 -0.2010 -0.2973  1.8867
19506TIP3    H279934   5.839   4.700   6.583 -0.5018  1.5161 -0.3815
19507TIP3   OH279935   6.520   6.628   4.052 -0.3227  0.7226  0.4905
19507TIP3    H179936   6.485   6.542   4.072 -1.2614  0.3679 -2.3475
19507TIP3    H279937   6.446   6.687   4.061 -0.8635  0.5088 -1.9190
19508TIP3   OH279938   6.466   3.009   1.810  0.0109  0.2569  0.1489
19508TIP3    H179939   6.543   3.021   1.755 -0.9736  2.8152 -0.8148
19508TIP3    H279940   6.499   2.964   1.888  2.3411  0.6879 -0.5139
19509TIP3   OH279941   1.068   1.265  15.292 -0.3055 -0.5948 -0.0638
19509TIP3    H179942   1.089   1.256  15.385 -1.4160 -0.0745  0.2563
19509TIP3    H279943   0.991   1.210  15.280 -0.9492  0.3394 -0.3672
19510TIP3   OH279944   2.893   4.641   2.091 -0.2008  0.1685 -0.0652
19510TIP3    H179945   2.888   4.718   2.147 -0.5591  0.3301 -0.3120
19510TIP3    H279946   2.874   4.567   2.149  1.0159  0.1786  0.3531
19511TIP3   OH279947   1.026   2.312   3.807 -0.1570 -0.4475 -0.0979
19511TIP3    H179948   1.067   2.228   3.829 -0.3332 -0.6949 -0.7160
19511TIP3    H279949   0.947   2.315   3.861  0.0128 -0.5342  0.1582
19512TIP3   OH279950   1.107   5.487   2.953  0.4056  0.1591  1.0193
19512TIP3    H179951   1.077   5.499   3.043 -1.3078  0.2883  0.4662
19512TIP3    H279952   1.184   5.430   2.961 -0.0551 -0.2933  2.5118
19513TIP3   OH279953   1.271   3.485  10.660  1.0024 -0.2632 -0.1993
19513TIP3    H179954   1.222   3.414  10.618  0.9325 -0.8550  0.8429
19513TIP3    H279955   1.244   3.564  10.614 -1.7780 -0.3955  1.0184
19514TIP3   OH279956   4.455   6.794  16.291  0.0468  0.6916  0.4217
19514TIP3    H179957   4.532   6.842  16.321 -0.0589  0.6258  0.8164
19514TIP3    H279958   4.401   6.859  16.246  0.5393  0.6412 -0.2529
19515TIP3   OH279959   5.486   5.314   4.703 -0.0495 -0.3834  0.2368
19515TIP3    H179960   5.405   5.348   4.665 -0.3253 -1.7104 -0.4020
19515TIP3    H279961   5.467   5.223   4.725  1.0401 -0.5031  0.7754
19516TIP3   OH279962   3.247   1.173  15.377  0.3591  0.4230  0.1533
19516TIP3    H179963   3.257   1.259  15.417 -0.5118 -0.1824  1.7832
19516TIP3    H279964   3.304   1.116  15.429 -1.8977 -0.6654  1.5822
19517TIP3   OH279965   5.915   2.634  12.849  0.6662  0.2302 -0.5270
19517TIP3    H179966   6.009   2.639  12.833  0.6767  1.0935 -0.2276
19517TIP3    H279967   5.896   2.708  12.907  0.1512 -1.1414  1.1478
19518TIP3   OH279968   6.096   3.943  12.616  0.2126 -0.0455 -0.6704
19518TIP3    H179969   6.179   3.900  12.637  0.5745  0.9475  0.0219
19518TIP3    H279970   6.033   3.902  12.675  0.6309  0.5956  0.2613
19519TIP3   OH279971   6.810   3.011   1.259 -0.3729  0.2784 -0.4150
19519TIP3    H179972   6.846   2.952   1.193 -0.5406  0.0992 -0.3481
19519TIP3    H279973   6.716   2.993   1.258 -0.2609 -0.5149  0.6262
19520TIP3   OH279974   1.633   0.296   0.433  0.2426  0.6760  0.2376
19520TIP3    H179975   1.583   0.241   0.494 -0.0966  0.8558  0.1209
19520TIP3    H279976   1.709   0.242   0.411  0.3550  0.6010  0.8007
19521TIP3   OH279977   0.020   4.450   2.961  0.7765 -0.1900  0.0535
19521TIP3    H179978   0.012   4.521   3.024 -0.2471 -1.0537  0.9270
19521TIP3    H279979  -0.068   4.439   2.925  0.7029 -1.5861  0.5877
19522TIP3   OH279980   1.629   2.056  11.940  0.0477 -0.3343 -0.2779
19522TIP3    H179981   1.696   2.120  11.963 -0.0734 -0.2427 -0.1855
19522TIP3    H279982   1.552   2.081  11.991  0.4006 -1.3426  0.8126
19523TIP3   OH279983   2.154   0.999  16.202  0.0964  0.1520 -0.1761
19523TIP3    H179984   2.206   1.060  16.254  0.7161  0.4834 -1.1627
19523TIP3    H279985   2.090   1.053  16.156 -0.9051 -0.2139  0.7379
19524TIP3   OH279986   4.439   0.205   4.984 -0.1881 -0.5003  0.0344
19524TIP3    H179987   4.372   0.251   5.034  0.8730  1.8046 -0.4972
19524TIP3    H279988   4.395   0.180   4.903 -0.4476  1.1542 -0.3912
19525TIP3   OH279989   5.398   1.109  11.384  0.4041  0.1336  0.8200
19525TIP3    H179990   5.361   1.182  11.432 -0.9117 -2.1627  3.5861
19525TIP3    H279991   5.342   1.100  11.306 -1.3844  0.2286  2.0397
19526TIP3   OH279992   6.462   5.813   1.480 -0.8040 -0.0914 -0.0372
19526TIP3    H179993   6.405   5.860   1.419 -1.2604  1.7231  1.6843
19526TIP3    H279994   6.438   5.721   1.468  0.6041 -0.1400 -4.0194
19527TIP3   OH279995   0.219   4.401  13.861  0.2707 -0.2415  0.4559
19527TIP3    H179996   0.184   4.465  13.922 -1.2976  0.0846 -0.7453
19527TIP3    H279997   0.195   4.316  13.898 -1.4347 -0.0301 -0.1101
19528TIP3   OH279998   2.640   2.892  16.273 -0.0873  0.0157  0.4182
19528TIP3    H179999   2.716   2.851  16.315 -0.0605 -0.6174 -0.2152
19528TIP3    H280000   2.568   2.831  16.290  0.1524 -0.8536 -1.3646
19529TIP3   OH280001   2.785   2.051  14.592  0.2821 -0.0111 -0.6976
19529TIP3    H180002   2.706   2.101  14.607 -0.3116 -1.1839  0.2892
19529TIP3    H280003   2.816   2.079  14.506 -0.6408  1.1809 -0.6597
19530TIP3   OH280004   5.326   5.901  11.459  0.2720 -0.1036  0.2556
19530TIP3    H180005   5.364   5.838  11.398 -1.4963  0.1804 -1.2490
19530TIP3    H280006   5.389   5.973  11.462  0.2678  0.0329 -1.5845
19531TIP3   OH280007   0.802   4.826   0.803 -0.2794 -0.1991  0.1135
19531TIP3    H180008   0.762   4.869   0.727  0.9370  0.0365 -0.4175
19531TIP3    H280009   0.836   4.898   0.856  1.1354 -0.4404 -0.4211
19532TIP3   OH280010   0.169   2.774  13.939  0.0281 -0.3006 -0.0067
19532TIP3    H180011   0.183   2.707  13.873  0.5098  0.0877 -0.3086
19532TIP3    H280012   0.115   2.840  13.895  1.9691  0.9148 -0.6946
19533TIP3   OH280013   5.085   3.007   4.830 -0.0155  0.1339  0.2092
19533TIP3    H180014   5.000   3.026   4.790  0.6772  2.3853 -0.3536
19533TIP3    H280015   5.146   3.001   4.757  0.3945 -1.0735  0.6318
19534TIP3   OH280016   3.256   5.333   0.095 -0.0043 -0.7039  0.2365
19534TIP3    H180017   3.305   5.292   0.166 -0.4574  0.0512  0.9955
19534TIP3    H280018   3.233   5.420   0.128 -0.0380 -0.2617 -0.9170
19535TIP3   OH280019   6.333   0.132   1.231  0.1680  0.1173 -0.0076
19535TIP3    H180020   6.298   0.096   1.312  1.3781 -0.0081  0.4899
19535TIP3    H280021   6.370   0.057   1.185 -0.4143  0.2063 -0.6306
19536TIP3   OH280022   2.435   5.155  12.417  0.4058  0.2281 -0.0008
19536TIP3    H180023   2.418   5.101  12.494 -0.1829 -0.2506 -0.4577
19536TIP3    H280024   2.366   5.131  12.355  1.8786 -0.7121 -1.3542
19537TIP3   OH280025   0.281   5.332   0.131  0.0994  0.0651  0.3108
19537TIP3    H180026   0.225   5.254   0.128 -0.8355  0.7258  0.2215
19537TIP3    H280027   0.299   5.351   0.039 -1.6888  1.3504  0.1823
19538TIP3   OH280028   3.424   2.404   5.139 -0.4947  0.6239  0.0347
19538TIP3    H180029   3.335   2.436   5.122 -0.5918  0.5647  0.4099
19538TIP3    H280030   3.456   2.461   5.208 -0.4031  0.3652  0.2070
19539TIP3   OH280031   5.418   6.189   5.615  0.2762 -0.2849  0.2129
19539TIP3    H180032   5.414   6.159   5.525  0.0146  0.8598 -0.1706
19539TIP3    H280033   5.502   6.235   5.622 -0.5927  1.4310 -0.0607
19540TIP3   OH280034   4.861   0.623  14.429  0.6394 -0.2278 -0.6048
19540TIP3    H180035   4.904   0.670  14.500 -0.6742  0.3450 -0.1636
19540TIP3    H280036   4.918   0.548  14.412  1.0826 -0.2658  0.9224
19541TIP3   OH280037   1.079   2.549   1.991  0.3585  0.2339  0.5813
19541TIP3    H180038   1.143   2.618   2.005 -0.5645  1.4602 -0.9931
19541TIP3    H280039   1.065   2.547   1.897 -0.6870 -1.1572  0.7295
19542TIP3   OH280040   3.259   3.270  14.544 -0.1159 -0.6402 -0.1099
19542TIP3    H180041   3.285   3.259  14.452 -1.5284  0.4931 -0.6884
19542TIP3    H280042   3.272   3.184  14.583 -1.1431 -1.6356 -1.8313
19543TIP3   OH280043   3.686   6.815  13.083 -0.2883  0.3584  0.0630
19543TIP3    H180044   3.712   6.823  12.992  0.1898  0.7689  0.2330
19543TIP3    H280045   3.591   6.826  13.082 -0.3692 -0.2963 -0.4541
19544TIP3   OH280046   4.399   1.663   2.416 -0.4818 -0.6011 -0.3379
19544TIP3    H180047   4.439   1.710   2.489 -1.5249 -1.3336  0.7477
19544TIP3    H280048   4.472   1.618   2.373  0.1183 -0.3132  0.3598
19545TIP3   OH280049   0.995   2.790  15.065  0.5413  0.0770  0.3163
19545TIP3    H180050   0.992   2.709  15.116 -0.2844  1.0417  1.8772
19545TIP3    H280051   1.037   2.853  15.123  1.0637  0.8038 -0.8308
19546TIP3   OH280052   4.539   3.700  15.733 -0.0331  0.1209 -0.1206
19546TIP3    H180053   4.447   3.673  15.729  0.1683 -0.4486 -1.4827
19546TIP3    H280054   4.581   3.636  15.790 -0.2834 -0.2667 -0.3674
19547TIP3   OH280055   5.075   1.016   5.400 -0.5288  0.0645  0.0025
19547TIP3    H180056   5.103   1.002   5.490 -0.5409 -0.4997 -0.0785
19547TIP3    H280057   5.005   0.953   5.386 -0.4740  0.0923 -0.4269
19548TIP3   OH280058   3.770   2.588   3.424 -0.2151  0.3827 -0.3856
19548TIP3    H180059   3.856   2.621   3.397  0.0630  0.6314  0.7329
19548TIP3    H280060   3.787   2.547   3.509 -0.6082 -2.3570 -1.5101
19549TIP3   OH280061   5.116   0.428   5.814  0.2452  0.3264 -0.4207
19549TIP3    H180062   5.027   0.408   5.785  0.0022  1.6843 -0.6774
19549TIP3    H280063   5.116   0.405   5.907 -0.7795  1.5229 -0.1052
19550TIP3   OH280064   6.235   1.726  17.022 -0.6828 -0.0196 -0.0726
19550TIP3    H180065   6.197   1.805  16.983  1.2983  1.4708  0.8274
19550TIP3    H280066   6.231   1.660  16.953  1.0760  2.0065 -2.2601
19551TIP3   OH280067   5.205   1.250  14.422 -0.1670  0.0799  0.2446
19551TIP3    H180068   5.225   1.274  14.331 -0.0182  1.4875  0.6211
19551TIP3    H280069   5.185   1.156  14.419  2.2521 -0.4694 -0.8524
19552TIP3   OH280070   2.331   0.868  15.465  0.4383  0.6056 -0.2720
19552TIP3    H180071   2.297   0.793  15.514  0.3236  0.3863 -0.6766
19552TIP3    H280072   2.257   0.898  15.412  1.0338 -0.3376 -1.7073
19553TIP3   OH280073   4.628   6.609   2.729  0.0095  0.5190 -0.0790
19553TIP3    H180074   4.598   6.518   2.735 -0.0932  0.5567 -0.0154
19553TIP3    H280075   4.723   6.603   2.720  0.0662  0.4228  0.5278
19554TIP3   OH280076   2.055   4.747  11.146  0.2790 -0.2537 -0.1286
19554TIP3    H180077   1.976   4.762  11.094  0.0345  0.0535  0.3247
19554TIP3    H280078   2.062   4.824  11.202  1.0125 -0.1861 -0.2996
19555TIP3   OH280079   0.362   2.454   5.123 -0.1859  0.4908 -0.7992
19555TIP3    H180080   0.404   2.466   5.038 -0.0709 -0.2059 -0.8418
19555TIP3    H280081   0.278   2.499   5.114 -0.7045 -0.6195 -1.7003
19556TIP3   OH280082   4.674   0.334   3.505 -0.0413  0.7131  0.7007
19556TIP3    H180083   4.707   0.368   3.588  0.5631 -0.4812  0.9841
19556TIP3    H280084   4.721   0.252   3.493 -0.8067  0.4056 -0.3651
19557TIP3   OH280085   2.355   4.311   6.072  0.3231  0.0111 -0.2763
19557TIP3    H180086   2.375   4.301   6.165  0.6360 -2.2126 -0.5305
19557TIP3    H280087   2.282   4.252   6.056  0.8831 -0.3647 -1.6164
19558TIP3   OH280088   3.622   0.642  13.140  0.0869 -0.9435 -0.3192
19558TIP3    H180089   3.633   0.636  13.234 -1.0074  1.9127  0.0848
19558TIP3    H280090   3.609   0.551  13.111  0.8458 -1.9213  2.1717
19559TIP3   OH280091   2.594   1.517   1.234 -0.2172  0.3455  0.2093
19559TIP3    H180092   2.550   1.601   1.250 -0.4106  0.2957 -0.0600
19559TIP3    H280093   2.542   1.453   1.283 -1.8635 -0.0918 -1.9678
19560TIP3   OH280094   3.449   5.232  16.709 -0.3968  0.3030  0.2182
19560TIP3    H180095   3.467   5.280  16.628 -0.6559 -0.3495 -0.2444
19560TIP3    H280096   3.533   5.190  16.730 -0.1949  0.8748  0.5723
19561TIP3   OH280097   3.845   6.196  12.821 -0.6851 -0.4024 -0.3029
19561TIP3    H180098   3.805   6.109  12.812 -0.7622 -0.2477 -1.5667
19561TIP3    H280099   3.938   6.180  12.808 -0.9108 -0.0139 -2.8096
19562TIP3   OH280100   3.502   2.394  13.592  0.0050 -0.5378 -0.8844
19562TIP3    H180101   3.434   2.343  13.637 -1.1481  1.5279 -0.1383
19562TIP3    H280102   3.577   2.335  13.588 -1.4602 -2.5229 -0.7363
19563TIP3   OH280103   6.807   6.702  12.968  0.3199 -0.4851  0.3252
19563TIP3    H180104   6.728   6.735  12.924 -0.0866 -2.2503 -0.3207
19563TIP3    H280105   6.804   6.743  13.055 -1.9086 -1.3235  0.7146
19564TIP3   OH280106   0.749   6.016  12.462  0.0792  0.5046 -0.2575
19564TIP3    H180107   0.755   6.111  12.471  0.5231  0.5146 -0.6671
19564TIP3    H280108   0.747   6.001  12.368  0.6440  0.0672 -0.1993
19565TIP3   OH280109   1.263   3.491   1.780 -0.1397 -0.1475  0.1660
19565TIP3    H180110   1.325   3.434   1.826  0.8158  0.1357 -0.7386
19565TIP3    H280111   1.307   3.576   1.775  0.3383 -0.4516 -2.2661
19566TIP3   OH280112   0.509   2.551  16.530 -0.0225  0.3296  0.2171
19566TIP3    H180113   0.540   2.504  16.608 -0.2527 -0.7490 -0.3201
19566TIP3    H280114   0.526   2.491  16.458 -3.6177 -0.5501 -0.0924
19567TIP3   OH280115   4.796   3.336   2.296  0.7043  0.0714 -0.2814
19567TIP3    H180116   4.860   3.295   2.354  1.7820  3.7135  1.4686
19567TIP3    H280117   4.849   3.377   2.228 -0.1805 -0.3650 -1.2436
19568TIP3   OH280118   0.493   3.560  12.609 -0.3582  0.1124  0.6933
19568TIP3    H180119   0.462   3.513  12.532 -1.0629  0.3543  0.8212
19568TIP3    H280120   0.421   3.618  12.633 -0.1946 -0.0267  1.5901
19569TIP3   OH280121   4.639   4.598   3.243 -0.6485  0.0863 -0.4929
19569TIP3    H180122   4.647   4.666   3.176  1.2524  1.8570  1.3844
19569TIP3    H280123   4.550   4.606   3.276 -0.3355  2.0074 -0.0206
19570TIP3   OH280124   3.616   3.957   1.265 -0.3431  0.3649 -0.6361
19570TIP3    H180125   3.643   4.002   1.345 -0.1729  1.8209 -1.4703
19570TIP3    H280126   3.564   3.883   1.295  0.7621  0.1391  0.8586
19571TIP3   OH280127   0.022   5.657   2.547  0.1936  0.0290 -0.5872
19571TIP3    H180128  -0.014   5.584   2.497  0.2134 -0.3139 -0.1077
19571TIP3    H280129  -0.047   5.723   2.548  0.9275  0.9213 -2.8380
19572TIP3   OH280130   5.615   6.201  10.894 -0.2334  0.0861 -0.0759
19572TIP3    H180131   5.640   6.131  10.833  0.4511  1.0845 -0.9686
19572TIP3    H280132   5.624   6.161  10.981 -1.5719 -1.4852 -0.5952
19573TIP3   OH280133   2.651   6.126   4.256  0.3624 -0.1599 -0.0161
19573TIP3    H180134   2.648   6.158   4.346  1.3763  0.1843 -0.0896
19573TIP3    H280135   2.673   6.033   4.264 -2.3320 -0.8461  0.1874
19574TIP3   OH280136   6.538   1.682   5.237 -0.1781 -0.3744 -0.1799
19574TIP3    H180137   6.515   1.610   5.178 -0.7454 -1.4955  1.3626
19574TIP3    H280138   6.456   1.706   5.280 -0.1744  1.7814 -1.2225
19575TIP3   OH280139   4.563   0.719  12.085  0.7944 -0.0878  0.0522
19575TIP3    H180140   4.552   0.752  12.174 -1.1783 -0.2251 -0.1018
19575TIP3    H280141   4.559   0.797  12.030  1.2639 -0.0804  0.0232
19576TIP3   OH280142   5.086   2.185   5.692 -0.1611 -0.0794 -1.4141
19576TIP3    H180143   5.136   2.236   5.629  0.5931  0.5340 -0.3587
19576TIP3    H280144   5.139   2.187   5.772 -1.2123 -0.5932 -0.6730
19577TIP3   OH280145   4.290   5.552   4.644  0.2893  0.2713 -0.2958
19577TIP3    H180146   4.372   5.573   4.688  0.6840 -2.2706  0.2762
19577TIP3    H280147   4.272   5.461   4.666 -0.0783 -0.9010 -4.4329
19578TIP3   OH280148   4.465   4.860  14.592  0.7298  0.0585 -0.1845
19578TIP3    H180149   4.505   4.776  14.615 -0.3724 -0.3886  0.2039
19578TIP3    H280150   4.439   4.850  14.501  0.9771  0.1332 -0.2632
19579TIP3   OH280151   3.844   3.208  14.575  0.1600  0.5921 -0.1128
19579TIP3    H180152   3.936   3.180  14.566 -0.3030 -1.5786  1.1126
19579TIP3    H280153   3.808   3.201  14.487  0.8491  0.2429 -0.3768
19580TIP3   OH280154   1.568   1.003   5.257 -0.4136  0.5430 -0.0107
19580TIP3    H180155   1.652   0.992   5.302  0.1430 -0.1748 -1.1874
19580TIP3    H280156   1.503   1.002   5.328  0.4406 -0.5372  0.7955
19581TIP3   OH280157   1.505   4.158   4.681 -0.1009 -0.1563 -0.6931
19581TIP3    H180158   1.429   4.110   4.714  0.6709 -2.0339 -1.5327
19581TIP3    H280159   1.561   4.091   4.642  2.1394  1.1276  0.1294
19582TIP3   OH280160   4.783   3.298   2.953 -0.7108  0.2421  0.4384
19582TIP3    H180161   4.829   3.380   2.973 -0.9410  1.4795 -3.3047
19582TIP3    H280162   4.851   3.239   2.922 -0.8576 -0.2222  0.9747
19583TIP3   OH280163   4.685   2.497   3.978 -0.3461  0.1356 -0.7954
19583TIP3    H180164   4.718   2.550   3.906 -1.2920 -0.0199 -1.3643
19583TIP3    H280165   4.658   2.415   3.937  0.0162 -0.3394 -0.1018
19584TIP3   OH280166   3.951   0.876   5.481 -0.2906 -0.0377 -0.3489
19584TIP3    H180167   4.007   0.816   5.531 -2.0734 -1.2261  0.3058
19584TIP3    H280168   3.945   0.954   5.536  0.5921  0.0646 -0.3762
19585TIP3   OH280169   3.892   6.735   5.438  0.1491 -0.8251  0.2497
19585TIP3    H180170   3.942   6.655   5.425 -0.6826 -1.1461 -1.0804
19585TIP3    H280171   3.801   6.707   5.443 -0.1731  0.0440 -0.4448
19586TIP3   OH280172   1.217   4.676   3.495 -0.2145 -0.2409  0.0793
19586TIP3    H180173   1.168   4.654   3.574 -1.1151 -1.9357 -0.8904
19586TIP3    H280174   1.309   4.658   3.518  0.0358  2.6531  1.8041
19587TIP3   OH280175   6.065   2.268  16.775  0.1752  0.1978  0.4576
19587TIP3    H180176   6.072   2.246  16.868 -1.0295 -0.6134  0.3858
19587TIP3    H280177   6.155   2.283  16.746  1.0010 -3.1001  0.9237
19588TIP3   OH280178   5.453   1.322  15.851  0.1720 -0.2396  0.1851
19588TIP3    H180179   5.493   1.360  15.929  0.6094 -0.3139 -0.0007
19588TIP3    H280180   5.527   1.306  15.792 -0.4456  3.5135 -1.9009
19589TIP3   OH280181   6.346   6.476   3.308 -0.1730  0.3032 -0.5554
19589TIP3    H180182   6.292   6.521   3.242 -1.3366 -0.2716 -0.0387
19589TIP3    H280183   6.282   6.433   3.365  0.8438 -0.0344  0.3605
19590TIP3   OH280184   4.938   5.430  12.130  0.5302  0.4832  0.2302
19590TIP3    H180185   4.861   5.486  12.113  0.1596  0.0972  0.6253
19590TIP3    H280186   4.902   5.342  12.137  1.1193  0.1811 -0.4210
19591TIP3   OH280187   4.958   3.445  12.559  0.3107  0.5952 -0.2572
19591TIP3    H180188   4.878   3.409  12.519  0.1967  0.5489  0.0105
19591TIP3    H280189   4.958   3.536  12.532 -0.7963  1.0703  1.2125
19592TIP3   OH280190   0.753   0.829   3.390 -0.3217  0.7669 -0.1011
19592TIP3    H180191   0.847   0.841   3.400 -0.5716  0.8113  3.3146
19592TIP3    H280192   0.736   0.742   3.425 -1.4212 -0.0200 -2.3638
19593TIP3   OH280193   3.318   5.689   3.393 -0.2619 -0.2769  0.0124
19593TIP3    H180194   3.384   5.699   3.462  0.9959 -0.3192 -1.1345
19593TIP3    H280195   3.364   5.644   3.323 -1.1606  0.8206 -1.3241
19594TIP3   OH280196   4.530   0.953   6.052 -0.5308  0.2607 -0.3646
19594TIP3    H180197   4.475   0.973   5.977  0.4179 -0.0719 -1.1642
19594TIP3    H280198   4.493   0.872   6.087 -2.4494  1.6483  1.0128
19595TIP3   OH280199   5.274   3.055  14.091 -0.3042 -0.0390  0.1485
19595TIP3    H180200   5.222   3.068  14.012 -1.4236 -0.0561  0.8458
19595TIP3    H280201   5.270   2.960  14.107  1.0511 -0.2189 -0.5009
19596TIP3   OH280202   5.933   5.253   4.708 -0.3268 -0.7794 -0.2934
19596TIP3    H180203   5.862   5.278   4.649 -0.1840 -1.4575 -0.7610
19596TIP3    H280204   5.950   5.161   4.688 -1.4495 -1.5526  2.0473
19597TIP3   OH280205   2.664   4.920  13.368  0.7061 -0.3208 -0.4697
19597TIP3    H180206   2.648   4.849  13.431  1.3619  0.2555  0.3663
19597TIP3    H280207   2.725   4.883  13.305  0.0215 -0.9166 -0.7942
19598TIP3   OH280208   3.057   6.539  14.154 -0.0291 -0.5442 -0.7058
19598TIP3    H180209   3.013   6.466  14.198  1.0847 -0.7887  0.0280
19598TIP3    H280210   3.027   6.617  14.201 -1.0800 -0.5264 -1.3760
19599TIP3   OH280211   0.259   3.525   0.707  0.3753 -0.2547 -1.0417
19599TIP3    H180212   0.184   3.564   0.663  1.1936  0.1216 -2.1748
19599TIP3    H280213   0.234   3.434   0.722 -0.0226 -0.3281 -2.0962
19600TIP3   OH280214   4.725   3.470  14.624 -0.0428  0.1706  0.1441
19600TIP3    H180215   4.732   3.484  14.530  0.2985 -0.1729  0.1191
19600TIP3    H280216   4.792   3.528  14.662  0.5420 -0.4775  0.1104
19601TIP3   OH280217   0.021   0.532   5.159 -0.3883  0.4672 -0.5552
19601TIP3    H180218   0.035   0.606   5.100  1.5079 -0.2854 -1.1132
19601TIP3    H280219   0.094   0.536   5.221  0.1026 -1.2805 -0.9768
19602TIP3   OH280220   3.547   4.828   1.041  0.2691  0.2258 -0.1411
19602TIP3    H180221   3.495   4.899   1.078  0.5632 -0.5743  1.9469
19602TIP3    H280222   3.627   4.871   1.008  0.1668  0.9508  0.5188
19603TIP3   OH280223   5.248   6.608  15.783 -0.4600 -0.2986 -0.3188
19603TIP3    H180224   5.306   6.533  15.777 -0.0786 -0.0939  0.5564
19603TIP3    H280225   5.243   6.627  15.877  0.6841  1.6979 -0.5918
19604TIP3   OH280226   3.418   0.929  14.802  0.6428 -0.2497  0.0241
19604TIP3    H180227   3.365   0.998  14.762  0.5338  0.2274  0.9794
19604TIP3    H280228   3.455   0.969  14.881  3.2444 -0.2146 -1.0915
19605TIP3   OH280229   3.529   3.154  14.996 -0.1926 -0.3935 -0.8653
19605TIP3    H180230   3.533   3.061  14.975  0.5360 -0.8395  1.0726
19605TIP3    H280231   3.562   3.160  15.085 -1.8980  1.5193 -0.2987
19606TIP3   OH280232   0.985   0.230  12.630  0.5195 -0.0066  0.0308
19606TIP3    H180233   0.982   0.241  12.725 -1.5568  0.6136 -0.0541
19606TIP3    H280234   0.924   0.158  12.612 -0.1165  0.7442 -0.9179
19607TIP3   OH280235   6.411   0.791  16.975 -0.5496 -0.6663 -0.0202
19607TIP3    H180236   6.399   0.762  16.884  0.4661  1.2145 -0.8026
19607TIP3    H280237   6.322   0.805  17.007 -0.9594 -2.1149 -0.4243
19608TIP3   OH280238   5.628   5.246  13.466  0.1633 -0.1733  0.0251
19608TIP3    H180239   5.568   5.232  13.539  1.0758 -3.0776  0.3428
19608TIP3    H280240   5.715   5.244  13.506  0.6392 -0.7347 -0.9910
19609TIP3   OH280241   5.513   2.730   2.489 -0.0940 -0.4727 -0.0819
19609TIP3    H180242   5.523   2.676   2.567  0.8571 -0.4806 -0.1974
19609TIP3    H280243   5.594   2.781   2.485 -0.5939  0.3052 -0.4730
19610TIP3   OH280244   2.695   4.732   5.141  0.4413  0.2521  0.2230
19610TIP3    H180245   2.723   4.822   5.123 -1.2230  1.0327  1.2936
19610TIP3    H280246   2.638   4.709   5.067 -0.6087  0.7914  0.8393
19611TIP3   OH280247   5.160   4.578   0.387 -0.1034 -0.2065  0.3647
19611TIP3    H180248   5.080   4.626   0.405 -0.8615 -1.6466  1.0274
19611TIP3    H280249   5.167   4.515   0.459  0.9891 -0.8819 -0.3049
19612TIP3   OH280250   2.538   1.630  16.623 -0.2889 -0.0317  0.2618
19612TIP3    H180251   2.549   1.657  16.714 -1.2033  1.5609 -0.0831
19612TIP3    H280252   2.445   1.609  16.615  0.0009 -1.3129 -0.0339
19613TIP3   OH280253   5.718   0.757   0.959 -0.0451  0.4673  0.1296
19613TIP3    H180254   5.812   0.750   0.974  1.1042  1.3312 -4.8192
19613TIP3    H280255   5.702   0.850   0.945 -1.6214  0.2954  0.5500
19614TIP3   OH280256   5.526   3.013  16.360  0.2960  0.6037  0.1123
19614TIP3    H180257   5.481   3.065  16.294 -2.6853 -0.9296  0.7695
19614TIP3    H280258   5.573   2.946  16.310 -0.6188  0.4158 -0.5112
19615TIP3   OH280259   3.831   1.838  13.492 -0.1532 -0.7897 -0.2105
19615TIP3    H180260   3.756   1.786  13.522 -0.4439 -1.0192 -1.2631
19615TIP3    H280261   3.792   1.906  13.437  0.2882  0.1016  0.5682
19616TIP3   OH280262   0.666   2.613   3.050  0.0230  0.0565 -0.1845
19616TIP3    H180263   0.717   2.597   3.129  1.8145 -0.1167 -1.3156
19616TIP3    H280264   0.683   2.705   3.030  0.9618 -0.3205 -1.2501
19617TIP3   OH280265   3.873   4.967   0.015 -0.2022  0.0355  0.0872
19617TIP3    H180266   3.952   4.999  -0.029  0.4274  1.6105  2.1455
19617TIP3    H280267   3.801   4.995  -0.041  0.6172  0.5745 -0.7263
19618TIP3   OH280268   1.543   2.054   5.360  0.2614 -0.2337 -0.3524
19618TIP3    H180269   1.467   2.051   5.418  1.6896 -0.9743  1.5987
19618TIP3    H280270   1.536   2.139   5.315 -0.7782  0.5101  1.1334
19619TIP3   OH280271   6.703   4.796   3.349 -0.1948 -0.2298 -0.0500
19619TIP3    H180272   6.723   4.755   3.265 -0.4080  1.5216 -1.0051
19619TIP3    H280273   6.787   4.806   3.392  0.3938  1.6376 -1.4477
19620TIP3   OH280274   4.249   3.147   2.238  0.0949  0.3131  0.2220
19620TIP3    H180275   4.248   3.214   2.306 -0.3524 -0.2640  0.7975
19620TIP3    H280276   4.173   3.092   2.257 -0.3384  0.4315 -1.0549
19621TIP3   OH280277   6.102   1.210  14.599  0.0394 -0.4380 -0.2187
19621TIP3    H180278   6.065   1.206  14.511  0.6087 -0.8440 -0.4479
19621TIP3    H280279   6.093   1.301  14.625  0.6906 -0.1247 -1.0663
19622TIP3   OH280280   3.154   4.576  10.850  0.6488  0.3175  0.0787
19622TIP3    H180281   3.107   4.554  10.769 -2.0686  2.6226  0.8591
19622TIP3    H280282   3.218   4.506  10.861 -0.6055 -1.4216 -2.7168
19623TIP3   OH280283   1.773   5.725   0.008 -0.3003 -0.0030 -0.0453
19623TIP3    H180284   1.762   5.635   0.040 -0.7895 -0.8450 -2.3627
19623TIP3    H280285   1.864   5.729  -0.019 -0.8982 -0.7774 -2.4446
19624TIP3   OH280286   0.777   3.004   2.800  0.2131 -0.1069 -0.1890
19624TIP3    H180287   0.765   2.998   2.895 -1.8394  0.1684 -0.3991
19624TIP3    H280288   0.757   2.917   2.767  1.6569 -0.4132 -0.3461
19625TIP3   OH280289   4.206   2.735   2.428 -0.0831  0.2799  0.2376
19625TIP3    H180290   4.163   2.814   2.393  0.5998  0.6762  0.2585
19625TIP3    H280291   4.266   2.708   2.358  0.7586  0.6470  0.7967
19626TIP3   OH280292   4.855   3.229  13.779  0.4523 -0.7617 -0.6625
19626TIP3    H180293   4.823   3.139  13.778 -0.9136 -0.3635  1.4990
19626TIP3    H280294   4.950   3.221  13.789  0.3188 -1.9467 -0.2839
19627TIP3   OH280295   1.895   0.990  15.934 -0.0156 -0.1874  0.0842
19627TIP3    H180296   1.918   1.026  15.848  1.6670 -1.2452  0.0437
19627TIP3    H280297   1.961   0.922  15.949 -0.4239 -0.1710  2.1138
19628TIP3   OH280298   6.150   0.095   5.007 -0.1667 -0.4339 -0.2585
19628TIP3    H180299   6.105   0.012   4.998  1.3320 -1.3893  0.5577
19628TIP3    H280300   6.081   0.158   5.030 -1.3125 -1.4380 -0.8677
19629TIP3   OH280301   5.800   1.375  16.401  0.1089 -0.1501 -0.1277
19629TIP3    H180302   5.860   1.435  16.357 -0.9407  0.0281 -1.4206
19629TIP3    H280303   5.835   1.364  16.489  2.4719 -0.7232 -1.0863
19630TIP3   OH280304   5.382   2.015  16.728  0.5368 -0.2101  0.2937
19630TIP3    H180305   5.298   1.970  16.735  1.2971 -1.6703  0.4537
19630TIP3    H280306   5.390   2.063  16.811 -0.1456 -0.0229  0.2578
19631TIP3   OH280307   6.410   3.244  16.861  0.1947  0.0647 -0.0839
19631TIP3    H180308   6.345   3.194  16.810 -1.5616  0.7020  1.4064
19631TIP3    H280309   6.448   3.180  16.921  0.0624 -0.0809 -0.1533
19632TIP3   OH280310   6.074   4.128   5.367 -0.2309  0.2651 -0.2798
19632TIP3    H180311   6.103   4.095   5.452  0.8769  1.3822 -0.1901
19632TIP3    H280312   5.983   4.155   5.380 -0.7055 -1.3586  0.0085
19633TIP3   OH280313   2.009   0.438   3.392 -0.1856  0.1934 -0.3279
19633TIP3    H180314   1.973   0.488   3.319 -0.3915 -0.5368 -0.7429
19633TIP3    H280315   2.098   0.418   3.365  0.5466  1.9090  0.6530
19634TIP3   OH280316   5.416   5.342  11.675  0.3537  0.0042  0.3663
19634TIP3    H180317   5.411   5.388  11.759 -0.2002  0.4495  0.0975
19634TIP3    H280318   5.427   5.412  11.610  4.0908 -0.4674  0.2937
19635TIP3   OH280319   5.889   1.933   5.608 -0.9733  0.1574 -0.6239
19635TIP3    H180320   5.925   2.021   5.618  0.5582 -0.1120 -2.8683
19635TIP3    H280321   5.936   1.879   5.671  1.3271  0.1991 -2.1802
19636TIP3   OH280322   3.128   0.375  10.845  0.5411  0.2850 -0.0261
19636TIP3    H180323   3.162   0.424  10.920  1.6375  0.9971 -0.9578
19636TIP3    H280324   3.189   0.302  10.834 -0.8573 -1.1314  1.1031
19637TIP3   OH280325   1.119   6.017   4.099  0.2112  0.6229  0.2711
19637TIP3    H180326   1.028   6.027   4.128  0.9394  1.5190  2.5346
19637TIP3    H280327   1.118   5.942   4.041 -1.7316 -0.3871  1.4989
19638TIP3   OH280328   4.479   4.648   6.148  0.3163  0.1399  0.4222
19638TIP3    H180329   4.393   4.642   6.105  0.2993 -1.6064  0.6390
19638TIP3    H280330   4.506   4.557   6.160  0.1111  0.4422  4.5175
19639TIP3   OH280331   0.262   1.367  12.017 -0.4056  0.1227  0.5558
19639TIP3    H180332   0.256   1.407  12.104 -1.0291 -0.1434  0.6354
19639TIP3    H280333   0.298   1.280  12.033 -2.7588 -0.8788  0.8550
19640TIP3   OH280334   3.810   4.068   3.393 -0.3575  0.1407  0.4546
19640TIP3    H180335   3.753   3.991   3.392 -0.6599  0.3736 -0.2919
19640TIP3    H280336   3.805   4.100   3.483 -0.0281 -0.8599  0.8369
19641TIP3   OH280337   6.440   6.063   5.397 -0.5531 -0.0369 -0.4839
19641TIP3    H180338   6.421   5.971   5.379 -1.4976  0.0638 -0.0623
19641TIP3    H280339   6.409   6.077   5.487  0.3940  0.4765 -0.2227
19642TIP3   OH280340   4.604   4.622  14.603 -0.2114 -0.4421  0.2219
19642TIP3    H180341   4.540   4.551  14.602 -0.9694  0.1487  1.7708
19642TIP3    H280342   4.687   4.580  14.626 -0.3649 -1.0035 -0.2298
19643TIP3   OH280343   5.910   5.745  12.186 -0.2251  0.6546  0.2343
19643TIP3    H180344   5.895   5.807  12.115 -1.1865  0.9389  0.6773
19643TIP3    H280345   5.990   5.777  12.228 -0.6197  1.5216  0.3587
19644TIP3   OH280346   2.618   4.063   1.515 -0.3248  0.4261 -0.8615
19644TIP3    H180347   2.647   4.000   1.581 -0.0969  0.4138 -0.9714
19644TIP3    H280348   2.598   4.142   1.565 -0.0918  0.4384 -0.7833
19645TIP3   OH280349   3.365   5.385   2.435  0.3124 -0.0744 -0.5734
19645TIP3    H180350   3.272   5.367   2.427  0.1975  1.0127 -2.1931
19645TIP3    H280351   3.372   5.449   2.505  0.0229 -1.1487  0.4778
19646TIP3   OH280352   3.665   3.855  12.687  0.3830  0.2538  0.4393
19646TIP3    H180353   3.603   3.783  12.693  1.7081 -0.9844 -0.0173
19646TIP3    H280354   3.741   3.827  12.738  1.6991  0.4340 -1.2832
19647TIP3   OH280355   5.668   0.132   3.433 -0.6817 -0.2864 -0.1234
19647TIP3    H180356   5.592   0.188   3.415  0.0314  0.7675  0.0523
19647TIP3    H280357   5.701   0.163   3.517 -0.1293 -0.8223 -0.1355
19648TIP3   OH280358   1.649   4.997  14.139  1.0532  0.5257  0.0353
19648TIP3    H180359   1.629   5.059  14.069 -0.6254 -0.0656 -0.0393
19648TIP3    H280360   1.698   4.927  14.095 -3.1581 -1.7631 -1.5226
19649TIP3   OH280361   0.216   0.942   6.168 -0.8467  0.8398  0.1369
19649TIP3    H180362   0.122   0.958   6.156 -0.7649  0.0635 -2.1067
19649TIP3    H280363   0.221   0.853   6.201 -0.8971  0.6771 -0.2864
19650TIP3   OH280364   0.687   5.954  15.062 -0.1724  0.1306 -0.6975
19650TIP3    H180365   0.765   5.909  15.029 -0.9470 -1.7459 -0.0953
19650TIP3    H280366   0.710   5.979  15.151 -0.2710 -0.5157 -0.4837
19651TIP3   OH280367   4.610   3.148  14.676 -0.0806 -0.1013 -0.4459
19651TIP3    H180368   4.546   3.188  14.735  0.2982  0.1422 -0.2000
19651TIP3    H280369   4.633   3.217  14.615 -0.3848 -0.3204 -0.8171
19652TIP3   OH280370   5.592   1.492   4.422  0.2149  0.4303  0.3335
19652TIP3    H180371   5.669   1.441   4.446  0.3673  0.8845  0.8355
19652TIP3    H280372   5.518   1.435   4.440  0.4595 -0.5700 -1.5366
19653TIP3   OH280373   3.022   1.727   0.849  0.0375 -0.0477  0.3468
19653TIP3    H180374   2.978   1.674   0.782  0.1642 -1.0646  1.0507
19653TIP3    H280375   3.078   1.665   0.896  1.6655  1.0634 -0.0329
19654TIP3   OH280376   4.866   2.068  12.478 -0.2800  0.7515 -0.2728
19654TIP3    H180377   4.811   2.015  12.420  0.2204  0.1675 -0.2160
19654TIP3    H280378   4.902   2.136  12.420  0.9288 -0.3536 -0.8693
19655TIP3   OH280379   1.532   3.469  13.337 -0.0396 -0.0299 -0.4628
19655TIP3    H180380   1.500   3.416  13.410  0.2014  1.5083  0.8065
19655TIP3    H280381   1.611   3.510  13.370  0.8416 -0.3458 -2.0750
19656TIP3   OH280382   1.196   0.788  16.511 -0.4732  0.1934 -0.3746
19656TIP3    H180383   1.227   0.817  16.597 -1.4031 -0.6854  0.2887
19656TIP3    H280384   1.104   0.764  16.526 -0.4535 -0.6184 -1.4519
19657TIP3   OH280385   1.835   0.808  16.149  0.1709 -0.4488 -0.5748
19657TIP3    H180386   1.788   0.774  16.073  0.2978  0.7280 -1.2130
19657TIP3    H280387   1.864   0.895  16.122 -1.5125  0.8614  1.5031
19658TIP3   OH280388   6.569   3.861   5.134 -0.3140 -0.3989  0.6770
19658TIP3    H180389   6.481   3.897   5.125  0.4157  1.1444 -0.7392
19658TIP3    H280390   6.627   3.934   5.115  1.2765 -1.6707  0.4312
19659TIP3   OH280391   2.239   6.165   4.894 -0.3937  0.4362 -0.2704
19659TIP3    H180392   2.214   6.256   4.874  0.8120  1.0603  0.9250
19659TIP3    H280393   2.335   6.167   4.898 -0.3784 -0.7838  0.3061
19660TIP3   OH280394   1.467   2.064  15.718 -0.4146 -0.4521  0.4945
19660TIP3    H180395   1.398   2.001  15.695 -1.5356  1.3368 -1.4028
19660TIP3    H280396   1.427   2.120  15.784 -0.7218  0.3791 -0.3648
19661TIP3   OH280397   3.476   5.055   2.442 -0.1230  0.4290  0.1120
19661TIP3    H180398   3.453   4.982   2.500  1.4746  0.4658  0.8275
19661TIP3    H280399   3.450   5.133   2.491  3.7044  0.6490  2.1934
19662TIP3   OH280400   0.900   1.486   5.378 -0.0508 -0.1863  0.2516
19662TIP3    H180401   0.879   1.569   5.335  0.5700  0.0668  0.4249
19662TIP3    H280402   0.995   1.476   5.366 -0.2291 -1.2558 -0.4403
19663TIP3   OH280403   4.774   2.995   2.804 -0.6428  0.2078 -0.2265
19663TIP3    H180404   4.694   3.016   2.852  0.3874 -0.1482  1.7562
19663TIP3    H280405   4.747   2.929   2.740 -1.8463 -0.2789  0.7378
19664TIP3   OH280406   0.906   2.363   2.414 -0.4157 -0.2379  0.0903
19664TIP3    H180407   0.994   2.402   2.407 -0.0168 -1.2162 -0.4880
19664TIP3    H280408   0.872   2.367   2.325 -0.7285 -0.3981  0.2048
19665TIP3   OH280409   3.782   6.092  16.811  0.8967  0.6713  0.0281
19665TIP3    H180410   3.772   5.999  16.792 -0.7299  0.7175  0.5022
19665TIP3    H280411   3.874   6.111  16.792  0.5003 -0.2081 -3.5367
19666TIP3   OH280412   1.748   1.106  13.823  0.1408 -0.5258 -0.6616
19666TIP3    H180413   1.807   1.065  13.759  2.5423 -1.2781  1.8665
19666TIP3    H280414   1.707   1.032  13.868  0.9416 -0.1203  0.7853
19667TIP3   OH280415   2.207   5.112  16.124  0.2317  0.1463 -0.1712
19667TIP3    H180416   2.220   5.147  16.213  1.7318  1.0209 -0.7042
19667TIP3    H280417   2.295   5.109  16.086 -0.3793 -0.2817 -1.6157
19668TIP3   OH280418   6.482   1.693   3.060  0.9163 -0.5023  0.0194
19668TIP3    H180419   6.448   1.700   2.971  2.1419 -1.4924 -0.5651
19668TIP3    H280420   6.404   1.685   3.115  0.1482  0.0225 -0.9653
19669TIP3   OH280421   4.888   2.382  15.602 -0.1315 -0.1176 -0.0868
19669TIP3    H180422   4.830   2.442  15.650  1.3755 -0.6876  2.6146
19669TIP3    H280423   4.973   2.426  15.602  0.7643 -1.7710  1.0884
19670TIP3   OH280424   6.344   4.880  16.928  0.4036 -0.4180  0.2249
19670TIP3    H180425   6.301   4.876  16.843  2.2176 -0.6109 -0.7261
19670TIP3    H280426   6.301   4.952  16.973 -1.2354 -0.9203 -0.4615
19671TIP3   OH280427   6.536   4.879   4.861  0.7334  0.0111 -0.7470
19671TIP3    H180428   6.589   4.904   4.936  0.4502  1.8583 -1.1214
19671TIP3    H280429   6.561   4.788   4.843  1.6641 -0.0768  0.8242
19672TIP3   OH280430   2.844   4.214  11.215 -0.0741  0.3554  0.4746
19672TIP3    H180431   2.859   4.277  11.285 -1.5210 -2.1721  3.2853
19672TIP3    H280432   2.761   4.242  11.175  0.6070  1.6504 -0.0851
19673TIP3   OH280433   5.157   1.988  13.547 -0.4364  0.7856 -0.3057
19673TIP3    H180434   5.094   1.917  13.557  1.0139 -0.5429 -0.2504
19673TIP3    H280435   5.200   1.996  13.632  2.0987 -0.9733 -1.3097
19674TIP3   OH280436   3.465   6.349  12.103 -0.7828 -0.0105  0.6482
19674TIP3    H180437   3.493   6.426  12.153  2.4280  1.0044 -2.2683
19674TIP3    H280438   3.486   6.275  12.159  0.8799  1.1123  1.6154
19675TIP3   OH280439   5.078   0.272  16.229 -0.1775  0.5493  0.9780
19675TIP3    H180440   5.062   0.219  16.307  0.8599  0.2178  0.9832
19675TIP3    H280441   5.067   0.212  16.156  4.0682 -0.6564  1.0599
19676TIP3   OH280442   3.052   4.829  11.523 -0.2632  0.0104  0.1620
19676TIP3    H180443   3.096   4.885  11.587  0.7838 -1.4489  0.7744
19676TIP3    H280444   3.018   4.756  11.575 -0.2554 -0.7029 -0.8000
19677TIP3   OH280445   0.621   4.128  12.454 -0.0562  0.3447 -0.1010
19677TIP3    H180446   0.637   4.060  12.518  1.0984 -0.8842 -1.6127
19677TIP3    H280447   0.536   4.165  12.478  0.7896  0.6752  2.6992
19678TIP3   OH280448   1.149   5.685   1.625 -0.0465 -0.5989  0.3088
19678TIP3    H180449   1.122   5.703   1.535  1.8521  1.4335  0.0718
19678TIP3    H280450   1.232   5.638   1.617 -1.2707 -3.0880  1.0559
19679TIP3   OH280451   0.650   5.040   5.815 -1.2733 -0.2225 -0.0669
19679TIP3    H180452   0.668   5.131   5.835 -3.8549  0.6615 -1.3763
19679TIP3    H280453   0.715   5.017   5.748  0.0025  0.3142  0.9459
19680TIP3   OH280454   0.116   5.352   5.210  0.2191 -0.1937 -0.4100
19680TIP3    H180455   0.134   5.445   5.202 -0.9056  0.0386 -0.4608
19680TIP3    H280456   0.101   5.322   5.121  1.9960 -0.7521 -0.5503
19681TIP3   OH280457   4.997   2.509   3.536 -0.2598 -0.4988  0.2211
19681TIP3    H180458   5.039   2.594   3.526 -1.4454 -0.0599 -1.3305
19681TIP3    H280459   5.019   2.462   3.455 -1.5446 -0.7807  0.0232
19682TIP3   OH280460   2.867   2.759   1.081  0.3257  0.1568  0.3993
19682TIP3    H180461   2.820   2.688   1.038  0.7217  0.7292 -1.0431
19682TIP3    H280462   2.851   2.745   1.175 -1.3136 -0.6220  0.0509
19683TIP3   OH280463   6.118   1.216  13.414 -0.3942  0.1310 -0.0732
19683TIP3    H180464   6.195   1.266  13.387  0.1679 -1.2764 -1.1908
19683TIP3    H280465   6.143   1.125  13.403 -1.6871 -0.3983  1.0901
19684TIP3   OH280466   1.538   2.158   2.187  0.3235 -0.4349  0.3508
19684TIP3    H180467   1.594   2.093   2.144  0.9131 -0.8517  1.7025
19684TIP3    H280468   1.583   2.179   2.268 -0.1148  1.3107  0.1846
19685TIP3   OH280469   3.077   6.258   4.553  0.1583  0.1067  0.3541
19685TIP3    H180470   3.024   6.227   4.626 -0.8433 -1.1137 -0.8380
19685TIP3    H280471   3.104   6.178   4.507 -0.0049  0.8687 -1.1288
19686TIP3   OH280472   1.518   5.777  14.554 -0.4121 -0.0713 -0.5444
19686TIP3    H180473   1.442   5.759  14.499 -0.7210  0.1118 -0.1830
19686TIP3    H280474   1.481   5.795  14.641  0.1212 -1.3122 -0.0403
19687TIP3   OH280475   2.562   1.080   4.607  0.1181 -0.5029  0.1520
19687TIP3    H180476   2.573   1.056   4.699 -0.6051 -0.9169  0.1350
19687TIP3    H280477   2.526   1.168   4.610 -0.2179 -0.6430  0.2724
19688TIP3   OH280478   3.947   6.176   2.885  0.4564 -0.0184  0.0157
19688TIP3    H180479   3.950   6.271   2.872 -1.0935  0.0323 -0.1438
19688TIP3    H280480   3.955   6.164   2.979 -0.2730  0.3495  0.1362
19689TIP3   OH280481   4.075   2.109   2.884  0.0567  0.0575  0.0222
19689TIP3    H180482   4.011   2.179   2.896  1.7998  1.3747  2.3568
19689TIP3    H280483   4.158   2.154   2.869  1.0060 -1.5308  0.2643
19690TIP3   OH280484   4.558   6.523  12.521 -0.0879 -0.5748 -0.1326
19690TIP3    H180485   4.621   6.473  12.469 -0.2228  1.3021 -2.2547
19690TIP3    H280486   4.514   6.579  12.458 -2.5070 -0.3796  1.6036
19691TIP3   OH280487   5.648   0.243   2.671 -0.1072  0.0952  0.4650
19691TIP3    H180488   5.614   0.303   2.605  0.3074  1.4466  1.4290
19691TIP3    H280489   5.643   0.293   2.753  2.9341 -0.0899  0.8760
19692TIP3   OH280490   2.524   6.218   4.909  0.1006  0.5559 -0.0592
19692TIP3    H180491   2.580   6.141   4.912 -0.4810  0.0951 -0.7000
19692TIP3    H280492   2.545   6.261   4.826  0.0558  0.8010  0.0546
19693TIP3   OH280493   0.053   4.248  11.321  0.3072 -0.3604  0.3583
19693TIP3    H180494   0.016   4.317  11.266 -0.3140  0.4983  1.7917
19693TIP3    H280495   0.141   4.232  11.285  0.4181  1.1085 -0.0724
19694TIP3   OH280496   2.336   1.424  16.612 -0.3007 -0.0827  0.4983
19694TIP3    H180497   2.352   1.406  16.704 -0.5895 -0.7240  0.4321
19694TIP3    H280498   2.357   1.341  16.568 -0.5306  0.1010  0.0328
19695TIP3   OH280499   6.140   0.513   0.927 -0.0812  0.1668 -0.1976
19695TIP3    H180500   6.129   0.433   0.979 -1.8303  0.7227  0.3453
19695TIP3    H280501   6.170   0.482   0.841 -1.0141 -1.1015 -0.0847
19696TIP3   OH280502   5.173   4.125   0.694  0.2800  0.3649  0.2557
19696TIP3    H180503   5.256   4.162   0.666 -1.1091  1.9315 -2.0557
19696TIP3    H280504   5.161   4.048   0.639 -0.1758  0.6201 -0.0061
19697TIP3   OH280505   2.253   5.138   3.501 -0.0411 -0.1696 -0.2450
19697TIP3    H180506   2.218   5.187   3.427 -0.4736 -1.8809 -1.2464
19697TIP3    H280507   2.177   5.089   3.535  0.4126 -0.3366  0.5577
19698TIP3   OH280508   1.540   5.073   4.165 -0.1057  0.1878  0.3012
19698TIP3    H180509   1.631   5.100   4.148  0.2327 -0.9187  0.3074
19698TIP3    H280510   1.529   4.993   4.115 -0.8669 -0.0621  0.8510
19699TIP3   OH280511   2.597   3.168   5.502 -0.0073 -0.2330 -0.1067
19699TIP3    H180512   2.671   3.122   5.462  0.2887  1.7207 -1.9921
19699TIP3    H280513   2.610   3.157   5.596  1.9038 -1.0861 -0.4218
19700TIP3   OH280514   1.896   0.682   0.815  0.3403  0.2936  0.9011
19700TIP3    H180515   1.932   0.714   0.898  0.7893  0.8669  0.4921
19700TIP3    H280516   1.963   0.622   0.781 -0.1921 -0.5682  1.3248
19701TIP3   OH280517   1.257   3.511  16.062  0.1681 -0.8005  0.5471
19701TIP3    H180518   1.204   3.527  15.984 -0.8545 -1.3434  1.0953
19701TIP3    H280519   1.343   3.544  16.041  0.0858 -1.5247 -1.0511
19702TIP3   OH280520   1.948   2.088  12.507  0.0310 -1.2424 -0.3327
19702TIP3    H180521   1.891   2.127  12.573 -0.7996  0.9246 -2.1982
19702TIP3    H280522   1.899   2.012  12.476 -0.9507 -0.5795 -0.4706
19703TIP3   OH280523   6.477   0.078  13.238  0.7713  0.1718 -0.1530
19703TIP3    H180524   6.568   0.105  13.229  1.3513 -1.5070  0.1843
19703TIP3    H280525   6.476  -0.011  13.201 -0.4002 -0.3911  1.1598
19704TIP3   OH280526   0.867   3.587   5.443 -0.5353 -0.4435 -0.1072
19704TIP3    H180527   0.831   3.541   5.519 -1.8599 -0.2121 -0.5739
19704TIP3    H280528   0.871   3.521   5.374  0.7049 -0.6624  0.1495
19705TIP3   OH280529   0.271   5.959   2.953  0.1384 -0.6059  0.1946
19705TIP3    H180530   0.209   5.887   2.941 -0.2352 -0.6473  2.1000
19705TIP3    H280531   0.345   5.919   2.999  0.2324  0.0801  0.6456
19706TIP3   OH280532   0.805   2.315  11.093  0.4637 -0.0672 -0.1966
19706TIP3    H180533   0.791   2.405  11.065  0.4912 -0.4051 -1.3536
19706TIP3    H280534   0.870   2.280  11.031 -0.4558 -1.2391 -0.5513
19707TIP3   OH280535   2.844   6.253   6.404  0.7957  0.2570 -0.6668
19707TIP3    H180536   2.815   6.319   6.341 -0.0396  1.0793  0.5510
19707TIP3    H280537   2.764   6.207   6.430  1.3181 -1.0416 -1.2432
19708TIP3   OH280538   4.085   6.242  16.573 -0.0610 -0.1866 -0.0382
19708TIP3    H180539   4.137   6.295  16.633 -2.7723  2.8221 -0.1273
19708TIP3    H280540   4.067   6.161  16.622  3.8390 -1.0771  0.2534
19709TIP3   OH280541   2.944   0.126   3.187 -0.2387  0.0284  0.2434
19709TIP3    H180542   2.910   0.038   3.201  0.1720  0.2536  3.1707
19709TIP3    H280543   2.888   0.182   3.241  1.7453  1.0414  1.3569
19710TIP3   OH280544   2.896   5.760  12.040 -0.0821  0.1589 -0.0803
19710TIP3    H180545   2.951   5.785  11.966 -0.3744  0.9285 -0.0406
19710TIP3    H280546   2.958   5.743  12.111  0.1071  1.4726  0.1001
19711TIP3   OH280547   3.928   4.475   4.059 -0.0399  0.0373  0.3704
19711TIP3    H180548   3.942   4.567   4.040  1.0450  0.0900  1.3164
19711TIP3    H280549   3.877   4.442   3.985  0.4760  1.1468 -0.4942
19712TIP3   OH280550   1.003   1.366  13.394  0.6096  0.2209  0.2547
19712TIP3    H180551   0.936   1.386  13.329  1.8188 -1.1812 -1.5281
19712TIP3    H280552   1.028   1.452  13.430 -0.2006  1.0382 -1.0401
19713TIP3   OH280553   3.450   3.397   0.540 -0.7222  0.4898  0.1249
19713TIP3    H180554   3.515   3.369   0.604 -0.6265  0.0500 -0.1643
19713TIP3    H280555   3.387   3.325   0.535 -0.0324 -0.0425 -1.2153
19714TIP3   OH280556   0.555   1.221   2.310  0.4359 -0.4345  0.0926
19714TIP3    H180557   0.482   1.253   2.257 -0.5866 -4.0489 -0.9030
19714TIP3    H280558   0.633   1.242   2.258 -0.2413 -0.4272 -0.9467
19715TIP3   OH280559   2.951   6.385   4.996 -0.3832  0.2554 -0.0828
19715TIP3    H180560   2.977   6.333   5.073 -1.8131  0.6271  0.6946
19715TIP3    H280561   2.874   6.433   5.025 -0.3572  1.1843 -1.4660
19716TIP3   OH280562   6.225   3.775   1.770  0.1972  0.4042  0.2977
19716TIP3    H180563   6.206   3.720   1.694 -0.8114 -1.6548  1.9499
19716TIP3    H280564   6.144   3.823   1.786  0.2022  0.3434  0.4978
19717TIP3   OH280565   0.152   6.699  11.633  0.4056  0.1140 -0.2199
19717TIP3    H180566   0.247   6.699  11.645  0.6739 -1.4896 -1.8552
19717TIP3    H280567   0.140   6.698  11.538 -1.2219 -0.6028 -0.0378
19718TIP3   OH280568   3.450   3.117  12.273 -0.0384  0.1357 -0.1168
19718TIP3    H180569   3.393   3.051  12.232 -0.1489 -3.5048  4.8779
19718TIP3    H280570   3.539   3.090  12.250 -0.1582 -0.1811 -0.2113
19719TIP3   OH280571   3.131   0.848  14.722 -0.9234 -0.2578  0.2084
19719TIP3    H180572   3.112   0.770  14.669 -0.8522 -0.3387  0.3015
19719TIP3    H280573   3.227   0.851  14.726 -0.8992 -1.7187  2.4740
19720TIP3   OH280574   4.844   5.497   4.076 -0.0528 -0.2379  0.0307
19720TIP3    H180575   4.811   5.517   4.164 -1.3898 -2.2785  0.0521
19720TIP3    H280576   4.939   5.487   4.089 -0.2939 -1.1010  1.3995
19721TIP3   OH280577   5.822   2.631   0.094  0.4119 -0.2313  0.5475
19721TIP3    H180578   5.858   2.698   0.036  0.7936 -0.7359  0.1881
19721TIP3    H280579   5.879   2.632   0.171 -1.3241  1.9027  1.9164
19722TIP3   OH280580   3.322   6.403  15.549  0.0505 -0.1969  0.3778
19722TIP3    H180581   3.409   6.396  15.510 -0.2804 -0.7940 -0.2932
19722TIP3    H280582   3.270   6.448  15.482 -0.4414 -0.9275  0.2433
19723TIP3   OH280583   0.547   3.946   1.398  0.1011 -0.6135 -0.0975
19723TIP3    H180584   0.606   3.992   1.457 -0.0379 -0.9018  0.2691
19723TIP3    H280585   0.460   3.959   1.437 -0.1756  0.3765 -0.9873
19724TIP3   OH280586   2.429   5.424  12.461  0.5059 -0.5053  0.3867
19724TIP3    H180587   2.488   5.481  12.412 -2.1445  1.2165 -1.0279
19724TIP3    H280588   2.438   5.338  12.420  2.5987 -0.5398  0.8005
19725TIP3   OH280589   2.789   5.220   0.789  0.0467  0.0589 -0.2082
19725TIP3    H180590   2.718   5.240   0.728 -0.6145  1.4978  0.9801
19725TIP3    H280591   2.863   5.197   0.733 -0.5834  1.1957 -1.5577
19726TIP3   OH280592   3.576   0.421  13.919 -0.4991  0.2693  0.1156
19726TIP3    H180593   3.654   0.432  13.973  0.2663 -0.5027 -0.7895
19726TIP3    H280594   3.503   0.421  13.981  0.3277 -0.3079  1.1169
19727TIP3   OH280595   1.458   1.963   0.841  0.2308 -0.3581  0.1751
19727TIP3    H180596   1.437   1.877   0.877 -0.4057 -0.3379 -0.1346
19727TIP3    H280597   1.418   2.025   0.902 -1.3490 -0.3305 -0.8110
19728TIP3   OH280598   3.985   3.541   2.148 -0.2993 -0.2127  0.5146
19728TIP3    H180599   3.998   3.620   2.095  0.7387 -0.3925  0.4800
19728TIP3    H280600   3.891   3.536   2.160 -0.3861  1.0460  0.5241
19729TIP3   OH280601   3.428   4.266   0.772 -0.4624  0.1141  0.1446
19729TIP3    H180602   3.439   4.352   0.813 -0.2221 -0.4828  1.3800
19729TIP3    H280603   3.431   4.204   0.845 -2.0893 -0.8491 -0.5403
19730TIP3   OH280604   3.972   0.503   4.214 -0.3351  0.4097 -0.0843
19730TIP3    H180605   3.915   0.485   4.139 -0.9569  0.1774  0.4291
19730TIP3    H280606   3.950   0.435   4.278 -2.4458  2.6215  1.7530
19731TIP3   OH280607   3.219   3.319   1.487  0.3439  0.1245  0.3730
19731TIP3    H180608   3.247   3.296   1.398 -0.8604 -0.6837  0.1754
19731TIP3    H280609   3.240   3.241   1.540 -1.0784 -0.3421  0.2962
19732TIP3   OH280610   5.449   6.210   3.245  0.0914  0.0362 -0.2121
19732TIP3    H180611   5.386   6.144   3.274 -1.5885  1.4827 -0.4539
19732TIP3    H280612   5.515   6.211   3.314 -0.9972 -0.3835  0.8709
19733TIP3   OH280613   5.364   4.171  12.422  0.2633  0.1813  0.2764
19733TIP3    H180614   5.349   4.104  12.489  1.7118  0.0495  0.5049
19733TIP3    H280615   5.407   4.243  12.470  0.8455  0.2936 -0.4001
19734TIP3   OH280616   1.190   5.276   1.963 -1.0410 -0.1191 -0.0101
19734TIP3    H180617   1.153   5.228   2.036 -0.7712  0.5134  0.5542
19734TIP3    H280618   1.163   5.367   1.977 -0.1144  0.1877 -0.1133
19735TIP3   OH280619   5.214   4.884  14.914  0.1396 -0.1136 -0.3879
19735TIP3    H180620   5.164   4.841  14.984  1.3835 -0.5185  0.2891
19735TIP3    H280621   5.305   4.863  14.934  0.6322  1.1079 -1.2493
19736TIP3   OH280622   2.663   4.991  15.324  0.1042  0.9900  0.1494
19736TIP3    H180623   2.696   4.920  15.270  4.4384  1.3702  1.9224
19736TIP3    H280624   2.665   5.068  15.267  0.7914  0.6711 -0.2651
19737TIP3   OH280625   4.002   3.262   2.053  0.3857  0.2367  0.5304
19737TIP3    H180626   4.094   3.247   2.034  0.4634  1.4187 -0.1519
19737TIP3    H280627   4.002   3.326   2.124  0.1080  0.6537  0.1658
19738TIP3   OH280628   0.434   6.282   2.173  0.3603  0.2086 -0.1954
19738TIP3    H180629   0.484   6.256   2.095 -0.9945  1.2706 -1.4936
19738TIP3    H280630   0.473   6.365   2.200  0.8132 -0.1463  0.2425
19739TIP3   OH280631   0.793   0.973   5.933 -0.1989  0.1706 -0.2690
19739TIP3    H180632   0.876   0.945   5.893 -0.2557  0.7649 -0.8193
19739TIP3    H280633   0.815   1.054   5.980  0.2658 -1.4331  2.4591
19740TIP3   OH280634   2.813   1.452  15.862 -0.3937  0.0102  0.0676
19740TIP3    H180635   2.893   1.468  15.912 -0.3839  0.3083 -0.0419
19740TIP3    H280636   2.796   1.534  15.816  0.5966 -0.7761 -1.8327
19741TIP3   OH280637   0.424   4.983  14.131 -0.3324  0.2592  0.3941
19741TIP3    H180638   0.404   5.076  14.145  1.1211  0.3237  2.5968
19741TIP3    H280639   0.431   4.974  14.036 -2.3001  1.9658  0.0102
19742TIP3   OH280640   1.019   2.489   4.941 -0.2138  0.4847 -0.0552
19742TIP3    H180641   0.971   2.454   4.866  0.9593  1.4113 -1.2944
19742TIP3    H280642   1.079   2.419   4.966  1.1402  0.9928 -1.6331
19743TIP3   OH280643   6.447   6.337  14.028  0.3349 -0.3637  0.4028
19743TIP3    H180644   6.522   6.281  14.007  0.1909 -0.5675  0.4278
19743TIP3    H280645   6.483   6.402  14.089  0.3692 -0.7971  0.8541
19744TIP3   OH280646   5.785   3.611   1.217  0.3807 -0.3281 -0.4529
19744TIP3    H180647   5.851   3.654   1.163  1.9134 -0.5924  1.1006
19744TIP3    H280648   5.798   3.647   1.305  0.5383 -2.6059  0.5363
19745TIP3   OH280649   5.280   3.496   0.247  0.2198  0.3149  0.3104
19745TIP3    H180650   5.249   3.445   0.172 -0.8869 -0.9214  1.5365
19745TIP3    H280651   5.205   3.550   0.272 -0.1119 -0.7142  1.6674
19746TIP3   OH280652   1.523   0.023  12.042  0.6579  0.0736 -0.2867
19746TIP3    H180653   1.456  -0.029  12.087 -0.1512 -0.8853 -2.4395
19746TIP3    H280654   1.487   0.111  12.040  0.1276 -0.1335 -0.1492
19747TIP3   OH280655   4.629   3.395   3.166  0.8211 -0.8102  0.3023
19747TIP3    H180656   4.540   3.360   3.153  0.2734 -0.6078  3.0016
19747TIP3    H280657   4.669   3.389   3.079 -1.7378 -1.1310 -0.9693
19748TIP3   OH280658   6.617   1.351  10.548  0.1788  0.4693  0.2551
19748TIP3    H180659   6.566   1.301  10.612  2.5558 -0.6532  1.3821
19748TIP3    H280660   6.660   1.284  10.495 -0.2248  1.3935 -1.2865
19749TIP3   OH280661   2.467   4.838  14.473  0.3324  0.3629  0.3329
19749TIP3    H180662   2.483   4.881  14.389 -0.9048  0.6975  0.2484
19749TIP3    H280663   2.489   4.746  14.457 -1.0229  0.1834 -0.7510
19750TIP3   OH280664   0.929   0.447   3.473  0.4311 -0.0220  0.0962
19750TIP3    H180665   1.019   0.465   3.446  0.6677  0.3031  1.0531
19750TIP3    H280666   0.915   0.503   3.549 -0.1464 -1.0017  0.7436
19751TIP3   OH280667   2.803   6.159   3.224 -0.1989 -0.0976  0.1412
19751TIP3    H180668   2.735   6.151   3.291 -0.4150 -0.4258 -0.1124
19751TIP3    H280669   2.877   6.111   3.259 -0.5611 -0.9057 -0.1715
19752TIP3   OH280670   5.737   3.435  13.316  0.0331 -0.0147  0.7770
19752TIP3    H180671   5.816   3.477  13.351  0.0331  0.5452  0.1248
19752TIP3    H280672   5.677   3.507  13.297  0.0480 -0.2936 -0.4051
19753TIP3   OH280673   0.242   5.020   4.042 -0.4999  0.5194 -0.5939
19753TIP3    H180674   0.246   4.925   4.055  0.0020  0.8173  1.8883
19753TIP3    H280675   0.166   5.033   3.985 -0.1848 -1.3934 -1.5509
19754TIP3   OH280676   4.646   3.218   5.666 -0.2906  0.1907 -0.4836
19754TIP3    H180677   4.648   3.227   5.761  1.4765  5.4309 -0.7218
19754TIP3    H280678   4.589   3.288   5.636  0.5761 -0.2030 -3.3585
19755TIP3   OH280679   3.452   4.773  16.351  0.5581  0.0008  0.3331
19755TIP3    H180680   3.403   4.692  16.365  1.0404 -0.1571  1.1489
19755TIP3    H280681   3.529   4.745  16.301 -0.0523  0.2134 -0.7524
19756TIP3   OH280682   5.340   2.116  15.179  1.1322 -0.8661  0.4641
19756TIP3    H180683   5.283   2.098  15.254 -1.5072 -0.5920 -1.3612
19756TIP3    H280684   5.382   2.199  15.200 -2.2820  1.0870  0.2513
19757TIP3   OH280685   6.756   6.209   4.807  0.3322 -0.0850 -0.6664
19757TIP3    H180686   6.800   6.293   4.815  0.3878 -0.2697  1.6558
19757TIP3    H280687   6.662   6.231   4.803  0.4045  0.1288 -1.2054
19758TIP3   OH280688   6.405   1.157  11.033 -0.0757  0.5564 -0.3818
19758TIP3    H180689   6.350   1.119  10.965 -1.3292  0.7728  0.4679
19758TIP3    H280690   6.414   1.088  11.098  0.4239  0.6201 -0.3802
19759TIP3   OH280691   4.836   6.547  12.944 -0.2912 -0.1492 -0.3873
19759TIP3    H180692   4.833   6.455  12.972  0.1535  0.1581  0.7499
19759TIP3    H280693   4.834   6.597  13.026  1.4027  0.8078 -0.8778
19760TIP3   OH280694   0.948   4.404  12.733  0.2899  0.1531  0.0910
19760TIP3    H180695   1.026   4.361  12.768 -0.4110 -0.9851  0.3312
19760TIP3    H280696   0.875   4.349  12.763 -0.6128  1.2075 -0.0847
19761TIP3   OH280697   0.507   5.243   3.339  0.7526 -0.4934 -0.8476
19761TIP3    H180698   0.570   5.220   3.407  0.6331  1.8207  0.1375
19761TIP3    H280699   0.508   5.338   3.337 -2.6653 -0.3314 -0.8026
19762TIP3   OH280700   4.448   4.873   4.612 -0.3636 -0.2161 -0.1464
19762TIP3    H180701   4.445   4.782   4.583 -0.4595 -1.0076  2.1689
19762TIP3    H280702   4.366   4.887   4.658 -0.3636  1.0687 -0.4897
19763TIP3   OH280703   3.539   6.563  10.982 -0.0438  0.0144  0.2385
19763TIP3    H180704   3.567   6.604  10.900  3.0072  2.5836  2.3139
19763TIP3    H280705   3.609   6.501  11.003 -0.2618  0.1317  1.3705
19764TIP3   OH280706   5.886   0.219   5.720 -0.5340 -0.2831 -0.1686
19764TIP3    H180707   5.963   0.186   5.765 -0.9856 -1.4140 -0.1844
19764TIP3    H280708   5.813   0.174   5.761 -1.1027 -0.0177 -0.8623
19765TIP3   OH280709   1.318   0.725   0.266  0.3825  0.3846  0.8417
19765TIP3    H180710   1.370   0.663   0.317  0.9366  0.6954  0.6628
19765TIP3    H280711   1.341   0.811   0.301 -0.6206  0.4707  1.3005
19766TIP3   OH280712   6.788   5.149   2.659  0.1960 -0.1962  0.6368
19766TIP3    H180713   6.805   5.057   2.637  0.6972 -0.3808  1.6943
19766TIP3    H280714   6.692   5.157   2.654  0.0799 -0.9831  1.2398
19767TIP3   OH280715   4.370   3.498   0.096 -0.4686  0.5013 -0.6237
19767TIP3    H180716   4.339   3.475   0.184 -1.3896 -1.8878 -1.4923
19767TIP3    H280717   4.410   3.584   0.107  0.1553 -0.0439  2.2902
19768TIP3   OH280718   5.480   6.483  14.056  0.3900  0.0080 -0.2108
19768TIP3    H180719   5.536   6.559  14.073 -0.7996  0.7724  0.4612
19768TIP3    H280720   5.391   6.516  14.066 -0.1562 -1.6884  0.9822
19769TIP3   OH280721   5.763   6.313  16.566 -0.2772  0.2792 -0.3366
19769TIP3    H180722   5.793   6.289  16.654  1.4882  0.6232 -0.8089
19769TIP3    H280723   5.729   6.402  16.576  1.1798  0.8536 -0.2274
19770TIP3   OH280724   0.321   0.899   3.221 -0.0795 -0.4668 -0.4255
19770TIP3    H180725   0.405   0.916   3.178 -0.2596 -1.2654 -1.1235
19770TIP3    H280726   0.319   0.804   3.233  0.3787 -0.2145  2.2468
19771TIP3   OH280727   6.186   2.501  15.646 -0.5120  0.5877  0.3488
19771TIP3    H180728   6.170   2.595  15.659 -2.3094  0.3096  0.4492
19771TIP3    H280729   6.268   2.497  15.597  2.0481  2.0326  4.0938
19772TIP3   OH280730   0.810   5.705  12.565 -0.0636 -0.0237 -0.1379
19772TIP3    H180731   0.842   5.616  12.567  1.6143  0.5072 -1.4780
19772TIP3    H280732   0.757   5.713  12.644  0.5614 -1.8936  0.5177
19773TIP3   OH280733   5.084   2.657   4.658  0.2844  0.6480 -0.2877
19773TIP3    H180734   5.122   2.631   4.743  2.7536 -0.8099 -1.7129
19773TIP3    H280735   4.992   2.678   4.678  0.4613 -0.8054  2.5414
19774TIP3   OH280736   2.904   5.617  12.617  0.0833  0.3326  0.0232
19774TIP3    H180737   2.860   5.567  12.686 -0.8576 -1.8295 -2.0057
19774TIP3    H280738   2.997   5.599  12.630 -0.1847 -1.2740 -0.1176
19775TIP3   OH280739   4.921   1.214  14.819  0.9093 -0.0965  0.3594
19775TIP3    H180740   4.909   1.119  14.823 -0.0592 -0.0468 -0.8389
19775TIP3    H280741   5.006   1.226  14.777  1.5803 -0.4188  1.5765
19776TIP3   OH280742   4.211   4.052   1.376  0.1721 -0.3520  0.3397
19776TIP3    H180743   4.165   3.985   1.324  0.1200 -0.8070  0.9536
19776TIP3    H280744   4.143   4.115   1.398 -0.4569 -1.5622  2.1372
19777TIP3   OH280745   1.930   1.773  16.410  0.0187  0.1902 -0.2686
19777TIP3    H180746   2.000   1.716  16.442 -2.2000 -2.9371 -0.4703
19777TIP3    H280747   1.904   1.734  16.327 -1.2530  1.9186 -0.7433
19778TIP3   OH280748   2.114   2.688  15.265  0.2391  0.0289 -0.4972
19778TIP3    H180749   2.194   2.640  15.242  0.1759 -0.1006 -0.4474
19778TIP3    H280750   2.076   2.713  15.180 -0.2737 -0.9094 -0.5653
19779TIP3   OH280751   5.343   6.653  11.534 -0.3236 -0.1950 -0.0141
19779TIP3    H180752   5.413   6.718  11.528  0.2037 -0.8001 -0.4462
19779TIP3    H280753   5.285   6.687  11.603  0.7055  0.0097  0.7757
19780TIP3   OH280754   0.327   1.687  16.449 -0.1287  0.2865  0.6171
19780TIP3    H180755   0.395   1.750  16.474  0.2414 -0.8980  2.8427
19780TIP3    H280756   0.245   1.733  16.462  0.0581  2.1573 -3.2313
19781TIP3   OH280757   4.672   4.944   3.625  0.4054 -0.6199 -0.2524
19781TIP3    H180758   4.748   4.915   3.675  1.4675  0.9517 -0.8612
19781TIP3    H280759   4.646   5.026   3.667  0.8979  0.3714 -1.8233
19782TIP3   OH280760   1.593   4.418  13.890  0.0078  0.6798 -0.0437
19782TIP3    H180761   1.593   4.331  13.932  3.4922  0.2026 -0.7078
19782TIP3    H280762   1.578   4.479  13.962  1.7027 -0.3408  1.2625
19783TIP3   OH280763   0.364   5.793   6.365 -0.0384 -0.1729  0.6273
19783TIP3    H180764   0.329   5.747   6.288 -0.9921 -0.7110  1.3635
19783TIP3    H280765   0.458   5.778   6.361 -0.1518 -0.7688 -0.0744
19784TIP3   OH280766   2.344   2.256  13.520  0.0014  0.1291 -1.0866
19784TIP3    H180767   2.283   2.201  13.569 -1.1492  1.7961 -0.5304
19784TIP3    H280768   2.307   2.260  13.432  0.4510 -0.4961 -1.3104
19785TIP3   OH280769   1.113   5.785   6.175 -0.3290  0.7581  0.2518
19785TIP3    H180770   1.040   5.762   6.232  0.1879  0.8854  0.9652
19785TIP3    H280771   1.082   5.862   6.126 -0.9085  0.4196  0.0741
19786TIP3   OH280772   3.383   3.348  11.607 -0.4297 -0.5094  0.2705
19786TIP3    H180773   3.366   3.318  11.518  0.7614 -1.0679  0.2144
19786TIP3    H280774   3.400   3.442  11.598 -0.0681 -0.6098 -0.1306
19787TIP3   OH280775   6.169   5.485   5.596  0.1139  0.1129  0.4931
19787TIP3    H180776   6.116   5.478   5.517 -0.8958  0.2763  1.1427
19787TIP3    H280777   6.207   5.397   5.608  1.1801  0.3700 -0.7667
19788TIP3   OH280778   3.734   2.062  10.348  0.3005  0.2938  0.3333
19788TIP3    H180779   3.774   2.110  10.420 -0.1695 -0.2005  0.9326
19788TIP3    H280780   3.722   1.973  10.382  2.3308 -0.6402 -1.1420
19789TIP3   OH280781   4.733   5.425  11.029  0.3132 -0.0846  0.0402
19789TIP3    H180782   4.734   5.355  10.963  1.9319 -0.9357  0.9024
19789TIP3    H280783   4.644   5.425  11.062  0.5737 -2.7998  1.0406
19790TIP3   OH280784   3.957   4.832  16.388 -0.4286  0.4346  0.1340
19790TIP3    H180785   4.001   4.866  16.466 -1.5523 -0.8548  1.3956
19790TIP3    H280786   3.864   4.850  16.403 -0.4542  3.2481 -2.5440
19791TIP3   OH280787   3.178   4.654   3.377 -0.3564 -0.3550 -0.1562
19791TIP3    H180788   3.152   4.615   3.294 -1.0185 -1.1341  0.3984
19791TIP3    H280789   3.100   4.701   3.407 -0.7265 -1.5434  0.8528
19792TIP3   OH280790   0.111   5.480   3.838  0.2928  0.4155  0.2241
19792TIP3    H180791   0.181   5.522   3.888  0.0855  0.8556  0.1471
19792TIP3    H280792   0.043   5.547   3.829  0.7246  0.6967 -1.4677
19793TIP3   OH280793   1.096   3.064   3.254  0.4265  0.5764 -0.6037
19793TIP3    H180794   1.062   2.974   3.258  1.8938 -0.0301 -1.1298
19793TIP3    H280795   1.032   3.111   3.201 -0.7761  0.0537  0.3284
19794TIP3   OH280796   4.828   6.515  10.942 -0.0628 -0.5501  0.2562
19794TIP3    H180797   4.794   6.601  10.967 -2.0654 -0.5411 -2.1157
19794TIP3    H280798   4.900   6.534  10.881  0.5968 -0.5781  1.0143
19795TIP3   OH280799   5.461   5.789   1.417  0.2433  0.9099  0.3300
19795TIP3    H180800   5.371   5.797   1.449 -0.8581  0.0077 -2.2050
19795TIP3    H280801   5.489   5.879   1.402 -0.5721  1.1804  0.3587
19796TIP3   OH280802   1.465   4.363  10.834  0.1594 -0.0692  0.1376
19796TIP3    H180803   1.397   4.404  10.781 -0.4573  1.1177  1.7646
19796TIP3    H280804   1.422   4.340  10.916  0.9144 -2.5046 -0.0512
19797TIP3   OH280805   3.159   1.953   1.670  0.1831  0.7786  0.6532
19797TIP3    H180806   3.086   2.015   1.669  0.6566  1.3647  1.2807
19797TIP3    H280807   3.118   1.868   1.660 -0.3672  1.2639 -1.6915
19798TIP3   OH280808   3.087   1.491  15.991  0.6167 -0.2745  0.6333
19798TIP3    H180809   3.158   1.442  16.035  1.6078 -0.1281 -0.7456
19798TIP3    H280810   3.071   1.565  16.049  1.1709 -0.6276  1.2696
19799TIP3   OH280811   1.479   1.169   0.687  0.3003  0.5959 -0.3492
19799TIP3    H180812   1.549   1.234   0.691 -0.5127  1.4702 -0.1094
19799TIP3    H280813   1.486   1.121   0.770  0.6980  0.5743 -0.3897
19800TIP3   OH280814   2.544   3.888  11.399  0.4862  0.0642 -0.0671
19800TIP3    H180815   2.559   3.835  11.478  0.5863 -0.1438 -0.2277
19800TIP3    H280816   2.581   3.974  11.422  0.3415  0.0632  0.1840
19801TIP3   OH280817   2.541   0.660  14.837  0.2720  0.0589  0.0482
19801TIP3    H180818   2.510   0.685  14.924  0.6017  1.8378 -0.2850
19801TIP3    H280819   2.636   0.672  14.841  0.5100 -1.5760 -0.0605
19802TIP3   OH280820   2.351   1.646   1.720  0.0445 -0.1233  0.6643
19802TIP3    H180821   2.439   1.675   1.741 -0.5978  0.3868  2.8479
19802TIP3    H280822   2.358   1.550   1.714  0.8560 -0.0363  0.1359
19803TIP3   OH280823   5.052   6.030  12.931 -0.1565 -0.4702  0.3264
19803TIP3    H180824   5.071   5.937  12.922  1.8265 -0.1958  1.1719
19803TIP3    H280825   5.131   6.074  12.900 -0.9221  0.9156  0.2853
19804TIP3   OH280826   0.180   1.663   1.442 -0.1947  0.3941  0.2531
19804TIP3    H180827   0.104   1.620   1.403  0.9999 -0.6519 -1.0017
19804TIP3    H280828   0.229   1.698   1.368 -0.4779  2.8995  1.1687
19805TIP3   OH280829   1.820   3.868  15.248  0.5914 -0.1283  0.4074
19805TIP3    H180830   1.852   3.782  15.223 -1.8591 -1.1354  0.3852
19805TIP3    H280831   1.735   3.850  15.289  0.6025  2.1883  1.5979
19806TIP3   OH280832   6.766   0.985  14.421 -0.3759  0.4716 -0.0393
19806TIP3    H180833   6.807   0.968  14.336 -2.1290 -0.0653 -0.8210
19806TIP3    H280834   6.738   0.899  14.452 -0.4535  0.7610  0.7171
19807TIP3   OH280835   4.623   6.659  16.679 -0.3318 -0.1778  0.5452
19807TIP3    H180836   4.688   6.718  16.642  0.3497 -1.0066  0.3903
19807TIP3    H280837   4.587   6.706  16.754 -1.7973  1.5764 -1.1624
19808TIP3   OH280838   6.074   2.233   0.654 -0.5138  0.4459  0.4118
19808TIP3    H180839   6.056   2.299   0.721 -0.2117  0.7694  0.1795
19808TIP3    H280840   6.092   2.153   0.704 -0.6855  0.5851  0.7023
19809TIP3   OH280841   6.054   0.772   4.545 -0.0322  0.0093  0.2992
19809TIP3    H180842   5.977   0.792   4.491  0.7577 -1.4124 -1.4605
19809TIP3    H280843   6.128   0.806   4.495  0.6177  0.0754  1.2738
19810TIP3   OH280844   0.044   5.342  15.677 -0.1359  0.1079 -0.1244
19810TIP3    H180845  -0.002   5.275  15.625  0.2660  0.9349 -1.5977
19810TIP3    H280846   0.074   5.406  15.612  2.1242  0.1831  0.9169
19811TIP3   OH280847   1.896   3.714  14.203 -0.5257 -0.2589 -0.1334
19811TIP3    H180848   1.843   3.654  14.151 -1.6391  0.1422  0.4967
19811TIP3    H280849   1.832   3.770  14.247  0.4287  0.1866  0.7226
19812TIP3   OH280850   0.844   5.245   1.863 -0.0154 -0.1061  0.1543
19812TIP3    H180851   0.882   5.164   1.896 -0.3317 -1.0226 -1.6214
19812TIP3    H280852   0.905   5.274   1.794 -2.0484 -1.2530 -2.2880
19813TIP3   OH280853   2.023   6.615   2.328 -0.3251  0.5887 -0.2618
19813TIP3    H180854   2.067   6.676   2.388  1.5460 -0.9074 -0.0272
19813TIP3    H280855   2.014   6.534   2.379 -0.6771 -0.0445 -1.3049
19814TIP3   OH280856   0.988   2.769   4.968 -0.0615 -0.1601 -0.1610
19814TIP3    H180857   0.927   2.795   4.899 -1.1722  0.1421  0.8844
19814TIP3    H280858   1.011   2.679   4.948 -0.4463 -0.1049 -0.8720
19815TIP3   OH280859   1.248   3.760  14.040 -0.5105  0.5113 -0.2355
19815TIP3    H180860   1.221   3.673  14.008 -0.3881  0.1446  0.6172
19815TIP3    H280861   1.176   3.818  14.014 -0.3879  0.2531 -1.2069
19816TIP3   OH280862   0.092   1.345   5.352 -0.4276 -0.5654 -0.3093
19816TIP3    H180863   0.181   1.378   5.363 -1.0156  1.0181 -0.0389
19816TIP3    H280864   0.036   1.423   5.359 -1.8050 -1.4512 -0.9435
19817TIP3   OH280865   2.217   2.034  10.242  0.4228 -0.3523 -0.0855
19817TIP3    H180866   2.215   2.117  10.195 -1.2154  1.3318  2.6623
19817TIP3    H280867   2.310   2.019  10.261  0.7853  0.5890 -1.0230
19818TIP3   OH280868   2.252   2.475   4.346  0.2123  0.0467 -0.3248
19818TIP3    H180869   2.221   2.551   4.296  0.7915  0.0217 -0.7288
19818TIP3    H280870   2.268   2.407   4.280 -1.2338 -0.7630  0.1324
19819TIP3   OH280871   2.226   2.024  13.635  0.1332  0.4311 -0.0298
19819TIP3    H180872   2.134   2.041  13.618  0.6493  1.3062 -2.3347
19819TIP3    H280873   2.230   2.005  13.729 -2.7539 -2.5253 -0.3118
19820TIP3   OH280874   2.735   6.444   5.150 -0.4420  0.2521  0.6167
19820TIP3    H180875   2.762   6.504   5.220  0.2503  0.8021 -0.1072
19820TIP3    H280876   2.762   6.358   5.181  0.6218  0.5921  0.6765
19821TIP3   OH280877   5.948   0.370   4.148  0.3808 -0.3056 -1.0435
19821TIP3    H180878   5.997   0.352   4.067 -1.4928  0.5020 -2.4289
19821TIP3    H280879   5.859   0.340   4.129 -0.3907  1.0089  0.2888
19822TIP3   OH280880   1.878   1.525   0.701  0.3352  0.0586 -0.9251
19822TIP3    H180881   1.939   1.451   0.700 -0.6482 -0.9518  1.8968
19822TIP3    H280882   1.905   1.577   0.777 -2.7863 -1.0271  1.1384
19823TIP3   OH280883   6.414   0.516  11.300 -0.2004  0.0801  0.5544
19823TIP3    H180884   6.464   0.492  11.222  1.0059  0.6672  1.1170
19823TIP3    H280885   6.453   0.463  11.370  0.3053  1.2484  1.1858
19824TIP3   OH280886   1.331   3.895   4.599  0.0531  0.1649 -0.3240
19824TIP3    H180887   1.262   3.841   4.560 -0.1148  0.2277 -0.1156
19824TIP3    H280888   1.305   3.904   4.690  0.4534  0.0019 -0.1903
19825TIP3   OH280889   3.246   4.438   0.383 -0.5017 -0.4079  0.7507
19825TIP3    H180890   3.299   4.395   0.451 -1.4157 -0.4655  1.4454
19825TIP3    H280891   3.262   4.386   0.304  1.1383  0.0861  0.7150
19826TIP3   OH280892   3.019   6.735  12.773  0.0411  0.2351 -0.6212
19826TIP3    H180893   2.927   6.718  12.755  0.2308 -0.8511 -0.5946
19826TIP3    H280894   3.044   6.801  12.707 -1.0476  1.4832  0.1505
19827TIP3   OH280895   2.959   0.822   2.586  0.3558  0.3367 -0.3580
19827TIP3    H180896   2.928   0.753   2.644  1.4224 -0.4894 -0.7380
19827TIP3    H280897   2.915   0.901   2.617 -0.8004 -0.4894  0.1525
19828TIP3   OH280898   5.491   1.627   1.073 -0.2392 -0.2655  0.4200
19828TIP3    H180899   5.561   1.569   1.041  1.5674  1.3650  1.2312
19828TIP3    H280900   5.492   1.615   1.168  0.2647  1.1371  0.6182
19829TIP3   OH280901   4.966   2.893   6.122  0.4031 -0.2058 -0.1596
19829TIP3    H180902   5.003   2.981   6.130  0.8521 -0.4402  0.3799
19829TIP3    H280903   4.984   2.868   6.032  2.1335 -0.5672  0.2605
19830TIP3   OH280904   6.379   4.438  13.607  0.2522  0.5174  0.3780
19830TIP3    H180905   6.357   4.531  13.601  1.0562  0.6694 -0.3923
19830TIP3    H280906   6.473   4.435  13.594 -0.0523 -0.6048 -1.9670
19831TIP3   OH280907   2.686   4.633   2.731  0.1609 -0.0075 -0.5105
19831TIP3    H180908   2.653   4.552   2.691  0.3945 -1.3986  1.8986
19831TIP3    H280909   2.668   4.623   2.824  2.0797  1.8032  0.1420
19832TIP3   OH280910   5.485   2.646  14.748 -0.3801  0.3665 -0.4276
19832TIP3    H180911   5.440   2.599  14.818 -1.6398  1.5269 -0.4139
19832TIP3    H280912   5.501   2.733  14.784  1.6223  0.0916 -0.5588
19833TIP3   OH280913   4.776   3.453   0.379  0.4101 -0.8011 -0.4977
19833TIP3    H180914   4.865   3.427   0.401  1.0650  0.4171 -1.5799
19833TIP3    H280915   4.724   3.373   0.390  1.4303 -1.2782  1.1474
19834TIP3   OH280916   2.644   1.422  14.837 -0.5188  0.1304  0.3169
19834TIP3    H180917   2.688   1.449  14.756  0.5678  0.9497  1.1323
19834TIP3    H280918   2.558   1.392  14.809 -0.6379  1.5657 -1.0195
19835TIP3   OH280919   1.765   5.281   1.241  0.0736  0.1541 -0.2359
19835TIP3    H180920   1.720   5.206   1.279  0.6589  0.7038  1.6304
19835TIP3    H280921   1.725   5.357   1.283  0.9341  0.7722 -0.5087
19836TIP3   OH280922   5.838   2.452  11.843  0.6218  0.4021  0.0869
19836TIP3    H180923   5.791   2.396  11.905 -0.5361  1.4022  0.1449
19836TIP3    H280924   5.792   2.439  11.760 -0.6250  2.3207  0.4077
19837TIP3   OH280925   0.485   1.167   4.563  0.2250 -0.2261  0.2442
19837TIP3    H180926   0.535   1.244   4.592  2.7222 -1.4602 -0.5183
19837TIP3    H280927   0.393   1.194   4.571  0.9834  3.0895 -0.6812
19838TIP3   OH280928   6.008   5.559   0.246 -0.2124  0.7094 -0.5699
19838TIP3    H180929   5.962   5.619   0.305 -1.1946  0.0090 -0.5834
19838TIP3    H280930   6.069   5.614   0.198 -0.5995  1.5778 -0.0885
19839TIP3   OH280931   1.258   0.347  15.018  0.2280  0.0615  0.3492
19839TIP3    H180932   1.192   0.336  14.949 -2.5170  0.3069  2.7226
19839TIP3    H280933   1.301   0.261  15.023 -2.2455 -1.2625  0.8131
19840TIP3   OH280934   4.240   0.269   3.260  0.6007  0.4240 -0.3750
19840TIP3    H180935   4.181   0.265   3.185  1.3983 -0.0910 -0.9820
19840TIP3    H280936   4.312   0.211   3.238  0.2865 -0.6907  1.3117
19841TIP3   OH280937   4.026   1.770   5.770 -0.7809  0.1877  0.1182
19841TIP3    H180938   4.051   1.838   5.707  0.1582  1.0661  1.4089
19841TIP3    H280939   3.931   1.760   5.758 -1.2837  3.0602  1.1717
19842TIP3   OH280940   2.308   5.352   2.346 -0.1279 -0.1100  0.0389
19842TIP3    H180941   2.221   5.382   2.372  0.2296  2.3581 -1.2768
19842TIP3    H280942   2.359   5.355   2.427 -0.9953 -0.5818  0.6211
19843TIP3   OH280943   5.701   0.001  15.551  0.4408  0.0764  0.5900
19843TIP3    H180944   5.700   0.045  15.636  1.4322  0.4853  0.3999
19843TIP3    H280945   5.636  -0.069  15.560 -0.6951  1.1708  1.1089
19844TIP3   OH280946   4.046   6.052   2.617  0.3245 -0.4499 -0.0437
19844TIP3    H180947   3.981   6.082   2.681  1.1492  1.6179 -0.0876
19844TIP3    H280948   3.994   6.029   2.540 -0.4134  1.0473 -0.0430
19845TIP3   OH280949   5.327   1.881  11.618  0.3298 -0.3287  0.5363
19845TIP3    H180950   5.355   1.813  11.679 -1.8025 -1.5234  0.2929
19845TIP3    H280951   5.324   1.961  11.670  1.4044 -0.7060  1.2066
19846TIP3   OH280952   6.023   0.632   4.219  0.1867  0.0814  0.4988
19846TIP3    H180953   5.995   0.540   4.208 -0.2764  0.3427 -0.7834
19846TIP3    H280954   5.969   0.665   4.291 -0.3870 -0.3780  0.2910
19847TIP3   OH280955   3.092   2.279   4.364 -0.3827  0.3111 -0.3221
19847TIP3    H180956   3.050   2.363   4.349 -0.5311  0.3547  0.3460
19847TIP3    H280957   3.031   2.215   4.328 -1.8226  0.2420  2.0974
19848TIP3   OH280958   6.797   1.752  16.331  0.9226  0.0116 -0.4771
19848TIP3    H180959   6.769   1.670  16.372  2.4647 -1.5587 -2.3152
19848TIP3    H280960   6.842   1.800  16.400 -0.5515 -0.3803  0.7990
19849TIP3   OH280961   5.247   5.091   0.045 -0.4044 -0.3891 -0.0655
19849TIP3    H180962   5.184   5.158   0.067 -0.0076 -0.5550  1.7156
19849TIP3    H280963   5.226   5.018   0.103 -1.8510 -2.5340 -2.9944
19850TIP3   OH280964   0.307   0.413   5.863  0.4152  0.3035  0.4878
19850TIP3    H180965   0.323   0.504   5.886  2.0950  0.1541  0.0411
19850TIP3    H280966   0.296   0.413   5.768 -0.1807  0.1081  0.5507
19851TIP3   OH280967   4.982   4.731   4.554  0.6235 -0.0556 -0.2917
19851TIP3    H180968   4.932   4.761   4.630 -0.9278  2.0588 -1.9918
19851TIP3    H280969   5.073   4.746   4.577  0.3304 -1.1282  1.7666
19852TIP3   OH280970   1.207   2.744  14.279  0.5949  0.3234 -0.0019
19852TIP3    H180971   1.212   2.674  14.343  0.1512 -0.3057 -0.6445
19852TIP3    H280972   1.278   2.804  14.303  1.8207 -0.9795 -0.2062
19853TIP3   OH280973   0.044   2.363   3.106  0.5406 -0.2087 -0.3381
19853TIP3    H180974   0.094   2.325   3.033  1.4951  0.5657 -0.0933
19853TIP3    H280975   0.108   2.376   3.175  0.2933  2.0133 -0.4703
19854TIP3   OH280976   6.585   4.928   6.520  0.1032 -0.0201  0.2307
19854TIP3    H180977   6.575   5.018   6.551 -0.2396  0.6388 -1.6576
19854TIP3    H280978   6.679   4.909   6.531  0.1294  0.4608  0.8819
19855TIP3   OH280979   4.833   5.452  10.568  0.1792 -0.1193 -0.5290
19855TIP3    H180980   4.842   5.513  10.642  2.9909 -0.4444 -0.4810
19855TIP3    H280981   4.865   5.501  10.492  3.3128 -1.6149 -0.3458
19856TIP3   OH280982   3.046   6.580   4.843 -0.2750  0.2230  0.1281
19856TIP3    H180983   3.001   6.530   4.911 -0.3582 -2.5077 -1.7815
19856TIP3    H280984   2.977   6.630   4.800 -1.3250 -2.4467 -1.5216
19857TIP3   OH280985   5.651   1.136  14.442  0.0736 -0.1097  0.0916
19857TIP3    H180986   5.727   1.180  14.480  1.3947 -1.6823 -0.6008
19857TIP3    H280987   5.640   1.057  14.495  0.5106 -1.1504 -1.2918
19858TIP3   OH280988   4.652   4.699  15.122  0.8735 -0.1536 -0.1491
19858TIP3    H180989   4.711   4.624  15.120 -1.2812 -2.0843 -4.4445
19858TIP3    H280990   4.566   4.662  15.144  0.1416  1.4030 -0.2453
19859TIP3   OH280991   1.467   0.477  15.950  0.1740 -0.4658  0.2014
19859TIP3    H180992   1.558   0.473  15.979  0.4498  1.3132 -0.3483
19859TIP3    H280993   1.421   0.415  16.008  1.3670  0.1583  1.8857
19860TIP3   OH280994   1.363   6.266   6.560  0.3057 -0.2058  0.5353
19860TIP3    H180995   1.362   6.349   6.609 -4.1878  0.0653  0.3512
19860TIP3    H280996   1.343   6.291   6.470 -0.6665 -1.4196  0.3889
19861TIP3   OH280997   4.416   3.196  14.248  0.0526  0.2767  0.8530
19861TIP3    H180998   4.476   3.163  14.182  1.5097 -0.5046  2.5015
19861TIP3    H280999   4.470   3.253  14.304 -0.8532  0.0271  2.0343
19862TIP3   OH281000   3.052   0.292  14.945 -0.0741  0.4969  0.0878
19862TIP3    H181001   3.083   0.208  14.979 -2.4029 -0.3640  0.2597
19862TIP3    H281002   2.973   0.310  14.995 -2.3896  0.2977 -3.2061
19863TIP3   OH281003   0.961   0.215   0.649  0.2420 -0.1630 -0.2598
19863TIP3    H181004   0.975   0.276   0.722  1.0204 -0.6370  0.0045
19863TIP3    H281005   0.868   0.223   0.628  0.5235  1.8222 -0.8883
19864TIP3   OH281006   6.590   4.397   1.821  1.0701  0.4797 -0.2897
19864TIP3    H181007   6.593   4.313   1.774 -1.9049  0.2113 -0.2120
19864TIP3    H281008   6.607   4.373   1.912  0.4761 -0.0091 -0.3007
19865TIP3   OH281009   2.680   6.170   3.712 -0.5422  0.2233  0.3396
19865TIP3    H181010   2.584   6.168   3.716 -0.5435 -0.8621  0.0393
19865TIP3    H281011   2.707   6.199   3.799 -1.1051 -1.9631  1.3239
19866TIP3   OH281012   6.489   1.737   5.523 -0.4896  0.3057  0.1833
19866TIP3    H181013   6.464   1.645   5.527  0.2594  0.0260 -0.8839
19866TIP3    H281014   6.407   1.785   5.532 -1.1252 -0.5171 -0.8973
19867TIP3   OH281015   3.193   3.443  15.038  0.5153 -0.2148  0.1626
19867TIP3    H181016   3.266   3.481  14.988 -0.7780  1.7727 -0.3303
19867TIP3    H281017   3.183   3.355  15.001 -0.1913  1.0332 -2.9906
19868TIP3   OH281018   4.110   0.920   5.868  0.0797  0.8262  0.1206
19868TIP3    H181019   4.074   0.999   5.827 -1.4216  0.2834  0.3534
19868TIP3    H281020   4.082   0.926   5.959 -1.0029 -0.4983 -0.0970
19869TIP3   OH281021   4.891   2.121   0.715  0.1522  0.3015 -0.2730
19869TIP3    H181022   4.931   2.114   0.628  0.9775 -1.1052  0.1893
19869TIP3    H281023   4.826   2.051   0.718  1.0994 -0.5645  0.7148
19870TIP3   OH281024   2.674   3.517  15.723 -0.5171 -0.0146  1.2292
19870TIP3    H181025   2.594   3.524  15.670  0.7192  1.7953 -0.5430
19870TIP3    H281026   2.671   3.594  15.780 -0.0681  0.0176  1.2064
19871TIP3   OH281027   6.754   6.499   2.494 -0.5366 -0.0638 -0.2018
19871TIP3    H181028   6.819   6.566   2.513 -0.8524  0.1601  0.1131
19871TIP3    H281029   6.751   6.495   2.398 -0.1000 -0.0422 -0.2175
19872TIP3   OH281030   6.325   2.723  12.617 -0.2636 -0.2054 -0.5109
19872TIP3    H181031   6.335   2.681  12.532  0.8987  0.8951 -0.9492
19872TIP3    H281032   6.371   2.664  12.678 -0.3477 -0.5538 -0.7810
19873TIP3   OH281033   1.648   3.195  15.533 -0.0636 -0.0661  0.5049
19873TIP3    H181034   1.690   3.216  15.450 -1.4144 -0.3317 -0.2882
19873TIP3    H281035   1.648   3.099  15.536 -2.4409 -0.1723 -0.5678
19874TIP3   OH281036   2.915   2.264   6.040  0.0415  0.0176 -0.5247
19874TIP3    H181037   2.822   2.249   6.059  0.3011 -0.5679  0.3666
19874TIP3    H281038   2.949   2.176   6.020  0.2546  0.3293 -1.6020
19875TIP3   OH281039   4.712   6.421  12.102  0.4568  0.3994  0.0320
19875TIP3    H181040   4.743   6.511  12.105 -1.1266  0.9494  1.0355
19875TIP3    H281041   4.714   6.398  12.009 -1.5991  2.4062 -0.5831
19876TIP3   OH281042   5.118   5.158  11.881 -0.7183 -0.6649 -0.4518
19876TIP3    H181043   5.054   5.105  11.929 -2.9870  1.7555 -0.5905
19876TIP3    H281044   5.175   5.195  11.948 -1.8231  0.0930  0.0910
19877TIP3   OH281045   4.044   4.036  16.852  0.0878 -0.7440 -0.2995
19877TIP3    H181046   4.128   4.071  16.881  0.2940 -0.7576 -0.8655
19877TIP3    H281047   4.058   4.014  16.760 -0.7764  0.0250 -0.6261
19878TIP3   OH281048   6.245   4.614   2.382  0.2838  0.1699 -0.1504
19878TIP3    H181049   6.243   4.604   2.287  1.1768 -1.0177 -0.0657
19878TIP3    H281050   6.174   4.675   2.401 -1.1984 -1.1066 -1.3952
19879TIP3   OH281051   1.514   0.755   0.503  0.3989 -0.1777  0.5170
19879TIP3    H181052   1.564   0.766   0.584  1.8924  0.0522 -0.3980
19879TIP3    H281053   1.549   0.674   0.464 -1.9599 -1.6209  1.2138
19880TIP3   OH281054   3.448   2.766  10.464  0.1839 -0.1480 -0.2964
19880TIP3    H181055   3.533   2.750  10.423 -0.8333 -0.1623 -2.5078
19880TIP3    H281056   3.433   2.688  10.517  1.2520 -0.4302 -0.3762
19881TIP3   OH281057   3.496   2.881   6.150 -0.6185  0.0892 -0.0405
19881TIP3    H181058   3.544   2.950   6.194  1.9554  1.0284 -3.7918
19881TIP3    H281059   3.560   2.811   6.137 -1.4492 -0.4608 -1.4365
19882TIP3   OH281060   6.742   3.105  16.960 -0.2891 -0.3994 -0.1574
19882TIP3    H181061   6.810   3.151  16.911  0.4157 -0.2836  0.8981
19882TIP3    H281062   6.744   3.016  16.926  0.4765 -0.4323 -0.0462
19883TIP3   OH281063   6.706   2.962  14.453 -0.0489 -0.8595 -0.5634
19883TIP3    H181064   6.684   2.979  14.361 -1.9434 -1.8099 -0.3364
19883TIP3    H281065   6.692   3.046  14.496 -0.0607 -0.6339 -0.9977
19884TIP3   OH281066   0.194   5.814   1.372  0.1431 -0.1551 -0.2091
19884TIP3    H181067   0.108   5.831   1.334 -0.1424  0.2892  0.6323
19884TIP3    H281068   0.193   5.721   1.394 -0.4190  0.0315  0.5547
19885TIP3   OH281069   3.121   6.329  15.012  0.0597 -0.7160  0.2309
19885TIP3    H181070   3.199   6.288  14.975 -0.0030 -0.1212 -0.5824
19885TIP3    H281071   3.049   6.294  14.959  0.0972  1.1978 -1.1951
19886TIP3   OH281072   0.139   6.745  16.682  0.2195 -0.5560 -1.3015
19886TIP3    H181073   0.174   6.806  16.616  2.2633 -1.0173 -0.7071
19886TIP3    H281074   0.120   6.665  16.633 -1.4270  0.1480 -1.8847
19887TIP3   OH281075   6.136   4.444   1.529 -0.5666 -0.1877 -0.8796
19887TIP3    H181076   6.220   4.490   1.532  0.6597 -2.3188  0.5402
19887TIP3    H281077   6.160   4.351   1.530 -2.9529 -0.8708 -1.1774
19888TIP3   OH281078   5.026   0.482  11.229 -0.1084 -0.4974 -0.3526
19888TIP3    H181079   4.983   0.447  11.150  0.1188  0.0758 -0.7363
19888TIP3    H281080   5.099   0.534  11.195  0.1616 -0.4772  0.2538
19889TIP3   OH281081   1.237   3.583   6.026  0.2574 -0.3429 -0.5025
19889TIP3    H181082   1.204   3.501   6.062 -0.9498 -0.1224 -1.0589
19889TIP3    H281083   1.300   3.614   6.091 -0.7584 -0.7123  0.6885
19890TIP3   OH281084   6.398   2.390   0.140  0.2432 -0.6789  0.4223
19890TIP3    H181085   6.402   2.315   0.081 -0.8909 -0.8328  0.5160
19890TIP3    H281086   6.367   2.462   0.085 -0.3029 -0.6923  0.7106
19891TIP3   OH281087   3.134   4.983   0.405 -0.8482 -0.2674 -0.2058
19891TIP3    H181088   3.059   4.992   0.347  0.4694  0.8739 -1.8052
19891TIP3    H281089   3.151   5.072   0.437  1.1241 -0.0826 -1.6086
19892TIP3   OH281090   1.832   0.153  13.382 -0.1837 -0.4543 -0.0492
19892TIP3    H181091   1.820   0.196  13.467 -0.6715 -0.0420 -0.3183
19892TIP3    H281092   1.909   0.197  13.344 -1.9802  1.8442 -1.2939
19893TIP3   OH281093   2.468   2.095   5.620 -0.1634 -0.4976  0.2041
19893TIP3    H181094   2.512   2.107   5.704  0.7692  1.3569 -0.5047
19893TIP3    H281095   2.386   2.143   5.630  0.8040  1.3843 -0.5506
19894TIP3   OH281096   4.232   1.180   6.728 -0.4014 -0.0226 -0.6435
19894TIP3    H181097   4.207   1.210   6.641 -4.4191  1.6635  0.8572
19894TIP3    H281098   4.290   1.249   6.762 -0.9708  0.6687 -1.0478
19895TIP3   OH281099   3.434   4.948  12.646  0.1169 -0.1429 -0.1848
19895TIP3    H181100   3.405   5.038  12.632  0.7080 -0.0945 -1.1903
19895TIP3    H281101   3.370   4.912  12.708  0.6189  1.3471  1.2857
19896TIP3   OH281102   5.651   5.900   1.906 -0.1433  0.2096  0.0236
19896TIP3    H181103   5.660   5.866   1.995 -0.2460  0.8710  0.3005
19896TIP3    H281104   5.698   5.983   1.908  3.1623 -1.4540 -1.5958
19897TIP3   OH281105   6.185   4.994   2.781  0.4215 -0.0171 -0.5356
19897TIP3    H181106   6.161   4.903   2.799 -0.8322  0.0113 -1.8682
19897TIP3    H281107   6.260   5.010   2.838  0.5775 -1.8244 -0.1518
19898TIP3   OH281108   2.056   1.563  13.779 -0.1669  0.2998  0.1803
19898TIP3    H181109   2.143   1.562  13.819  0.2022  1.3669 -0.5514
19898TIP3    H281110   1.998   1.592  13.849 -0.0129 -0.8301  0.7953
19899TIP3   OH281111   6.543   4.151   1.061  0.5702 -0.5811 -0.3950
19899TIP3    H181112   6.635   4.168   1.079  0.2286 -0.3572  1.2381
19899TIP3    H281113   6.537   4.155   0.965  1.9680  0.8908 -0.4772
19900TIP3   OH281114   4.289   5.365   2.827  0.2991 -0.4251 -0.5357
19900TIP3    H181115   4.305   5.431   2.759  1.9641 -0.1988  0.0273
19900TIP3    H281116   4.197   5.339   2.814 -0.9086  2.9806  0.0687
19901TIP3   OH281117   2.836   4.134  14.642 -0.3733 -0.1000 -0.2975
19901TIP3    H181118   2.835   4.176  14.728  2.1551 -0.8683  0.1914
19901TIP3    H281119   2.806   4.044  14.660 -0.2791 -0.1338 -0.3117
19902TIP3   OH281120   3.728   1.693   3.467  0.0438 -0.6934  0.2510
19902TIP3    H181121   3.794   1.636   3.507 -1.3905 -2.1968  0.5741
19902TIP3    H281122   3.774   1.775   3.451  1.3581 -0.8382  2.7590
19903TIP3   OH281123   6.126   3.611  11.832  0.4458 -0.2356  0.3935
19903TIP3    H181124   6.208   3.659  11.847  0.4220 -0.3155  0.7930
19903TIP3    H281125   6.057   3.677  11.841  0.4535 -0.2134  0.2855
19904TIP3   OH281126   5.221   0.237  11.693 -0.4662 -0.1542  0.1851
19904TIP3    H181127   5.153   0.299  11.719 -0.3689 -0.3049  0.8163
19904TIP3    H281128   5.254   0.271  11.610  0.0087  0.9789  0.8200
19905TIP3   OH281129   3.095   2.921   6.477  0.5375  0.0224  0.2154
19905TIP3    H181130   3.181   2.903   6.440 -0.7909 -0.7199 -2.8068
19905TIP3    H281131   3.087   3.017   6.474  1.3640  0.1149  0.8363
19906TIP3   OH281132   0.996   4.273  16.471 -0.5747  0.6722 -0.4680
19906TIP3    H181133   1.083   4.235  16.483 -0.5909  0.6837 -0.3094
19906TIP3    H281134   0.976   4.313  16.556  0.2866  2.7761 -1.1752
19907TIP3   OH281135   0.580   5.901  11.958 -0.1982  0.1669  0.5236
19907TIP3    H181136   0.521   5.842  11.911 -1.0393  0.1169  1.5977
19907TIP3    H281137   0.553   5.988  11.930  0.3380  0.1009 -0.2466
19908TIP3   OH281138   2.397   4.178  11.784  0.0363 -0.8225  1.0263
19908TIP3    H181139   2.474   4.121  11.777 -0.3297 -1.3009  0.8897
19908TIP3    H281140   2.323   4.118  11.791 -0.2037 -0.3884  2.6606
19909TIP3   OH281141   6.274   2.268  16.958 -0.8779 -0.2120  0.2703
19909TIP3    H181142   6.324   2.324  16.898 -1.1050 -0.9803 -0.6580
19909TIP3    H281143   6.243   2.196  16.904 -1.3162 -0.7973  1.2648
19910TIP3   OH281144   6.771   4.130  10.494  0.6811  0.0182  0.2480
19910TIP3    H181145   6.773   4.045  10.450 -0.5030  0.7306 -1.3085
19910TIP3    H281146   6.678   4.142  10.515  0.9160  0.7148  0.8817
19911TIP3   OH281147   5.952   4.456   3.400  0.3377  0.0831  0.3732
19911TIP3    H181148   5.944   4.500   3.316  1.1561  0.9317  0.7118
19911TIP3    H281149   5.869   4.410   3.412  0.1703  0.0329 -0.8360
19912TIP3   OH281150   0.343   2.920  14.757  0.2684  0.6427  0.3371
19912TIP3    H181151   0.315   2.968  14.678 -0.9408  0.8312  0.8574
19912TIP3    H281152   0.344   2.829  14.730  1.3978  0.8332 -0.3260
19913TIP3   OH281153   4.368   4.810  10.726 -0.3594  0.2627  0.0851
19913TIP3    H181154   4.366   4.761  10.808  1.0553  0.3096  0.1751
19913TIP3    H281155   4.398   4.746  10.661  1.7230  0.9763  0.2430
19914TIP3   OH281156   4.229   5.297  10.434 -0.4705  0.1493  0.3332
19914TIP3    H181157   4.228   5.356  10.359  1.3776  0.7309  0.7276
19914TIP3    H281158   4.263   5.214  10.399 -1.8983 -0.3528  0.0490
19915TIP3   OH281159   2.751   3.685   6.522  0.0498  0.1227 -0.6567
19915TIP3    H181160   2.826   3.699   6.465 -0.7236  0.2410 -1.6643
19915TIP3    H281161   2.682   3.652   6.465 -1.1852  1.5702 -0.0894
19916TIP3   OH281162   2.760   0.122   1.622  0.4143  0.1769 -0.0070
19916TIP3    H181163   2.692   0.150   1.683  0.4630 -0.6379  0.4380
19916TIP3    H281164   2.842   0.137   1.671  0.4332 -0.8332  0.2818
19917TIP3   OH281165   5.269   0.831   1.280 -0.3088  0.1877 -0.2895
19917TIP3    H181166   5.251   0.739   1.258  0.0282  0.0441  0.0286
19917TIP3    H281167   5.357   0.830   1.318  0.0411  0.7693 -1.0693
19918TIP3   OH281168   5.652   1.203   1.159 -0.0575 -0.1540 -0.1040
19918TIP3    H181169   5.640   1.151   1.239  3.2478 -0.9535 -0.0058
19918TIP3    H281170   5.628   1.144   1.088 -1.4882  0.0353  0.1935
19919TIP3   OH281171   3.364   4.339  15.853 -0.5900 -0.0706 -0.0783
19919TIP3    H181172   3.295   4.315  15.791 -0.3279 -2.7269  0.5306
19919TIP3    H281173   3.318   4.360  15.934 -0.8373  1.7568 -0.6581
19920TIP3   OH281174   2.490   0.204   1.113  0.4927  0.0488 -0.2502
19920TIP3    H181175   2.399   0.184   1.090  0.1925  0.8212  0.2194
19920TIP3    H281176   2.498   0.297   1.097  0.6282  0.3816  1.5258
19921TIP3   OH281177   5.495   4.243   5.772 -0.2971  0.4334  0.0633
19921TIP3    H181178   5.563   4.286   5.823 -2.2136  1.0728  2.2581
19921TIP3    H281179   5.491   4.292   5.690  0.0208  2.1829  1.0449
19922TIP3   OH281180   0.713   5.899   1.470 -0.5603  0.5149  0.0304
19922TIP3    H181181   0.632   5.859   1.502 -0.7042  0.9854  0.2621
19922TIP3    H281182   0.720   5.981   1.518  0.3648  0.2042  0.4426
19923TIP3   OH281183   2.040   4.955  13.875  0.2281  0.1936  0.3590
19923TIP3    H181184   2.008   5.044  13.861  1.4397  0.5642 -0.2837
19923TIP3    H281185   2.114   4.965  13.935  0.6722 -0.3056 -0.0890
19924TIP3   OH281186   2.594   0.433   2.970  0.1586 -0.0932 -0.2947
19924TIP3    H181187   2.664   0.497   2.982 -0.2220  0.1164  0.9527
19924TIP3    H281188   2.518   0.471   3.013 -0.3723 -0.8954 -0.4884
19925TIP3   OH281189   5.119   6.343   3.627  0.3457 -0.3184 -0.5679
19925TIP3    H181190   5.121   6.253   3.659 -0.6633 -0.6217 -1.2969
19925TIP3    H281191   5.031   6.373   3.649  0.9728  0.8230  0.5013
19926TIP3   OH281192   2.128   0.578   4.643  0.2655 -0.5133 -0.1979
19926TIP3    H181193   2.062   0.521   4.605  1.4042 -2.0844  0.0739
19926TIP3    H281194   2.083   0.625   4.713 -0.4910 -1.7903  0.1963
19927TIP3   OH281195   4.772   2.509   3.163  0.5031  0.7271  0.1842
19927TIP3    H181196   4.790   2.415   3.169  1.3910  0.8711 -0.1174
19927TIP3    H281197   4.678   2.516   3.178  0.2514 -0.3187 -0.7507
19928TIP3   OH281198   1.014   1.788   2.822  0.1408 -0.1442  0.1574
19928TIP3    H181199   0.968   1.835   2.753 -1.8160 -0.9826  0.8026
19928TIP3    H281200   1.080   1.849   2.853 -0.3349  1.0166 -1.0375
19929TIP3   OH281201   1.045   3.449   1.540  0.3162 -0.4534 -0.3583
19929TIP3    H181202   1.126   3.434   1.491 -0.2050 -0.3653 -1.2877
19929TIP3    H281203   0.976   3.439   1.474 -0.5057 -1.6392  0.6372
19930TIP3   OH281204   5.049   5.970  11.657  0.1729 -0.4237  0.2743
19930TIP3    H181205   5.048   5.877  11.634  1.0947 -0.1410 -1.0460
19930TIP3    H281206   5.019   6.015  11.578 -1.4371  0.3588  1.2864
19931TIP3   OH281207   5.583   5.443   3.806  0.3690  0.2253  0.0621
19931TIP3    H181208   5.579   5.492   3.724  0.1671  0.1868  0.0477
19931TIP3    H281209   5.567   5.509   3.874 -0.2961  0.1141  0.0192
19932TIP3   OH281210   0.685   2.776  14.398  0.5674  0.1298 -0.0183
19932TIP3    H181211   0.751   2.707  14.401 -1.0962 -1.4951  1.1560
19932TIP3    H281212   0.638   2.769  14.481  0.9499  3.3853  0.6251
19933TIP3   OH281213   5.445   0.713  15.596  0.2215 -0.0218 -0.4871
19933TIP3    H181214   5.533   0.685  15.620  0.2568  0.5717  0.1371
19933TIP3    H281215   5.388   0.644  15.628  0.4286 -0.1869 -0.4736
19934CLA    CLA81216   2.499   3.993  16.323  0.0525  0.1676  0.1481
19935LIG     O181217   3.450   3.814  16.341 -0.2355 -0.3638 -0.4700
19935LIG     O281218   3.491   3.720  16.124  0.1470 -0.2898  0.0423
19935LIG     O381219   3.343   3.439  16.929  0.3530 -0.0743  0.2776
19935LIG     O481220   3.069   3.445  17.066  0.3351 -0.0799 -0.3645
19935LIG      N81221   3.223   3.626  16.251  0.0606 -0.1144  0.3416
19935LIG     C181222   3.369   3.596  16.272 -1.0426 -1.2229 -0.3504
19935LIG     C281223   3.158   3.705  16.366  0.1989 -0.2621  0.8839
19935LIG     C381224   3.208   3.712  16.123  0.4458  0.5494 -0.6103
19935LIG     C481225   3.148   3.500  16.227 -0.5090 -0.1542  0.3923
19935LIG     C581226   3.483   3.700  16.262  0.0420 -0.0911 -0.6983
19935LIG     C681227   3.190   3.630  16.487  0.2067  0.3764 -0.0328
19935LIG     C781228   3.094   3.532  16.527  0.4072 -0.2642  0.1840
19935LIG     C881229   3.302   3.661  16.572 -0.0177  0.0559 -0.2765
19935LIG     C981230   3.116   3.453  16.639 -0.3483 -0.1600 -0.8916
19935LIG    C1081231   3.316   3.583  16.690 -0.1422 -0.6529  0.0618
19935LIG    C1181232   3.563   3.862  16.412 -0.2833 -0.1631  0.6256
19935LIG    C1281233   3.625   3.726  16.079 -0.6111  0.3408 -0.3008
19935LIG    C1381234   3.225   3.483  16.720  0.5929  0.0613 -0.7375
19935LIG    C1481235   3.533   3.986  16.493  0.0845 -0.2315  0.2948
19935LIG    C1581236   3.634   3.791  15.947 -0.1192 -0.2956  0.0958
19935LIG    C1681237   3.258   3.402  16.848  0.9428 -0.4295 -1.0143
19935LIG    C1781238   3.164   3.289  16.889  0.0189 -1.0078 -0.8484
19935LIG    C1881239   3.080   3.312  17.005 -0.5165  0.3981  0.7564
19935LIG    C1981240   3.150   3.171  16.813 -0.1703  0.2369  0.0693
19935LIG    C2081241   2.997   3.210  17.052 -0.5425 -0.0285  0.0295
19935LIG    C2181242   2.989   3.087  16.974 -0.3782  0.1421 -0.1193
19935LIG    C2281243   3.068   3.065  16.857 -0.5974 -0.5445 -0.0110
19935LIG    C2381244   2.899   2.977  17.022  0.1860  0.0240 -0.3712
19935LIG     H181245   3.396   3.530  16.191 -3.0999 -1.3031 -1.0210
19935LIG     H281246   3.383   3.543  16.364  2.4257 -1.2665 -0.7673
19935LIG     H381247   3.053   3.724  16.349  0.7464  0.7922 -1.7378
19935LIG     H481248   3.202   3.803  16.377  0.0607 -0.1501  0.4671
19935LIG     H581249   3.270   3.800  16.136  1.6496 -0.4461  0.8161
19935LIG     H681250   3.105   3.732  16.097 -0.4446  0.3289  2.3010
19935LIG     H781251   3.249   3.660  16.039  0.9361  0.4956 -0.3424
19935LIG     H881252   3.042   3.504  16.210 -0.2946  1.8319 -0.8294
19935LIG     H981253   3.160   3.437  16.314 -0.1003  0.2225  0.6136
19935LIG    H1081254   3.180   3.454  16.134 -1.9903  1.3577 -0.9302
19935LIG    H1181255   3.579   3.657  16.299  0.3541  1.8954  0.9762
19935LIG    H1281256   3.006   3.514  16.468  1.2190 -0.8506 -0.8957
19935LIG    H1381257   3.377   3.737  16.556  0.0346 -0.1951 -1.2583
19935LIG    H1481258   3.051   3.370  16.659  2.3016 -2.4529 -1.1045
19935LIG    H1581259   3.403   3.604  16.750 -0.3446 -0.1022  0.1685
19935LIG    H1681260   3.639   3.884  16.333 -0.8867 -0.5105 -0.0622
19935LIG    H1781261   3.586   3.783  16.486 -0.1016 -3.0253 -2.2725
19935LIG    H1881262   3.659   3.620  16.085 -1.3537  0.1896  2.7477
19935LIG    H1981263   3.692   3.786  16.144  2.9964 -2.5465 -0.9686
19935LIG    H2081264   3.447   3.971  16.561  0.9697  1.5272  1.8736
19935LIG    H2181265   3.495   4.061  16.421 -0.0416 -1.8484 -1.4126
19935LIG    H2281266   3.624   4.020  16.546 -0.2775 -2.9643  2.9200
19935LIG    H2381267   3.730   3.837  15.913  0.0875 -0.8308 -0.0760
19935LIG    H2481268   3.560   3.873  15.944  1.2454  1.0051  1.0008
19935LIG    H2581269   3.606   3.717  15.869  0.9748 -0.3455 -0.2777
19935LIG    H2681270   3.229   3.168  16.740 -0.5390  2.8952 -0.5738
19935LIG    H2781271   2.932   3.213  17.138  2.2163  3.1952  2.2701
19935LIG    H2881272   3.067   2.965  16.818 -0.0800 -0.6572  0.2475
19935LIG    H2981273   2.812   3.029  17.069 -0.2583  0.9176 -2.0918
19935LIG    H3081274   2.949   2.899  17.083  1.6356  0.8244 -0.4795
19935LIG    H3181275   2.854   2.925  16.935 -0.3190  0.8363 -0.6037
19935LIG    H3281276   2.997   3.443  17.130  0.5660  0.0980 -0.0962
   6.82037   6.82037  17.02776
